/*--------------------------------*- C++ -*----------------------------------*\
  =========                 |
  \\      /  F ield         | OpenFOAM: The Open Source CFD Toolbox
   \\    /   O peration     | Website:  https://openfoam.org
    \\  /    A nd           | Version:  10
     \\/     M anipulation  |
\*---------------------------------------------------------------------------*/
FoamFile
{
    format      ascii;
    class       volScalarField;
    location    "20000";
    object      Co;
}
// * * * * * * * * * * * * * * * * * * * * * * * * * * * * * * * * * * * * * //

dimensions      [0 0 0 0 0 0 0];

internalField   nonuniform List<scalar> 
17808
(
6063.27
5415.19
5133.8
4943.08
4797.38
4679.51
4580.37
4494.63
4418.95
4351.09
4289.48
4232.96
4180.69
4132.01
4086.39
4043.43
4002.78
3964.18
3927.38
3892.2
3858.47
3826.05
3794.83
3764.69
3735.54
3707.31
3679.91
3653.3
3627.4
3602.18
3577.57
3553.55
3530.08
3507.12
3484.64
3462.61
3441
3419.8
3398.97
3378.51
3358.38
3338.58
3319.08
3299.87
3280.94
3262.27
3243.85
3225.67
3207.72
3189.98
3172.45
3155.11
3137.96
3121
3104.2
3087.57
3071.09
3054.77
3038.58
3022.53
3006.62
2990.82
2975.15
2959.58
2944.13
2928.78
2913.52
2898.36
2883.28
2868.3
2853.45
2838.69
2824
2809.36
2794.78
2780.25
2765.77
2751.33
2736.93
2722.57
2708.24
2693.93
2679.66
2665.4
2651.16
2636.93
2622.71
2608.49
2594.28
2580.06
2565.83
2551.59
5878.3
5243.93
4969.29
4784.82
4645.01
4532.43
4437.96
4356.34
4284.28
4219.59
4160.78
4106.76
4056.71
4010.03
3966.24
3924.93
3885.81
3848.61
3813.13
3779.18
3746.6
3715.28
3685.09
3655.93
3627.72
3600.39
3573.86
3548.08
3522.98
3498.53
3474.68
3451.39
3428.62
3406.35
3384.54
3363.16
3342.19
3321.62
3301.4
3281.54
3262
3242.77
3223.84
3205.19
3186.8
3168.67
3150.78
3133.12
3115.68
3098.45
3081.42
3064.59
3047.93
3031.45
3015.13
2998.97
2982.97
2967.11
2951.38
2935.79
2920.33
2904.99
2889.76
2874.64
2859.62
2844.71
2829.89
2815.16
2800.51
2785.95
2771.51
2757.17
2742.9
2728.68
2714.52
2700.4
2686.33
2672.31
2658.32
2644.37
2630.45
2616.56
2602.69
2588.84
2575
2561.18
2547.37
2533.56
2519.75
2505.94
2492.12
2478.28
5708.33
5092
4824.39
4644.26
4507.76
4397.97
4306.02
4226.75
4156.9
4094.32
4037.49
3985.34
3937.06
3892.03
3849.79
3809.95
3772.21
3736.32
3702.07
3669.28
3637.81
3607.54
3578.35
3550.15
3522.86
3496.4
3470.72
3445.75
3421.44
3397.75
3374.64
3352.06
3329.99
3308.39
3287.24
3266.5
3246.16
3226.19
3206.58
3187.3
3168.33
3149.67
3131.29
3113.18
3095.33
3077.73
3060.35
3043.21
3026.27
3009.54
2993
2976.64
2960.46
2944.45
2928.61
2912.91
2897.36
2881.96
2866.68
2851.54
2836.51
2821.61
2806.81
2792.13
2777.54
2763.05
2748.65
2734.34
2720.11
2705.96
2691.92
2677.99
2664.13
2650.31
2636.56
2622.85
2609.18
2595.56
2581.97
2568.42
2554.9
2541.4
2527.93
2514.47
2501.03
2487.61
2474.19
2460.78
2447.36
2433.94
2420.52
2407.08
5542.99
4944.2
4684.08
4509.03
4376.33
4269.55
4180.12
4103.02
4035.12
3974.32
3919.15
3868.57
3821.77
3778.16
3737.26
3698.7
3662.19
3627.47
3594.34
3562.62
3532.18
3502.9
3474.66
3447.37
3420.96
3395.35
3370.48
3346.3
3322.75
3299.8
3277.4
3255.52
3234.13
3213.19
3192.67
3172.56
3152.83
3133.46
3114.43
3095.72
3077.32
3059.2
3041.36
3023.79
3006.46
2989.37
2972.5
2955.85
2939.4
2923.15
2907.09
2891.21
2875.5
2859.95
2844.55
2829.31
2814.21
2799.24
2784.4
2769.69
2755.1
2740.62
2726.25
2711.98
2697.81
2683.74
2669.75
2655.85
2642.02
2628.28
2614.63
2601.09
2587.62
2574.2
2560.84
2547.52
2534.24
2521.01
2507.81
2494.65
2481.51
2468.4
2455.31
2442.24
2429.19
2416.15
2403.11
2390.08
2377.05
2364.02
2350.98
2337.93
5382.73
4800.84
4547.74
4377.53
4248.56
4144.82
4057.95
3983.09
3917.17
3858.17
3804.64
3755.58
3710.2
3667.92
3628.29
3590.93
3555.56
3521.94
3489.85
3459.15
3429.68
3401.32
3373.98
3347.56
3321.98
3297.18
3273.09
3249.67
3226.86
3204.62
3182.92
3161.71
3140.97
3120.67
3100.78
3081.27
3062.14
3043.35
3024.89
3006.74
2988.88
2971.3
2953.99
2936.93
2920.11
2903.52
2887.14
2870.98
2855.01
2839.23
2823.64
2808.21
2792.95
2777.85
2762.9
2748.1
2733.43
2718.89
2704.48
2690.19
2676.02
2661.95
2647.99
2634.13
2620.37
2606.69
2593.11
2579.6
2566.17
2552.82
2539.55
2526.39
2513.31
2500.27
2487.29
2474.35
2461.46
2448.6
2435.78
2422.99
2410.23
2397.5
2384.79
2372.09
2359.41
2346.74
2334.08
2321.42
2308.76
2296.1
2283.43
2270.76
5227.51
4662.25
4416.12
4250.61
4125.19
4024.33
3939.9
3867.15
3803.11
3745.8
3693.84
3646.21
3602.18
3561.16
3522.73
3486.5
3452.21
3419.62
3388.53
3358.77
3330.22
3302.74
3276.25
3250.66
3225.87
3201.85
3178.51
3155.81
3133.71
3112.16
3091.12
3070.56
3050.46
3030.77
3011.49
2992.58
2974.02
2955.79
2937.89
2920.28
2902.95
2885.9
2869.1
2852.54
2836.21
2820.11
2804.22
2788.52
2773.02
2757.7
2742.56
2727.58
2712.77
2698.1
2683.58
2669.2
2654.96
2640.84
2626.85
2612.97
2599.2
2585.54
2571.98
2558.52
2545.14
2531.86
2518.66
2505.54
2492.5
2479.53
2466.63
2453.84
2441.13
2428.47
2415.86
2403.29
2390.76
2378.27
2365.82
2353.4
2341
2328.63
2316.28
2303.95
2291.63
2279.33
2267.03
2254.73
2242.44
2230.14
2217.83
2205.51
5076.95
4527.93
4288.74
4127.86
4005.94
3907.9
3825.83
3755.11
3692.87
3637.17
3586.67
3540.41
3497.64
3457.81
3420.5
3385.34
3352.07
3320.45
3290.29
3261.43
3233.74
3207.1
3181.42
3156.61
3132.58
3109.29
3086.67
3064.67
3043.24
3022.35
3001.96
2982.03
2962.53
2943.45
2924.75
2906.41
2888.41
2870.73
2853.36
2836.28
2819.47
2802.92
2786.62
2770.55
2754.71
2739.08
2723.65
2708.42
2693.37
2678.5
2663.79
2649.25
2634.87
2620.63
2606.53
2592.57
2578.73
2565.02
2551.43
2537.95
2524.58
2511.31
2498.14
2485.06
2472.08
2459.18
2446.35
2433.61
2420.94
2408.34
2395.81
2383.37
2371.02
2358.73
2346.47
2334.27
2322.1
2309.97
2297.87
2285.8
2273.76
2261.74
2249.75
2237.77
2225.8
2213.85
2201.9
2189.95
2178.01
2166.06
2154.11
2142.15
4930.82
4397.56
4165.16
4008.82
3890.33
3795.06
3715.29
3646.56
3586.07
3531.94
3482.87
3437.92
3396.37
3357.68
3321.44
3287.3
3255
3224.3
3195.03
3167.03
3140.16
3114.32
3089.41
3065.34
3042.04
3019.45
2997.51
2976.18
2955.4
2935.14
2915.36
2896.04
2877.13
2858.62
2840.49
2822.7
2805.24
2788.1
2771.24
2754.67
2738.36
2722.31
2706.49
2690.9
2675.52
2660.35
2645.38
2630.59
2615.99
2601.55
2587.28
2573.16
2559.19
2545.37
2531.68
2518.12
2504.69
2491.37
2478.17
2465.08
2452.1
2439.21
2426.42
2413.72
2401.1
2388.57
2376.12
2363.74
2351.43
2339.19
2327.02
2314.93
2302.93
2290.99
2279.08
2267.22
2255.4
2243.62
2231.87
2220.14
2208.45
2196.78
2185.12
2173.48
2161.86
2150.25
2138.64
2127.04
2115.44
2103.83
2092.22
2080.6
4788.94
4271
4045.22
3893.3
3778.16
3685.58
3608.07
3541.28
3482.5
3429.9
3382.23
3338.54
3298.18
3260.6
3225.39
3192.24
3160.87
3131.06
3102.64
3075.46
3049.38
3024.3
3000.12
2976.77
2954.16
2932.25
2910.97
2890.27
2870.11
2850.46
2831.28
2812.53
2794.2
2776.24
2758.65
2741.4
2724.46
2707.83
2691.48
2675.4
2659.58
2644
2628.65
2613.52
2598.6
2583.88
2569.34
2554.99
2540.82
2526.8
2512.95
2499.24
2485.68
2472.26
2458.97
2445.8
2432.76
2419.83
2407.01
2394.3
2381.69
2369.17
2356.75
2344.41
2332.16
2319.99
2307.9
2295.87
2283.92
2272.03
2260.2
2248.46
2236.8
2225.19
2213.63
2202.11
2190.63
2179.18
2167.76
2156.37
2145.01
2133.67
2122.35
2111.05
2099.76
2088.48
2077.2
2065.93
2054.66
2043.39
2032.1
2020.82
4651.18
4148.12
3928.8
3781.19
3669.31
3579.35
3504.04
3439.15
3382.03
3330.93
3284.6
3242.16
3202.94
3166.43
3132.23
3100.03
3069.56
3040.61
3013.02
2986.62
2961.3
2936.95
2913.48
2890.82
2868.88
2847.61
2826.96
2806.87
2787.32
2768.25
2749.64
2731.45
2713.66
2696.24
2679.17
2662.43
2646
2629.86
2614
2598.4
2583.05
2567.93
2553.04
2538.35
2523.87
2509.59
2495.48
2481.55
2467.79
2454.19
2440.74
2427.44
2414.27
2401.24
2388.33
2375.55
2362.89
2350.33
2337.89
2325.54
2313.29
2301.14
2289.07
2277.09
2265.2
2253.38
2241.63
2229.95
2218.34
2206.79
2195.3
2183.89
2172.56
2161.29
2150.05
2138.86
2127.71
2116.59
2105.5
2094.43
2083.4
2072.38
2061.38
2050.4
2039.44
2028.48
2017.52
2006.58
1995.63
1984.67
1973.72
1962.75
4517.42
4028.82
3815.78
3672.36
3563.67
3476.26
3403.09
3340.04
3284.55
3234.9
3189.89
3148.65
3110.55
3075.08
3041.85
3010.57
2980.97
2952.86
2926.05
2900.42
2875.83
2852.19
2829.4
2807.4
2786.1
2765.45
2745.41
2725.91
2706.93
2688.43
2670.37
2652.72
2635.45
2618.55
2601.99
2585.75
2569.8
2554.14
2538.75
2523.61
2508.72
2494.05
2479.59
2465.34
2451.29
2437.42
2423.74
2410.22
2396.86
2383.65
2370.6
2357.68
2344.9
2332.25
2319.72
2307.31
2295.01
2282.82
2270.74
2258.75
2246.86
2235.06
2223.34
2211.7
2200.15
2188.67
2177.26
2165.92
2154.64
2143.42
2132.27
2121.18
2110.17
2099.22
2088.31
2077.43
2066.6
2055.79
2045.02
2034.27
2023.55
2012.85
2002.17
1991.5
1980.85
1970.2
1959.56
1948.92
1938.29
1927.65
1917.01
1906.35
4387.53
3912.98
3706.04
3566.72
3461.11
3376.19
3305.11
3243.85
3189.94
3141.7
3097.97
3057.91
3020.89
2986.43
2954.15
2923.76
2895.01
2867.7
2841.66
2816.76
2792.89
2769.93
2747.8
2726.43
2705.75
2685.71
2666.25
2647.32
2628.9
2610.94
2593.41
2576.27
2559.52
2543.12
2527.04
2511.28
2495.8
2480.61
2465.67
2450.98
2436.52
2422.28
2408.26
2394.43
2380.79
2367.33
2354.04
2340.92
2327.95
2315.14
2302.46
2289.93
2277.52
2265.24
2253.07
2241.02
2229.08
2217.25
2205.51
2193.87
2182.33
2170.86
2159.49
2148.19
2136.97
2125.82
2114.74
2103.72
2092.77
2081.88
2071.04
2060.27
2049.57
2038.93
2028.33
2017.77
2007.24
1996.74
1986.28
1975.84
1965.42
1955.03
1944.65
1934.29
1923.94
1913.6
1903.26
1892.93
1882.6
1872.26
1861.92
1851.57
4261.39
3800.48
3599.48
3464.13
3361.54
3279.04
3209.98
3150.47
3098.1
3051.23
3008.75
2969.83
2933.86
2900.38
2869.03
2839.5
2811.57
2785.04
2759.75
2735.57
2712.38
2690.08
2668.59
2647.84
2627.76
2608.3
2589.4
2571.03
2553.14
2535.7
2518.68
2502.05
2485.79
2469.86
2454.26
2438.96
2423.94
2409.19
2394.69
2380.44
2366.4
2352.58
2338.97
2325.55
2312.31
2299.25
2286.35
2273.61
2261.03
2248.59
2236.28
2224.11
2212.07
2200.14
2188.33
2176.64
2165.04
2153.55
2142.16
2130.85
2119.64
2108.51
2097.46
2086.49
2075.59
2064.77
2054
2043.31
2032.67
2022.09
2011.56
2001.1
1990.71
1980.37
1970.07
1959.81
1949.59
1939.39
1929.23
1919.08
1908.97
1898.87
1888.79
1878.72
1868.67
1858.62
1848.58
1838.54
1828.51
1818.47
1808.42
1798.37
4138.9
3691.23
3496
3364.52
3264.86
3184.72
3117.62
3059.82
3008.93
2963.4
2922.13
2884.32
2849.38
2816.86
2786.4
2757.72
2730.58
2704.81
2680.25
2656.76
2634.23
2612.57
2591.7
2571.55
2552.05
2533.15
2514.8
2496.96
2479.59
2462.66
2446.13
2429.99
2414.2
2398.74
2383.59
2368.74
2354.16
2339.84
2325.77
2311.93
2298.31
2284.89
2271.68
2258.65
2245.8
2233.12
2220.6
2208.24
2196.02
2183.94
2172
2160.18
2148.49
2136.91
2125.45
2114.09
2102.84
2091.68
2080.62
2069.64
2058.75
2047.95
2037.22
2026.56
2015.98
2005.47
1995.01
1984.63
1974.29
1964.02
1953.8
1943.63
1933.54
1923.49
1913.49
1903.52
1893.59
1883.69
1873.81
1863.96
1854.13
1844.32
1834.53
1824.75
1814.98
1805.22
1795.47
1785.72
1775.97
1766.21
1756.46
1746.69
4019.93
3585.13
3395.51
3267.8
3170.98
3093.13
3027.95
2971.79
2922.36
2878.13
2838.04
2801.31
2767.37
2735.77
2706.18
2678.32
2651.96
2626.93
2603.07
2580.25
2558.37
2537.33
2517.06
2497.48
2478.54
2460.19
2442.37
2425.04
2408.18
2391.74
2375.69
2360.01
2344.68
2329.67
2314.97
2300.55
2286.4
2272.49
2258.83
2245.4
2232.17
2219.15
2206.32
2193.68
2181.2
2168.89
2156.74
2144.74
2132.88
2121.15
2109.56
2098.09
2086.74
2075.5
2064.37
2053.34
2042.41
2031.58
2020.84
2010.18
1999.61
1989.12
1978.7
1968.35
1958.08
1947.86
1937.72
1927.63
1917.59
1907.61
1897.69
1887.81
1878.01
1868.25
1858.53
1848.85
1839.2
1829.58
1819.98
1810.41
1800.87
1791.34
1781.82
1772.32
1762.84
1753.35
1743.88
1734.41
1724.93
1715.46
1705.98
1696.5
3904.39
3482.09
3297.92
3173.87
3079.82
3004.19
2940.87
2886.32
2838.3
2795.34
2756.39
2720.71
2687.74
2657.04
2628.3
2601.23
2575.63
2551.31
2528.13
2505.97
2484.71
2464.28
2444.59
2425.58
2407.18
2389.35
2372.05
2355.22
2338.84
2322.88
2307.29
2292.07
2277.19
2262.61
2248.33
2234.33
2220.59
2207.1
2193.83
2180.79
2167.95
2155.31
2142.85
2130.57
2118.46
2106.51
2094.72
2083.06
2071.55
2060.17
2048.91
2037.78
2026.76
2015.84
2005.04
1994.33
1983.72
1973.2
1962.77
1952.43
1942.16
1931.97
1921.86
1911.81
1901.83
1891.92
1882.06
1872.26
1862.52
1852.83
1843.19
1833.6
1824.07
1814.59
1805.15
1795.75
1786.37
1777.03
1767.7
1758.41
1749.13
1739.88
1730.63
1721.41
1712.19
1702.98
1693.77
1684.57
1675.37
1666.16
1656.96
1647.75
3792.18
3382.02
3203.14
3082.64
2991.29
2917.82
2856.31
2803.32
2756.68
2714.94
2677.1
2642.44
2610.42
2580.6
2552.68
2526.39
2501.52
2477.89
2455.38
2433.85
2413.2
2393.35
2374.23
2355.76
2337.89
2320.58
2303.77
2287.43
2271.52
2256.02
2240.88
2226.1
2211.65
2197.49
2183.63
2170.03
2156.69
2143.59
2130.71
2118.04
2105.58
2093.3
2081.21
2069.29
2057.53
2045.93
2034.48
2023.17
2011.99
2000.94
1990.01
1979.2
1968.5
1957.9
1947.41
1937.02
1926.72
1916.5
1906.38
1896.33
1886.36
1876.47
1866.65
1856.89
1847.2
1837.57
1828
1818.49
1809.02
1799.61
1790.25
1780.94
1771.68
1762.48
1753.31
1744.17
1735.06
1725.98
1716.93
1707.9
1698.88
1689.89
1680.91
1671.95
1662.99
1654.05
1645.1
1636.16
3683.21
3284.83
3111.09
2994.05
2905.31
2833.94
2774.2
2722.72
2677.41
2636.87
2600.12
2566.45
2535.34
2506.37
2479.25
2453.71
2429.55
2406.6
2384.73
2363.82
2343.77
2324.49
2305.91
2287.97
2270.62
2253.8
2237.47
2221.6
2206.15
2191.09
2176.4
2162.04
2148
2134.26
2120.8
2107.59
2094.64
2081.91
2069.41
2057.11
2045.01
2033.09
2021.35
2009.78
1998.36
1987.1
1975.97
1964.99
1954.14
1943.41
1932.8
1922.3
1911.91
1901.63
1891.44
1881.35
1871.35
1861.43
1851.6
1841.84
1832.16
1822.56
1813.02
1803.55
1794.14
1784.78
1775.49
1766.25
1757.06
1747.92
1738.83
1729.79
1720.8
1711.85
1702.95
1694.07
1685.22
1676.4
1667.6
1658.83
1650.08
1641.34
1632.62
1623.91
1615.21
1606.52
1597.83
1589.14
3577.36
3190.44
3021.69
2908.01
2821.81
2752.49
2694.45
2644.45
2600.44
2561.05
2525.35
2492.65
2462.43
2434.3
2407.95
2383.14
2359.67
2337.38
2316.14
2295.82
2276.34
2257.62
2239.57
2222.15
2205.29
2188.96
2173.1
2157.68
2142.68
2128.05
2113.78
2099.84
2086.2
2072.86
2059.78
2046.96
2034.38
2022.02
2009.88
1997.94
1986.19
1974.61
1963.21
1951.98
1940.89
1929.95
1919.16
1908.49
1897.95
1887.54
1877.23
1867.04
1856.95
1846.97
1837.08
1827.28
1817.57
1807.94
1798.39
1788.92
1779.52
1770.19
1760.93
1751.73
1742.59
1733.51
1724.49
1715.52
1706.59
1697.72
1688.88
1680.1
1671.37
1662.69
1654.03
1645.41
1636.81
1628.24
1619.7
1611.18
1602.67
1594.19
1585.71
1577.25
1568.8
1560.35
1551.91
1543.48
3474.56
3098.76
2934.87
2824.45
2740.72
2673.38
2617.01
2568.44
2525.68
2487.43
2452.75
2420.98
2391.63
2364.3
2338.71
2314.61
2291.81
2270.16
2249.53
2229.79
2210.87
2192.68
2175.15
2158.23
2141.86
2125.99
2110.59
2095.62
2081.04
2066.84
2052.98
2039.44
2026.19
2013.23
2000.53
1988.08
1975.86
1963.86
1952.07
1940.47
1929.06
1917.83
1906.75
1895.84
1885.08
1874.46
1863.97
1853.62
1843.39
1833.27
1823.27
1813.37
1803.58
1793.88
1784.28
1774.76
1765.33
1755.98
1746.71
1737.52
1728.39
1719.33
1710.34
1701.4
1692.53
1683.71
1674.95
1666.24
1657.57
1648.95
1640.37
1631.85
1623.37
1614.93
1606.52
1598.14
1589.79
1581.47
1573.17
1564.89
1556.63
1548.38
1540.15
1531.93
1523.72
3374.72
3009.72
2850.54
2743.29
2661.97
2596.56
2541.8
2494.62
2453.09
2415.93
2382.24
2351.38
2322.87
2296.33
2271.47
2248.06
2225.92
2204.89
2184.84
2165.67
2147.29
2129.63
2112.6
2096.16
2080.26
2064.85
2049.89
2035.35
2021.19
2007.39
1993.93
1980.78
1967.92
1955.33
1943
1930.9
1919.04
1907.38
1895.93
1884.67
1873.59
1862.68
1851.92
1841.33
1830.88
1820.56
1810.38
1800.33
1790.39
1780.57
1770.86
1761.25
1751.74
1742.32
1732.99
1723.76
1714.6
1705.52
1696.52
1687.59
1678.73
1669.93
1661.2
1652.52
1643.91
1635.34
1626.83
1618.37
1609.96
1601.58
1593.26
1584.97
1576.74
1568.54
1560.37
1552.23
1544.12
1536.04
1527.97
1519.93
1511.91
1503.89
1495.9
1487.91
1479.93
3277.75
2923.24
2768.63
2664.47
2585.48
2521.94
2468.75
2422.92
2382.58
2346.49
2313.77
2283.79
2256.1
2230.31
2206.17
2183.43
2161.92
2141.49
2122.02
2103.41
2085.55
2068.39
2051.85
2035.89
2020.44
2005.47
1990.94
1976.82
1963.07
1949.67
1936.59
1923.82
1911.33
1899.1
1887.12
1875.38
1863.85
1852.54
1841.41
1830.48
1819.71
1809.12
1798.68
1788.39
1778.24
1768.22
1758.33
1748.57
1738.92
1729.38
1719.95
1710.62
1701.38
1692.24
1683.19
1674.21
1665.32
1656.51
1647.77
1639.09
1630.49
1621.95
1613.47
1605.04
1596.68
1588.36
1580.1
1571.88
1563.71
1555.58
1547.49
1539.45
1531.45
1523.48
1515.55
1507.64
1499.76
1491.91
1484.07
1476.26
1468.46
1460.68
1452.91
1445.15
1437.4
3183.57
2839.25
2689.09
2587.91
2511.19
2449.48
2397.81
2353.29
2314.11
2279.05
2247.27
2218.15
2191.25
2166.2
2142.75
2120.66
2099.77
2079.93
2061.02
2042.93
2025.59
2008.92
1992.86
1977.35
1962.35
1947.81
1933.7
1919.98
1906.62
1893.61
1880.91
1868.5
1856.37
1844.49
1832.86
1821.45
1810.26
1799.27
1788.47
1777.85
1767.39
1757.1
1746.96
1736.97
1727.11
1717.39
1707.79
1698.3
1688.93
1679.67
1670.51
1661.45
1652.48
1643.6
1634.81
1626.1
1617.47
1608.91
1600.42
1592
1583.64
1575.34
1567.11
1558.93
1550.8
1542.73
1534.7
1526.72
1518.79
1510.89
1503.04
1495.23
1487.46
1479.72
1472.01
1464.33
1456.68
1449.05
1441.44
1433.85
1426.27
1418.71
1411.16
1403.62
1396.1
3092.09
2757.67
2611.83
2513.56
2439.04
2379.1
2328.91
2285.67
2247.61
2213.55
2182.68
2154.4
2128.27
2103.94
2081.16
2059.71
2039.42
2020.14
2001.77
1984.21
1967.37
1951.17
1935.57
1920.51
1905.94
1891.81
1878.1
1864.78
1851.81
1839.17
1826.83
1814.78
1803
1791.46
1780.17
1769.09
1758.22
1747.54
1737.05
1726.73
1716.58
1706.59
1696.74
1687.04
1677.46
1668.02
1658.69
1649.49
1640.39
1631.39
1622.5
1613.7
1604.99
1596.37
1587.83
1579.37
1570.98
1562.67
1554.43
1546.25
1538.14
1530.08
1522.08
1514.14
1506.25
1498.41
1490.61
1482.86
1475.16
1467.49
1459.86
1452.27
1444.73
1437.21
1429.72
1422.26
1414.83
1407.41
1400.02
1392.65
1385.29
1377.94
1370.61
1363.29
1355.98
3003.25
2678.44
2536.79
2441.35
2368.96
2310.74
2261.99
2219.99
2183.02
2149.94
2119.96
2092.49
2067.1
2043.48
2021.35
2000.51
1980.8
1962.08
1944.24
1927.18
1910.82
1895.09
1879.93
1865.3
1851.15
1837.43
1824.12
1811.17
1798.57
1786.3
1774.31
1762.61
1751.17
1739.96
1728.99
1718.23
1707.67
1697.3
1687.12
1677.1
1667.24
1657.53
1647.97
1638.54
1629.24
1620.07
1611.02
1602.07
1593.24
1584.5
1575.86
1567.32
1558.86
1550.49
1542.2
1533.98
1525.84
1517.77
1509.76
1501.82
1493.94
1486.12
1478.35
1470.64
1462.97
1455.36
1447.79
1440.26
1432.78
1425.33
1417.93
1410.56
1403.22
1395.92
1388.65
1381.4
1374.18
1366.98
1359.79
1352.63
1345.48
1338.35
1331.23
1324.11
1317.01
2916.96
2601.48
2463.9
2371.21
2300.9
2244.35
2197
2156.21
2120.3
2088.16
2059.04
2032.35
2007.7
1984.75
1963.26
1943.02
1923.87
1905.69
1888.36
1871.79
1855.9
1840.62
1825.9
1811.69
1797.94
1784.62
1771.68
1759.11
1746.88
1734.95
1723.31
1711.95
1700.83
1689.95
1679.29
1668.84
1658.59
1648.52
1638.62
1628.89
1619.31
1609.89
1600.6
1591.44
1582.42
1573.51
1564.71
1556.03
1547.45
1538.96
1530.57
1522.27
1514.06
1505.93
1497.88
1489.9
1481.99
1474.15
1466.38
1458.67
1451.01
1443.42
1435.88
1428.38
1420.94
1413.55
1406.2
1398.89
1391.62
1384.39
1377.19
1370.03
1362.91
1355.82
1348.75
1341.71
1334.69
1327.7
1320.72
1313.76
1306.82
1299.89
1292.97
1286.06
1279.16
2833.14
2526.74
2393.12
2303.08
2234.8
2179.87
2133.89
2094.26
2059.38
2028.17
1999.88
1973.96
1950.01
1927.71
1906.84
1887.18
1868.58
1850.92
1834.09
1817.99
1802.56
1787.72
1773.42
1759.62
1746.27
1733.32
1720.76
1708.55
1696.67
1685.08
1673.78
1662.74
1651.94
1641.38
1631.02
1620.87
1610.91
1601.13
1591.52
1582.07
1572.77
1563.61
1554.59
1545.7
1536.93
1528.28
1519.74
1511.31
1502.97
1494.73
1486.59
1478.53
1470.55
1462.65
1454.83
1447.08
1439.41
1431.79
1424.24
1416.75
1409.32
1401.95
1394.62
1387.35
1380.12
1372.94
1365.8
1358.7
1351.64
1344.62
1337.63
1330.68
1323.75
1316.86
1310
1303.16
1296.34
1289.55
1282.77
1276.01
1269.27
1262.53
1255.81
1249.1
1242.4
2751.74
2454.15
2324.36
2236.92
2170.6
2117.25
2072.59
2034.1
2000.22
1969.91
1942.43
1917.25
1893.99
1872.33
1852.05
1832.95
1814.89
1797.73
1781.38
1765.75
1750.76
1736.34
1722.46
1709.05
1696.08
1683.51
1671.31
1659.45
1647.91
1636.65
1625.68
1614.95
1604.47
1594.2
1584.15
1574.29
1564.62
1555.12
1545.78
1536.6
1527.57
1518.68
1509.92
1501.28
1492.76
1484.36
1476.07
1467.87
1459.78
1451.78
1443.87
1436.04
1428.29
1420.62
1413.03
1405.5
1398.05
1390.65
1383.32
1376.05
1368.83
1361.67
1354.55
1347.49
1340.47
1333.49
1326.56
1319.67
1312.81
1305.99
1299.21
1292.45
1285.73
1279.03
1272.36
1265.72
1259.09
1252.49
1245.91
1239.34
1232.79
1226.25
1219.72
1213.21
1206.7
2672.68
2383.64
2257.58
2172.65
2108.24
2056.43
2013.05
1975.67
1942.76
1913.32
1886.62
1862.17
1839.57
1818.54
1798.84
1780.29
1762.74
1746.08
1730.19
1715.01
1700.44
1686.45
1672.96
1659.94
1647.34
1635.13
1623.28
1611.76
1600.55
1589.62
1578.96
1568.54
1558.36
1548.39
1538.62
1529.05
1519.65
1510.42
1501.36
1492.44
1483.67
1475.03
1466.52
1458.14
1449.87
1441.71
1433.65
1425.69
1417.83
1410.06
1402.38
1394.77
1387.25
1379.8
1372.43
1365.12
1357.87
1350.69
1343.57
1336.51
1329.5
1322.54
1315.64
1308.77
1301.96
1295.18
1288.45
1281.76
1275.1
1268.48
1261.89
1255.33
1248.8
1242.29
1235.81
1229.36
1222.93
1216.51
1210.12
1203.74
1197.38
1191.03
1184.69
1178.36
1172.04
2595.89
2315.15
2192.73
2110.23
2047.67
1997.35
1955.22
1918.91
1886.95
1858.35
1832.42
1808.67
1786.73
1766.3
1747.16
1729.15
1712.1
1695.92
1680.49
1665.73
1651.59
1637.99
1624.89
1612.24
1600
1588.14
1576.63
1565.44
1554.55
1543.94
1533.58
1523.47
1513.57
1503.89
1494.41
1485.11
1475.98
1467.02
1458.21
1449.55
1441.03
1432.65
1424.38
1416.24
1408.2
1400.28
1392.45
1384.72
1377.09
1369.54
1362.08
1354.7
1347.39
1340.16
1332.99
1325.89
1318.86
1311.89
1304.97
1298.11
1291.3
1284.55
1277.84
1271.17
1264.55
1257.98
1251.44
1244.94
1238.47
1232.04
1225.64
1219.27
1212.92
1206.61
1200.32
1194.05
1187.8
1181.57
1175.36
1169.16
1162.98
1156.82
1150.66
1144.51
1138.37
2521.3
2248.64
2129.73
2049.61
1988.85
1939.97
1899.05
1863.78
1832.74
1804.96
1779.78
1756.71
1735.4
1715.55
1696.97
1679.47
1662.92
1647.19
1632.21
1617.88
1604.14
1590.93
1578.2
1565.92
1554.03
1542.51
1531.33
1520.46
1509.88
1499.57
1489.52
1479.69
1470.08
1460.68
1451.46
1442.43
1433.57
1424.86
1416.31
1407.9
1399.63
1391.48
1383.45
1375.54
1367.74
1360.04
1352.44
1344.94
1337.52
1330.19
1322.94
1315.77
1308.67
1301.65
1294.69
1287.8
1280.97
1274.19
1267.48
1260.82
1254.2
1247.64
1241.13
1234.65
1228.23
1221.84
1215.49
1209.17
1202.89
1196.65
1190.43
1184.24
1178.08
1171.95
1165.84
1159.75
1153.68
1147.63
1141.6
1135.58
1129.58
1123.59
1117.61
1111.64
1105.67
2448.86
2184.03
2068.54
1990.73
1931.71
1884.24
1844.49
1810.24
1780.09
1753.11
1728.65
1706.24
1685.54
1666.27
1648.22
1631.22
1615.14
1599.87
1585.32
1571.4
1558.05
1545.23
1532.86
1520.93
1509.38
1498.19
1487.33
1476.77
1466.5
1456.49
1446.72
1437.17
1427.84
1418.71
1409.76
1400.98
1392.38
1383.92
1375.62
1367.45
1359.41
1351.5
1343.7
1336.02
1328.44
1320.96
1313.58
1306.29
1299.09
1291.97
1284.93
1277.97
1271.07
1264.25
1257.49
1250.8
1244.16
1237.59
1231.06
1224.59
1218.17
1211.8
1205.47
1199.18
1192.94
1186.74
1180.57
1174.44
1168.34
1162.27
1156.23
1150.22
1144.24
1138.28
1132.35
1126.43
1120.54
1114.67
1108.81
1102.96
1097.13
1091.31
1085.51
1079.71
1073.92
2378.5
2121.29
2009.11
1933.54
1876.22
1830.11
1791.5
1758.23
1728.95
1702.74
1678.99
1657.23
1637.12
1618.4
1600.86
1584.36
1568.74
1553.91
1539.77
1526.25
1513.29
1500.83
1488.83
1477.23
1466.02
1455.15
1444.6
1434.35
1424.36
1414.64
1405.15
1395.88
1386.81
1377.94
1369.25
1360.73
1352.37
1344.16
1336.09
1328.16
1320.35
1312.66
1305.09
1297.63
1290.27
1283.01
1275.84
1268.76
1261.76
1254.85
1248.01
1241.25
1234.56
1227.93
1221.36
1214.86
1208.42
1202.03
1195.7
1189.41
1183.17
1176.98
1170.84
1164.73
1158.67
1152.64
1146.65
1140.7
1134.77
1128.88
1123.02
1117.18
1111.37
1105.58
1099.82
1094.08
1088.35
1082.65
1076.96
1071.28
1065.62
1059.97
1054.33
1048.69
1043.07
2310.16
2060.34
1951.39
1877.99
1822.31
1777.53
1740.03
1707.72
1679.28
1653.82
1630.75
1609.61
1590.08
1571.9
1554.87
1538.84
1523.67
1509.26
1495.53
1482.4
1469.81
1457.71
1446.05
1434.79
1423.9
1413.34
1403.1
1393.14
1383.44
1373.99
1364.77
1355.77
1346.97
1338.35
1329.91
1321.63
1313.51
1305.54
1297.7
1290
1282.41
1274.95
1267.6
1260.35
1253.2
1246.15
1239.18
1232.31
1225.51
1218.8
1212.16
1205.59
1199.09
1192.65
1186.28
1179.96
1173.7
1167.5
1161.34
1155.24
1149.18
1143.17
1137.2
1131.27
1125.38
1119.53
1113.71
1107.93
1102.18
1096.45
1090.76
1085.09
1079.45
1073.83
1068.23
1062.65
1057.09
1051.55
1046.02
1040.51
1035.01
1029.52
1024.04
1018.57
1013.11
2243.79
2001.15
1895.33
1824.04
1769.96
1726.47
1690.04
1658.66
1631.03
1606.31
1583.9
1563.37
1544.4
1526.74
1510.2
1494.62
1479.89
1465.9
1452.57
1439.81
1427.58
1415.83
1404.5
1393.57
1382.99
1372.74
1362.78
1353.11
1343.69
1334.52
1325.56
1316.82
1308.27
1299.9
1291.7
1283.66
1275.77
1268.03
1260.42
1252.93
1245.57
1238.32
1231.18
1224.14
1217.19
1210.34
1203.58
1196.9
1190.3
1183.78
1177.33
1170.95
1164.64
1158.39
1152.2
1146.06
1139.98
1133.96
1127.98
1122.05
1116.17
1110.33
1104.53
1098.78
1093.06
1087.37
1081.72
1076.1
1070.52
1064.96
1059.43
1053.92
1048.44
1042.98
1037.54
1032.13
1026.73
1021.34
1015.97
1010.62
1005.28
999.947
994.625
989.312
984.006
2179.32
1943.65
1840.88
1771.63
1719.11
1676.87
1641.49
1611.01
1584.17
1560.16
1538.39
1518.45
1500.03
1482.87
1466.81
1451.68
1437.37
1423.78
1410.83
1398.44
1386.57
1375.15
1364.15
1353.53
1343.25
1333.29
1323.63
1314.23
1305.09
1296.17
1287.48
1278.99
1270.68
1262.55
1254.59
1246.78
1239.12
1231.6
1224.21
1216.94
1209.78
1202.74
1195.81
1188.97
1182.22
1175.57
1169
1162.52
1156.11
1149.77
1143.51
1137.31
1131.18
1125.11
1119.09
1113.14
1107.23
1101.38
1095.58
1089.82
1084.11
1078.43
1072.8
1067.21
1061.66
1056.14
1050.65
1045.19
1039.76
1034.37
1028.99
1023.65
1018.32
1013.02
1007.74
1002.48
997.233
992.004
986.791
981.59
976.402
971.224
966.054
960.894
2116.7
1887.81
1787.99
1720.73
1669.72
1628.69
1594.33
1564.72
1538.66
1515.34
1494.2
1474.83
1456.93
1440.27
1424.67
1409.97
1396.08
1382.88
1370.29
1358.26
1346.73
1335.64
1324.95
1314.64
1304.66
1294.98
1285.6
1276.47
1267.59
1258.93
1250.49
1242.24
1234.17
1226.28
1218.55
1210.96
1203.52
1196.22
1189.04
1181.98
1175.03
1168.19
1161.45
1154.81
1148.26
1141.8
1135.42
1129.12
1122.89
1116.74
1110.66
1104.64
1098.68
1092.79
1086.95
1081.16
1075.43
1069.74
1064.1
1058.51
1052.96
1047.46
1041.99
1036.55
1031.16
1025.8
1020.47
1015.17
1009.9
1004.65
999.435
994.242
989.071
983.922
978.792
973.681
968.588
963.509
958.445
953.394
948.355
943.325
938.304
933.292
2055.89
1833.57
1736.62
1671.3
1621.75
1581.9
1548.53
1519.77
1494.45
1471.8
1451.27
1432.45
1415.07
1398.89
1383.73
1369.46
1355.96
1343.14
1330.92
1319.24
1308.03
1297.26
1286.88
1276.86
1267.17
1257.77
1248.66
1239.8
1231.17
1222.76
1214.56
1206.55
1198.72
1191.05
1183.54
1176.17
1168.95
1161.85
1154.88
1148.02
1141.27
1134.63
1128.08
1121.63
1115.27
1109
1102.8
1096.68
1090.64
1084.66
1078.75
1072.91
1067.12
1061.39
1055.72
1050.1
1044.53
1039.01
1033.54
1028.1
1022.71
1017.37
1012.05
1006.78
1001.54
996.33
991.153
986.006
980.886
975.794
970.726
965.682
960.66
955.658
950.676
945.712
940.765
935.832
930.914
926.008
921.113
916.228
911.351
906.482
1996.82
1780.89
1686.73
1623.28
1575.16
1536.45
1504.04
1476.11
1451.52
1429.52
1409.57
1391.3
1374.41
1358.7
1343.97
1330.11
1317
1304.55
1292.68
1281.33
1270.45
1259.99
1249.91
1240.17
1230.76
1221.64
1212.78
1204.18
1195.8
1187.64
1179.67
1171.89
1164.28
1156.83
1149.54
1142.38
1135.36
1128.47
1121.7
1115.04
1108.48
1102.03
1095.68
1089.41
1083.23
1077.14
1071.12
1065.18
1059.31
1053.5
1047.76
1042.08
1036.46
1030.9
1025.39
1019.94
1014.53
1009.16
1003.85
998.571
993.336
988.14
982.982
977.858
972.768
967.709
962.681
957.682
952.71
947.763
942.841
937.942
933.064
928.207
923.368
918.546
913.741
908.95
904.173
899.408
894.653
889.908
885.171
880.442
1939.44
1729.72
1638.27
1576.65
1529.91
1492.31
1460.83
1433.7
1409.81
1388.44
1369.07
1351.32
1334.92
1319.66
1305.36
1291.9
1279.16
1267.07
1255.54
1244.51
1233.94
1223.78
1213.99
1204.54
1195.4
1186.54
1177.94
1169.58
1161.45
1153.52
1145.78
1138.22
1130.83
1123.6
1116.51
1109.56
1102.75
1096.05
1089.47
1083
1076.64
1070.37
1064.2
1058.12
1052.11
1046.19
1040.35
1034.58
1028.87
1023.24
1017.66
1012.15
1006.69
1001.29
995.937
990.636
985.382
980.174
975.009
969.886
964.802
959.755
954.744
949.768
944.824
939.911
935.028
930.172
925.343
920.538
915.758
910.999
906.262
901.543
896.844
892.161
887.493
882.84
878.2
873.571
868.953
864.344
859.743
855.15
1883.72
1680.03
1591.2
1531.35
1485.95
1449.44
1418.86
1392.5
1369.31
1348.55
1329.74
1312.5
1296.57
1281.74
1267.85
1254.78
1242.41
1230.66
1219.46
1208.75
1198.49
1188.62
1179.11
1169.94
1161.06
1152.45
1144.1
1135.98
1128.08
1120.38
1112.86
1105.52
1098.34
1091.32
1084.44
1077.69
1071.07
1064.56
1058.17
1051.89
1045.71
1039.62
1033.63
1027.72
1021.89
1016.14
1010.46
1004.86
999.318
993.843
988.428
983.072
977.772
972.524
967.327
962.178
957.076
952.017
947.001
942.024
937.086
932.185
927.318
922.485
917.683
912.911
908.168
903.452
898.761
894.095
889.452
884.83
880.229
875.646
871.081
866.532
861.999
857.479
852.972
848.477
843.991
839.514
835.045
830.584
1829.6
1631.76
1545.48
1487.35
1443.26
1407.79
1378.09
1352.5
1329.97
1309.81
1291.53
1274.79
1259.31
1244.91
1231.42
1218.72
1206.71
1195.3
1184.42
1174.02
1164.06
1154.47
1145.24
1136.32
1127.7
1119.34
1111.23
1103.34
1095.67
1088.19
1080.89
1073.76
1066.79
1059.97
1053.28
1046.73
1040.3
1033.98
1027.78
1021.67
1015.67
1009.76
1003.93
998.195
992.534
986.949
981.435
975.99
970.61
965.293
960.034
954.832
949.684
944.587
939.539
934.538
929.583
924.669
919.797
914.964
910.168
905.407
900.68
895.986
891.322
886.687
882.08
877.5
872.944
868.412
863.902
859.412
854.943
850.492
846.058
841.64
837.237
832.847
828.469
824.102
819.746
815.397
811.057
806.724
1777.03
1584.88
1501.08
1444.62
1401.8
1367.35
1338.5
1313.64
1291.76
1272.17
1254.42
1238.16
1223.13
1209.14
1196.04
1183.7
1172.04
1160.95
1150.39
1140.3
1130.61
1121.31
1112.34
1103.68
1095.3
1087.18
1079.31
1071.65
1064.19
1056.93
1049.84
1042.91
1036.14
1029.51
1023.02
1016.66