/*--------------------------------*- C++ -*----------------------------------*\
  =========                 |
  \\      /  F ield         | OpenFOAM: The Open Source CFD Toolbox
   \\    /   O peration     | Website:  https://openfoam.org
    \\  /    A nd           | Version:  10
     \\/     M anipulation  |
\*---------------------------------------------------------------------------*/
FoamFile
{
    format      ascii;
    class       volScalarField;
    location    "20000";
    object      p;
}
// * * * * * * * * * * * * * * * * * * * * * * * * * * * * * * * * * * * * * //

dimensions      [0 2 -2 0 0 0 0];

internalField   nonuniform List<scalar> 
17808
(
16.0731
16.0945
16.1052
16.1072
16.1067
16.1032
16.0977
16.0904
16.0817
16.0718
16.0609
16.049
16.0363
16.0227
16.0084
15.9934
15.9777
15.9612
15.9442
15.9265
15.9081
15.8891
15.8694
15.8491
15.8282
15.8066
15.7844
15.7616
15.7381
15.7139
15.689
15.6635
15.6373
15.6104
15.5828
15.5545
15.5255
15.4958
15.4653
15.4341
15.4021
15.3693
15.3358
15.3015
15.2663
15.2304
15.1936
15.156
15.1175
15.0781
15.0379
14.9967
14.9547
14.9117
14.8677
14.8228
14.7769
14.73
14.6821
14.6332
14.5833
14.5323
14.4802
14.427
14.3726
14.3172
14.2606
14.2028
14.1439
14.0837
14.0223
13.9597
13.8958
13.8306
13.7641
13.6963
13.6271
13.5565
13.4846
13.4112
13.3364
13.2602
13.1825
13.1032
13.0224
12.9401
12.8562
12.7707
12.6836
12.5949
12.5045
12.4124
16.1372
16.1373
16.1292
16.1223
16.116
16.1088
16.1007
16.0919
16.0821
16.0715
16.0601
16.0479
16.035
16.0213
16.007
15.9919
15.9762
15.9598
15.9427
15.925
15.9067
15.8877
15.8681
15.8478
15.8269
15.8054
15.7832
15.7604
15.7369
15.7128
15.688
15.6625
15.6363
15.6095
15.5819
15.5537
15.5247
15.495
15.4645
15.4333
15.4014
15.3686
15.3351
15.3008
15.2657
15.2298
15.193
15.1554
15.1169
15.0776
15.0374
14.9962
14.9542
14.9112
14.8673
14.8224
14.7765
14.7296
14.6818
14.6329
14.5829
14.5319
14.4798
14.4266
14.3723
14.3169
14.2603
14.2025
14.1436
14.0834
14.0221
13.9594
13.8955
13.8303
13.7638
13.696
13.6268
13.5563
13.4843
13.411
13.3362
13.2599
13.1822
13.103
13.0222
12.9399
12.856
12.7705
12.6834
12.5946
12.5042
12.4121
16.1657
16.1601
16.1495
16.1405
16.131
16.1208
16.1102
16.0992
16.0877
16.0757
16.0632
16.0501
16.0365
16.0223
16.0075
15.9921
15.9762
15.9596
15.9424
15.9246
15.9061
15.8871
15.8674
15.8472
15.8262
15.8047
15.7825
15.7597
15.7362
15.7121
15.6873
15.6618
15.6357
15.6088
15.5813
15.553
15.5241
15.4944
15.4639
15.4328
15.4008
15.3681
15.3346
15.3003
15.2652
15.2293
15.1925
15.1549
15.1165
15.0772
15.0369
14.9958
14.9538
14.9108
14.8669
14.822
14.7761
14.7293
14.6814
14.6325
14.5826
14.5316
14.4795
14.4263
14.372
14.3166
14.26
14.2022
14.1433
14.0831
14.0218
13.9591
13.8952
13.8301
13.7636
13.6957
13.6266
13.556
13.4841
13.4107
13.3359
13.2597
13.1819
13.1027
13.0219
12.9396
12.8557
12.7702
12.6831
12.5944
12.504
12.4118
16.166
16.1602
16.1519
16.1441
16.1349
16.1248
16.1142
16.1029
16.0911
16.0787
16.0658
16.0524
16.0383
16.0238
16.0087
15.993
15.9768
15.96
15.9426
15.9247
15.9061
15.887
15.8673
15.8469
15.8259
15.8043
15.7821
15.7593
15.7358
15.7116
15.6868
15.6613
15.6352
15.6083
15.5808
15.5525
15.5236
15.4939
15.4634
15.4323
15.4003
15.3676
15.3341
15.2999
15.2648
15.2289
15.1921
15.1545
15.1161
15.0768
15.0365
14.9954
14.9534
14.9104
14.8665
14.8216
14.7758
14.7289
14.6811
14.6322
14.5822
14.5312
14.4792
14.426
14.3717
14.3163
14.2597
14.2019
14.143
14.0829
14.0215
13.9589
13.895
13.8298
13.7633
13.6955
13.6263
13.5557
13.4838
13.4104
13.3357
13.2594
13.1817
13.1024
13.0217
12.9393
12.8554
12.77
12.6829
12.5941
12.5037
12.4116
16.1669
16.1606
16.153
16.1451
16.1359
16.126
16.1155
16.1043
16.0925
16.0801
16.0671
16.0536
16.0395
16.0248
16.0095
15.9937
15.9774
15.9605
15.943
15.9249
15.9063
15.887
15.8672
15.8468
15.8257
15.8041
15.7818
15.7589
15.7354
15.7112
15.6864
15.6609
15.6347
15.6079
15.5803
15.5521
15.5231
15.4934
15.463
15.4318
15.3999
15.3672
15.3337
15.2994
15.2643
15.2284
15.1917
15.1541
15.1157
15.0764
15.0362
14.9951
14.953
14.9101
14.8662
14.8213
14.7754
14.7286
14.6807
14.6319
14.5819
14.5309
14.4789
14.4257
14.3714
14.316
14.2594
14.2017
14.1427
14.0826
14.0212
13.9586
13.8947
13.8295
13.763
13.6952
13.626
13.5555
13.4835
13.4102
13.3354
13.2591
13.1814
13.1022
13.0214
12.9391
12.8552
12.7697
12.6826
12.5938
12.5034
12.4113
16.1705
16.1638
16.1562
16.1479
16.1385
16.1284
16.1177
16.1063
16.0943
16.0817
16.0686
16.0549
16.0406
16.0258
16.0104
15.9945
15.978
15.961
15.9434
15.9252
15.9065
15.8872
15.8673
15.8468
15.8257
15.804
15.7817
15.7588
15.7352
15.711
15.6861
15.6606
15.6344
15.6075
15.58
15.5517
15.5227
15.493
15.4626
15.4314
15.3995
15.3668
15.3333
15.299
15.264
15.2281
15.1913
15.1537
15.1153
15.076
15.0358
14.9947
14.9527
14.9097
14.8658
14.821
14.7751
14.7283
14.6804
14.6316
14.5816
14.5306
14.4786
14.4254
14.3711
14.3157
14.2591
14.2014
14.1425
14.0823
14.021
13.9583
13.8944
13.8293
13.7628
13.695
13.6258
13.5552
13.4833
13.41
13.3352
13.2589
13.1812
13.1019
13.0212
12.9388
12.855
12.7695
12.6824
12.5936
12.5032
12.4111
16.1732
16.1662
16.1588
16.1503
16.1408
16.1307
16.1198
16.1082
16.0961
16.0834
16.0701
16.0562
16.0418
16.0269
16.0114
15.9953
15.9788
15.9616
15.9439
15.9257
15.9069
15.8875
15.8675
15.8469
15.8258
15.804
15.7817
15.7587
15.7351
15.7108
15.6859
15.6604
15.6342
15.6073
15.5797
15.5514
15.5224
15.4927
15.4623
15.4311
15.3992
15.3665
15.333
15.2987
15.2636
15.2277
15.191
15.1534
15.115
15.0757
15.0355
14.9944
14.9524
14.9094
14.8655
14.8207
14.7748
14.728
14.6801
14.6313
14.5813
14.5304
14.4783
14.4251
14.3709
14.3154
14.2589
14.2011
14.1422
14.0821
14.0207
13.9581
13.8942
13.829
13.7625
13.6947
13.6256
13.555
13.4831
13.4097
13.3349
13.2587
13.1809
13.1017
13.0209
12.9386
12.8547
12.7692
12.6821
12.5934
12.503
12.4108
16.1747
16.1675
16.1603
16.1517
16.1422
16.132
16.1211
16.1095
16.0973
16.0845
16.0712
16.0573
16.0428
16.0278
16.0122
15.9961
15.9794
15.9622
15.9445
15.9261
15.9073
15.8878
15.8678
15.8471
15.8259
15.8041
15.7817
15.7587
15.7351
15.7108
15.6858
15.6603
15.634
15.6071
15.5795
15.5512
15.5222
15.4925
15.462
15.4308
15.3989
15.3662
15.3327
15.2984
15.2633
15.2274
15.1907
15.1531
15.1147
15.0754
15.0352
14.9941
14.9521
14.9091
14.8652
14.8204
14.7745
14.7277
14.6799
14.631
14.5811
14.5301
14.478
14.4249
14.3706
14.3152
14.2586
14.2009
14.142
14.0818
14.0205
13.9578
13.894
13.8288
13.7623
13.6945
13.6253
13.5548
13.4828
13.4095
13.3347
13.2585
13.1807
13.1015
13.0207
12.9384
12.8545
12.769
12.6819
12.5932
12.5027
12.4106
16.1758
16.1685
16.1614
16.1528
16.1433
16.133
16.1221
16.1105
16.0983
16.0855
16.0721
16.0581
16.0436
16.0285
16.0129
15.9967
15.98
15.9628
15.9449
15.9266
15.9076
15.8881
15.868
15.8474
15.8261
15.8043
15.7818
15.7588
15.7351
15.7108
15.6858
15.6602
15.6339
15.607
15.5794
15.551
15.522
15.4923
15.4618
15.4306
15.3986
15.3659
15.3324
15.2981
15.2631
15.2271
15.1904
15.1528
15.1144
15.0751
15.0349
14.9938
14.9518
14.9088
14.8649
14.8201
14.7743
14.7274
14.6796
14.6307
14.5808
14.5298
14.4778
14.4246
14.3703
14.3149
14.2584
14.2006
14.1417
14.0816
14.0202
13.9576
13.8937
13.8286
13.7621
13.6943
13.6251
13.5546
13.4826
13.4093
13.3345
13.2582
13.1805
13.1013
13.0205
12.9382
12.8543
12.7688
12.6817
12.593
12.5025
12.4104
16.1769
16.1694
16.1624
16.1537
16.1442
16.134
16.123
16.1114
16.0991
16.0863
16.0728
16.0588
16.0443
16.0292
16.0135
15.9973
15.9806
15.9633
15.9454
15.927
15.908
15.8885
15.8683
15.8476
15.8263
15.8045
15.782
15.7589
15.7351
15.7108
15.6858
15.6602
15.6339
15.6069
15.5793
15.5509
15.5219
15.4921
15.4616
15.4304
15.3985
15.3657
15.3322
15.2979
15.2628
15.2269
15.1902
15.1526
15.1141
15.0748
15.0346
14.9935
14.9515
14.9086
14.8647
14.8198
14.774
14.7272
14.6793
14.6305
14.5806
14.5296
14.4775
14.4244
14.3701
14.3147
14.2581
14.2004
14.1415
14.0814
14.02
13.9574
13.8935
13.8284
13.7619
13.6941
13.6249
13.5544
13.4824
13.4091
13.3343
13.258
13.1803
13.1011
13.0203
12.938
12.8541
12.7686
12.6815
12.5928
12.5023
12.4102
16.1777
16.1702
16.1632
16.1545
16.145
16.1347
16.1237
16.1121
16.0998
16.0869
16.0735
16.0595
16.0449
16.0298
16.0141
15.9978
15.981
15.9637
15.9458
15.9274
15.9083
15.8888
15.8686
15.8479
15.8266
15.8046
15.7821
15.759
15.7352
15.7109
15.6858
15.6602
15.6339
15.6069
15.5792
15.5508
15.5218
15.492
15.4615
15.4303
15.3983
15.3656
15.332
15.2977
15.2626
15.2267
15.19
15.1524
15.1139
15.0746
15.0344
14.9933
14.9513
14.9084
14.8645
14.8196
14.7738
14.7269
14.6791
14.6302
14.5803
14.5294
14.4773
14.4242
14.3699
14.3145
14.2579
14.2002
14.1413
14.0812
14.0198
13.9572
13.8933
13.8282
13.7617
13.6939
13.6247
13.5542
13.4822
13.4089
13.3341
13.2579
13.1801
13.1009
13.0201
12.9378
12.8539
12.7684
12.6813
12.5926
12.5021
12.41
16.1784
16.1708
16.1639
16.1551
16.1456
16.1353
16.1243
16.1127
16.1004
16.0875
16.074
16.06
16.0454
16.0302
16.0145
15.9983
15.9815
15.9641
15.9462
15.9277
15.9087
15.8891
15.8689
15.8481
15.8268
15.8048
15.7823
15.7591
15.7353
15.7109
15.6859
15.6602
15.6339
15.6069
15.5792
15.5508
15.5217
15.4919
15.4614
15.4302
15.3982
15.3654
15.3319
15.2976
15.2625
15.2265
15.1898
15.1522
15.1137
15.0744
15.0342
14.9931
14.9511
14.9081
14.8643
14.8194
14.7736
14.7267
14.6789
14.63
14.5801
14.5292
14.4771
14.4239
14.3697
14.3143
14.2577
14.2
14.1411
14.081
14.0196
13.957
13.8931
13.828
13.7615
13.6937
13.6245
13.554
13.4821
13.4087
13.3339
13.2577
13.18
13.1007
13.02
12.9376
12.8538
12.7683
12.6812
12.5924
12.502
12.4099
16.1789
16.1713
16.1644
16.1556
16.1461
16.1358
16.1248
16.1132
16.1009
16.088
16.0745
16.0604
16.0458
16.0307
16.0149
15.9987
15.9818
15.9644
15.9465
15.928
15.9089
15.8893
15.8691
15.8483
15.827
15.805
15.7824
15.7593
15.7355
15.711
15.686
15.6603
15.6339
15.6069
15.5792
15.5508
15.5217
15.4919
15.4614
15.4301
15.3981
15.3653
15.3318
15.2975
15.2623
15.2264
15.1896
15.152
15.1136
15.0743
15.034
14.9929
14.9509
14.908
14.8641
14.8192
14.7734
14.7265
14.6787
14.6298
14.5799
14.529
14.4769
14.4238
14.3695
14.3141
14.2575
14.1998
14.1409
14.0808
14.0194
13.9568
13.8929
13.8278
13.7613
13.6935
13.6243
13.5538
13.4819
13.4085
13.3338
13.2575
13.1798
13.1006
13.0198
12.9375
12.8536
12.7681
12.681
12.5922
12.5018
12.4097
16.1794
16.1718
16.1648
16.1561
16.1466
16.1363
16.1253
16.1136
16.1013
16.0884
16.0749
16.0608
16.0462
16.031
16.0153
15.999
15.9821
15.9648
15.9468
15.9283
15.9092
15.8896
15.8693
15.8485
15.8271
15.8052
15.7826
15.7594
15.7356
15.7111
15.6861
15.6603
15.634
15.6069
15.5792
15.5508
15.5217
15.4919
15.4613
15.43
15.398
15.3653
15.3317
15.2974
15.2622
15.2263
15.1895
15.1519
15.1134
15.0741
15.0339
14.9928
14.9508
14.9078
14.8639
14.819
14.7732
14.7264
14.6785
14.6297
14.5798
14.5288
14.4767
14.4236
14.3693
14.3139
14.2574
14.1996
14.1407
14.0806
14.0193
13.9567
13.8928
13.8276
13.7611
13.6933
13.6242
13.5537
13.4817
13.4084
13.3336
13.2574
13.1796
13.1004
13.0196
12.9373
12.8534
12.768
12.6809
12.5921
12.5017
12.4095
16.1798
16.1721
16.1652
16.1564
16.1469
16.1366
16.1256
16.1139
16.1016
16.0887
16.0752
16.0612
16.0465
16.0313
16.0156
15.9993
15.9824
15.965
15.9471
15.9285
15.9094
15.8898
15.8695
15.8487
15.8273
15.8053
15.7827
15.7595
15.7357
15.7112
15.6861
15.6604
15.634
15.607
15.5792
15.5508
15.5217
15.4919
15.4613
15.43
15.398
15.3652
15.3316
15.2973
15.2621
15.2262
15.1894
15.1518
15.1133
15.074
15.0338
14.9926
14.9506
14.9077
14.8638
14.8189
14.7731
14.7262
14.6784
14.6295
14.5796
14.5286
14.4766
14.4234
14.3692
14.3138
14.2572
14.1995
14.1406
14.0804
14.0191
13.9565
13.8926
13.8275
13.761
13.6932
13.624
13.5535
13.4816
13.4082
13.3335
13.2572
13.1795
13.1003
13.0195
12.9372
12.8533
12.7678
12.6807
12.592
12.5015
12.4094
16.1801
16.1725
16.1655
16.1568
16.1473
16.137
16.1259
16.1143
16.1019
16.089
16.0755
16.0614
16.0468
16.0316
16.0159
15.9995
15.9827
15.9653
15.9473
15.9287
15.9096
15.89
15.8697
15.8489
15.8275
15.8055
15.7829
15.7596
15.7358
15.7113
15.6862
15.6605
15.6341
15.607
15.5793
15.5508
15.5217
15.4919
15.4613
15.43
15.398
15.3652
15.3316
15.2972
15.2621
15.2261
15.1893
15.1517
15.1132
15.0739
15.0337
14.9925
14.9505
14.9075
14.8636
14.8188
14.7729
14.7261
14.6782
14.6294
14.5795
14.5285
14.4764
14.4233
14.369
14.3136
14.2571
14.1993
14.1404
14.0803
14.019
13.9563
13.8925
13.8273
13.7608
13.693
13.6239
13.5534
13.4814
13.4081
13.3333
13.2571
13.1794
13.1001
13.0194
12.9371
12.8532
12.7677
12.6806
12.5918
12.5014
12.4093
16.1804
16.1727
16.1658
16.157
16.1475
16.1372
16.1262
16.1145
16.1022
16.0893
16.0758
16.0617
16.0471
16.0318
16.0161
15.9998
15.9829
15.9655
15.9475
15.9289
15.9098
15.8902
15.8699
15.8491
15.8276
15.8056
15.783
15.7598
15.7359
15.7114
15.6863
15.6606
15.6342
15.6071
15.5793
15.5509
15.5217
15.4919
15.4613
15.43
15.3979
15.3651
15.3316
15.2972
15.262
15.2261
15.1893
15.1516
15.1132
15.0738
15.0336
14.9924
14.9504
14.9074
14.8635
14.8187
14.7728
14.726
14.6781
14.6292
14.5793
14.5284
14.4763
14.4231
14.3689
14.3135
14.2569
14.1992
14.1403
14.0802
14.0188
13.9562
13.8923
13.8272
13.7607
13.6929
13.6238
13.5532
13.4813
13.408
13.3332
13.257
13.1792
13.1
13.0192
12.9369
12.8531
12.7676
16.1806
16.173
16.1661
16.1573
16.1478
16.1375
16.1264
16.1148
16.1024
16.0895
16.076
16.0619
16.0473
16.0321
16.0163
16
15.9831
15.9657
15.9477
15.9291
15.91
15.8903
15.87
15.8492
15.8278
15.8057
15.7831
15.7599
15.736
15.7115
15.6864
15.6606
15.6342
15.6071
15.5794
15.5509
15.5218
15.4919
15.4613
15.43
15.3979
15.3651
15.3315
15.2972
15.262
15.226
15.1892
15.1516
15.1131
15.0737
15.0335
14.9924
14.9503
14.9073
14.8634
14.8186
14.7727
14.7259
14.678
14.6291
14.5792
14.5282
14.4762
14.423
14.3688
14.3134
14.2568
14.1991
14.1402
14.0801
14.0187
13.9561
13.8922
13.8271
13.7606
13.6928
13.6236
13.5531
13.4812
13.4079
13.3331
13.2568
13.1791
13.0999
13.0191
12.9368
12.8529
12.7675
16.1808
16.1732
16.1663
16.1575
16.148
16.1377
16.1266
16.115
16.1026
16.0897
16.0762
16.0621
16.0475
16.0322
16.0165
16.0001
15.9833
15.9658
15.9478
15.9293
15.9102
15.8905
15.8702
15.8493
15.8279
15.8059
15.7832
15.76
15.7361
15.7116
15.6865
15.6607
15.6343
15.6072
15.5794
15.551
15.5218
15.4919
15.4613
15.43
15.398
15.3651
15.3315
15.2972
15.262
15.226
15.1892
15.1515
15.113
15.0737
15.0334
14.9923
14.9503
14.9073
14.8634
14.8185
14.7726
14.7258
14.6779
14.629
14.5791
14.5281
14.4761
14.4229
14.3687
14.3133
14.2567
14.199
14.1401
14.0799
14.0186
13.956
13.8921
13.827
13.7605
13.6927
13.6235
13.553
13.4811
13.4078
13.333
13.2567
13.179
13.0998
13.019
12.9367
12.8528
12.7673
16.181
16.1734
16.1664
16.1577
16.1482
16.1379
16.1268
16.1151
16.1028
16.0899
16.0764
16.0623
16.0476
16.0324
16.0166
16.0003
15.9834
15.966
15.948
15.9294
15.9103
15.8906
15.8703
15.8495
15.828
15.806
15.7833
15.7601
15.7362
15.7117
15.6866
15.6608
15.6344
15.6073
15.5795
15.551
15.5218
15.492
15.4614
15.43
15.398
15.3651
15.3315
15.2972
15.262
15.226
15.1892
15.1515
15.113
15.0737
15.0334
14.9923
14.9502
14.9072
14.8633
14.8184
14.7726
14.7257
14.6779
14.629
14.579
14.5281
14.476
14.4228
14.3686
14.3132
14.2566
14.1989
14.14
14.0799
14.0185
13.9559
13.892
13.8269
13.7604
13.6926
13.6234
13.5529
13.481
13.4077
13.3329
13.2567
13.1789
13.0997
13.0189
16.1812
16.1736
16.1666
16.1579
16.1483
16.138
16.127
16.1153
16.103
16.09
16.0765
16.0624
16.0478
16.0326
16.0168
16.0004
15.9836
15.9661
15.9481
15.9295
15.9104
15.8907
15.8704
15.8496
15.8281
15.8061
15.7834
15.7602
15.7363
15.7118
15.6867
15.6609
15.6344
15.6073
15.5795
15.5511
15.5219
15.492
15.4614
15.4301
15.398
15.3652
15.3316
15.2972
15.262
15.226
15.1892
15.1515
15.113
15.0736
15.0334
14.9922
14.9502
14.9072
14.8633
14.8184
14.7725
14.7257
14.6778
14.6289
14.579
14.528
14.4759
14.4228
14.3685
14.3131
14.2565
14.1988
14.1399
14.0798
14.0184
13.9558
13.892
13.8268
13.7603
13.6925
13.6234
13.5528
13.4809
13.4076
13.3328
13.2566
13.1788
13.0996
13.0189
16.1814
16.1737
16.1668
16.158
16.1485
16.1382
16.1271
16.1154
16.1031
16.0902
16.0767
16.0626
16.0479
16.0327
16.0169
16.0006
15.9837
15.9662
15.9482
15.9297
15.9105
15.8908
15.8706
15.8497
15.8282
15.8062
15.7835
15.7603
15.7364
15.7119
15.6867
15.661
15.6345
15.6074
15.5796
15.5511
15.5219
15.4921
15.4615
15.4301
15.398
15.3652
15.3316
15.2972
15.262
15.226
15.1892
15.1515
15.113
15.0736
15.0334
14.9922
14.9501
14.9072
14.8632
14.8183
14.7725
14.7256
14.6778
14.6289
14.5789
14.5279
14.4759
14.4227
14.3684
14.313
14.2565
14.1988
14.1398
14.0797
14.0184
13.9558
13.8919
13.8267
13.7603
13.6925
13.6233
13.5528
13.4809
13.4075
13.3327
13.2565
13.1788
13.0996
13.0188
16.1815
16.1739
16.1669
16.1582
16.1486
16.1383
16.1273
16.1156
16.1033
16.0903
16.0768
16.0627
16.048
16.0328
16.017
16.0007
15.9838
15.9664
15.9484
15.9298
15.9107
15.8909
15.8707
15.8498
15.8283
15.8063
15.7836
15.7604
15.7365
15.712
15.6868
15.661
15.6346
15.6075
15.5797
15.5512
15.522
15.4921
15.4615
15.4302
15.3981
15.3652
15.3316
15.2972
15.262
15.226
15.1892
15.1515
15.113
15.0736
15.0334
14.9922
14.9501
14.9071
14.8632
14.8183
14.7724
14.7256
14.6777
14.6288
14.5789
14.5279
14.4758
14.4227
14.3684
14.313
14.2564
14.1987
14.1398
14.0797
14.0183
13.9557
13.8918
13.8267
13.7602
13.6924
13.6232
13.5527
13.4808
13.4075
13.3327
13.2564
13.1787
13.0995
13.0187
16.1816
16.174
16.167
16.1583
16.1488
16.1384
16.1274
16.1157
16.1034
16.0904
16.0769
16.0628
16.0482
16.0329
16.0172
16.0008
15.9839
15.9665
15.9485
15.9299
15.9108
15.891
15.8708
15.8499
15.8284
15.8064
15.7837
15.7605
15.7366
15.7121
15.6869
15.6611
15.6347
15.6075
15.5797
15.5512
15.5221
15.4922
15.4616
15.4302
15.3981
15.3653
15.3316
15.2972
15.262
15.226
15.1892
15.1515
15.113
15.0736
15.0334
14.9922
14.9501
14.9071
14.8632
14.8183
14.7724
14.7256
14.6777
14.6288
14.5789
14.5279
14.4758
14.4227
14.3684
14.313
14.2564
14.1987
14.1398
14.0796
14.0183
13.9557
13.8918
13.8266
13.7602
13.6924
13.6232
13.5527
13.4808
13.4074
13.3326
13.2564
13.1787
13.0995
13.0187
16.1818
16.1741
16.1671
16.1584
16.1489
16.1386
16.1275
16.1158
16.1035
16.0906
16.077
16.0629
16.0483
16.0331
16.0173
16.0009
15.984
15.9666
15.9486
15.93
15.9109
15.8912
15.8709
15.85
15.8285
15.8065
15.7838
15.7605
15.7367
15.7121
15.687
15.6612
15.6347
15.6076
15.5798
15.5513
15.5221
15.4922
15.4616
15.4303
15.3982
15.3653
15.3317
15.2973
15.2621
15.2261
15.1892
15.1516
15.113
15.0737
15.0334
14.9922
14.9501
14.9071
14.8632
14.8183
14.7724
14.7256
14.6777
14.6288
14.5789
14.5279
14.4758
14.4226
14.3684
14.3129
14.2564
14.1986
14.1397
14.0796
14.0182
13.9556
13.8918
13.8266
13.7601
13.6923
13.6232
13.5526
13.4807
13.4074
13.3326
13.2564
13.1787
13.0994
13.0187
16.1819
16.1743
16.1672
16.1585
16.149
16.1387
16.1276
16.1159
16.1036
16.0907
16.0772
16.0631
16.0484
16.0332
16.0174
16.001
15.9841
15.9667
15.9487
15.9301
15.911
15.8913
15.871
15.8501
15.8286
15.8066
15.7839
15.7606
15.7367
15.7122
15.6871
15.6613
15.6348
15.6077
15.5799
15.5514
15.5222
15.4923
15.4617
15.4303
15.3982
15.3654
15.3317
15.2973
15.2621
15.2261
15.1893
15.1516
15.1131
15.0737
15.0334
14.9922
14.9502
14.9072
14.8632
14.8183
14.7724
14.7256
14.6777
14.6288
14.5789
14.5279
14.4758
14.4226
14.3683
14.3129
14.2564
14.1986
14.1397
14.0796
14.0182
13.9556
13.8917
13.8266
13.7601
13.6923
13.6232
13.5526
13.4807
13.4074
13.3326
13.2564
13.1786
13.0994
13.0187
16.182
16.1744
16.1674
16.1586
16.1491
16.1388
16.1278
16.1161
16.1037
16.0908
16.0773
16.0632
16.0485
16.0333
16.0175
16.0012
15.9843
15.9668
15.9488
15.9302
15.9111
15.8914
15.8711
15.8502
15.8287
15.8067
15.784
15.7607
15.7368
15.7123
15.6872
15.6613
15.6349
15.6078
15.5799
15.5515
15.5223
15.4924
15.4617
15.4304
15.3983
15.3654
15.3318
15.2974
15.2622
15.2262
15.1893
15.1516
15.1131
15.0737
15.0334
14.9923
14.9502
14.9072
14.8632
14.8183
14.7725
14.7256
14.6777
14.6288
14.5789
14.5279
14.4758
14.4226
14.3684
14.3129
14.2564
14.1986
14.1397
14.0796
14.0182
13.9556
13.8917
13.8266
13.7601
13.6923
13.6231
13.5526
13.4807
13.4074
13.3326
13.2563
13.1786
13.0994
13.0186
16.1821
16.1745
16.1675
16.1588
16.1492
16.1389
16.1279
16.1162
16.1038
16.0909
16.0774
16.0633
16.0486
16.0334
16.0176
16.0013
15.9844
15.9669
15.9489
15.9303
15.9112
15.8915
15.8712
15.8503
15.8288
15.8068
15.7841
15.7608
15.7369
15.7124
15.6872
15.6614
15.635
15.6078
15.58
15.5515
15.5223
15.4924
15.4618
15.4305
15.3983
15.3655
15.3319
15.2974
15.2622
15.2262
15.1894
15.1517
15.1132
15.0738
15.0335
14.9923
14.9502
14.9072
14.8633
14.8184
14.7725
14.7256
14.6778
14.6289
14.5789
14.5279
14.4758
14.4227
14.3684
14.313
14.2564
14.1987
14.1397
14.0796
14.0182
13.9556
13.8918
13.8266
13.7601
13.6923
13.6232
13.5526
13.4807
13.4074
13.3326
13.2564
13.1786
13.0994
13.0186
16.1822
16.1746
16.1676
16.1589
16.1493
16.139
16.128
16.1163
16.104
16.091
16.0775
16.0634
16.0487
16.0335
16.0177
16.0014
15.9845
15.967
15.949
15.9304
15.9113
15.8916
15.8713
15.8504
15.8289
15.8069
15.7842
15.7609
15.737
15.7125
15.6873
15.6615
15.6351
15.6079
15.5801
15.5516
15.5224
15.4925
15.4619
15.4305
15.3984
15.3656
15.3319
15.2975
15.2623
15.2263
15.1894
15.1518
15.1132
15.0738
15.0335
14.9924
14.9503
14.9073
14.8633
14.8184
14.7725
14.7257
14.6778
14.6289
14.5789
14.5279
14.4759
14.4227
14.3684
14.313
14.2564
14.1987
14.1398
14.0796
14.0183
13.9556
13.8918
13.8266
13.7601
13.6923
13.6232
13.5526
13.4807
13.4074
13.3326
13.2564
13.1786
13.0994
13.0187
16.1823
16.1748
16.1677
16.159
16.1495
16.1391
16.1281
16.1164
16.1041
16.0911
16.0776
16.0635
16.0488
16.0336
16.0178
16.0015
15.9846
15.9671
15.9491
15.9305
15.9114
15.8917
15.8714
15.8505
15.829
15.807
15.7843
15.761
15.7371
15.7126
15.6874
15.6616
15.6352
15.608
15.5802
15.5517
15.5225
15.4926
15.462
15.4306
15.3985
15.3656
15.332
15.2976
15.2624
15.2264
15.1895
15.1518
15.1133
15.0739
15.0336
14.9924
14.9504
14.9073
14.8634
14.8185
14.7726
14.7257
14.6778
14.6289
14.579
14.528
14.4759
14.4227
14.3684
14.313
14.2565
14.1987
14.1398
14.0797
14.0183
13.9557
13.8918
13.8266
13.7602
13.6924
13.6232
13.5527
13.4807
13.4074
13.3326
13.2564
13.1787
13.0994
13.0187
16.1824
16.1749
16.1678
16.1591
16.1496
16.1392
16.1282
16.1165
16.1042
16.0912
16.0777
16.0636
16.0489
16.0337
16.0179
16.0016
15.9847
15.9672
15.9492
15.9306
15.9115
15.8918
15.8715
15.8506
15.8291
15.8071
15.7844
15.7611
15.7372
15.7127
15.6875
15.6617
15.6352
15.6081
15.5803
15.5518
15.5226
15.4927
15.4621
15.4307
15.3986
15.3657
15.3321
15.2977
15.2625
15.2264
15.1896
15.1519
15.1134
15.074
15.0337
14.9925
14.9504
14.9074
14.8635
14.8185
14.7727
14.7258
14.6779
14.629
14.579
14.528
14.476
14.4228
14.3685
14.3131
14.2565
14.1988
14.1398
14.0797
14.0183
13.9557
13.8918
13.8267
13.7602
13.6924
13.6232
13.5527
13.4808
13.4074
13.3327
13.2564
13.1787
13.0995
13.0187
16.1826
16.175
16.1679
16.1592
16.1497
16.1394
16.1283
16.1166
16.1043
16.0914
16.0778
16.0637
16.0491
16.0338
16.018
16.0017
15.9848
15.9673
15.9493
15.9307
15.9116
15.8919
15.8716
15.8507
15.8292
15.8072
15.7845
15.7612
15.7373
15.7128
15.6876
15.6618
15.6354
15.6082
15.5804
15.5519
15.5227
15.4928
15.4622
15.4308
15.3987
15.3658
15.3322
15.2978
15.2625
15.2265
15.1897
15.152
15.1135
15.074
15.0338
14.9926
14.9505
14.9075
14.8635
14.8186
14.7727
14.7259
14.678
14.6291
14.5791
14.5281
14.476
14.4228
14.3686
14.3131
14.2566
14.1988
14.1399
14.0798
14.0184
13.9558
13.8919
13.8267
13.7603
13.6925
13.6233
13.5528
13.4808
13.4075
13.3327
13.2565
13.1788
13.0995
13.0188
16.1827
16.1752
16.168
16.1594
16.1498
16.1395
16.1285
16.1168
16.1044
16.0915
16.078
16.0639
16.0492
16.034
16.0182
16.0018
15.9849
15.9675
15.9494
15.9309
15.9117
15.892
15.8717
15.8508
15.8294
15.8073
15.7846
15.7613
15.7374
15.7129
15.6877
15.6619
15.6355
15.6083
15.5805
15.552
15.5228
15.4929
15.4623
15.4309
15.3988
15.3659
15.3323
15.2979
15.2626
15.2266
15.1898
15.1521
15.1135
15.0741
15.0339
14.9927
14.9506
14.9076
14.8636
14.8187
14.7728
14.7259
14.6781
14.6291
14.5792
14.5282
14.4761
14.4229
14.3686
14.3132
14.2566
14.1989
14.14
14.0798
14.0185
13.9558
13.892
13.8268
13.7603
13.6925
13.6234
13.5528
13.4809
13.4076
13.3328
13.2565
13.1788
13.0996
13.0188
16.1828
16.1753
16.1682
16.1595
16.1499
16.1396
16.1286
16.1169
16.1046
16.0916
16.0781
16.064
16.0493
16.0341
16.0183
16.002
15.985
15.9676
15.9496
15.931
15.9118
15.8921
15.8718
15.8509
15.8295
15.8074
15.7847
15.7615
15.7376
15.713
15.6879
15.662
15.6356
15.6084
15.5806
15.5521
15.5229
15.493
15.4624
15.431
15.3989
15.366
15.3324
15.298
15.2627
15.2267
15.1899
15.1522
15.1136
15.0742
15.034
14.9928
14.9507
14.9077
14.8637
14.8188
14.7729
14.726
14.6781
14.6292
14.5793
14.5283
14.4762
14.423
14.3687
14.3133
14.2567
14.199
14.14
14.0799
14.0185
13.9559
13.892
13.8269
13.7604
13.6926
13.6234
13.5529
13.481
13.4076
13.3329
13.2566
13.1789
13.0997
13.0189
16.183
16.1754
16.1683
16.1596
16.1501
16.1398
16.1287
16.117
16.1047
16.0918
16.0782
16.0641
16.0494
16.0342
16.0184
16.0021
15.9852
15.9677
15.9497
15.9311
15.912
15.8922
15.872
15.8511
15.8296
15.8075
15.7849
15.7616
15.7377
15.7132
15.688
15.6622
15.6357
15.6086
15.5807
15.5522
15.523
15.4931
15.4625
15.4311
15.399
15.3661
15.3325
15.2981
15.2629
15.2268
15.19
15.1523
15.1138
15.0743
15.0341
14.9929
14.9508
14.9078
14.8638
14.8189
14.773
14.7261
14.6782
14.6293
14.5794
14.5284
14.4763
14.4231
14.3688
14.3134
14.2568
14.1991
14.1401
14.08
14.0186
13.956
13.8921
13.827
13.7605
13.6927
13.6235
13.553
13.4811
13.4077
13.3329
13.2567
13.179
13.0997
13.019
16.1831
16.1756
16.1684
16.1598
16.1502
16.1399
16.1289
16.1172
16.1048
16.0919
16.0784
16.0643
16.0496
16.0344
16.0186
16.0022
15.9853
15.9679
15.9498
15.9313
15.9121
15.8924
15.8721
15.8512
15.8297
15.8077
15.785
15.7617
15.7378
15.7133
15.6881
15.6623
15.6358
15.6087
15.5809
15.5524
15.5232
15.4933
15.4626
15.4312
15.3991
15.3663
15.3326
15.2982
15.263
15.227
15.1901
15.1524
15.1139
15.0745
15.0342
14.993
14.9509
14.9079
14.8639
14.819
14.7731
14.7262
14.6783
14.6294
14.5795
14.5285
14.4764
14.4232
14.3689
14.3135
14.2569
14.1992
14.1402
14.0801
14.0187
13.9561
13.8922
13.8271
13.7606
13.6928
13.6236
13.5531
13.4811
13.4078
13.333
13.2568
13.1791
13.0998
16.1832
16.1758
16.1686
16.1599
16.1504
16.14
16.129
16.1173
16.105
16.092
16.0785
16.0644
16.0497
16.0345
16.0187
16.0024
15.9855
15.968
15.95
15.9314
15.9122
15.8925
15.8722
15.8513
15.8299
15.8078
15.7851
15.7619
15.738
15.7134
15.6883
15.6624
15.636
15.6088
15.581
15.5525
15.5233
15.4934
15.4627
15.4314
15.3993
15.3664
15.3328
15.2983
15.2631
15.2271
15.1902
15.1525
15.114
15.0746
15.0343
14.9931
14.951
14.908
14.864
14.8191
14.7732
14.7264
14.6785
14.6296
14.5796
14.5286
14.4765
14.4233
14.369
14.3136
14.257
14.1993
14.1403
14.0802
14.0188
13.9562
13.8923
13.8272
13.7607
13.6929
13.6237
13.5532
13.4813
13.4079
13.3331
13.2569
13.1792
13.0999
16.1834
16.1759
16.1687
16.1601
16.1505
16.1402
16.1292
16.1175
16.1051
16.0922
16.0787
16.0646
16.0499
16.0347
16.0189
16.0025
15.9856
15.9682
15.9501
15.9315
15.9124
15.8927
15.8724
15.8515
15.83
15.808
15.7853
15.762
15.7381
15.7136
15.6884
15.6626
15.6361
15.609
15.5812
15.5526
15.5234
15.4935
15.4629
15.4315
15.3994
15.3665
15.3329
15.2985
15.2632
15.2272
15.1904
15.1527
15.1141
15.0747
15.0344
14.9932
14.9512
14.9081
14.8642
14.8193
14.7734
14.7265
14.6786
14.6297
14.5797
14.5287
14.4766
14.4234
14.3691
14.3137
14.2571
14.1994
14.1405
14.0803
14.0189
13.9563
13.8924
13.8273
13.7608
13.693
13.6238
13.5533
13.4814
13.408
13.3332
13.257
13.1793
13.1
16.1836
16.1761
16.1689
16.1602
16.1507
16.1404
16.1293
16.1176
16.1053
16.0924
16.0788
16.0647
16.05
16.0348
16.019
16.0027
15.9858
15.9683
15.9503
15.9317
15.9126
15.8928
15.8725
15.8517
15.8302
15.8081
15.7854
15.7622
15.7383
15.7137
15.6886
15.6627
15.6363
15.6091
15.5813
15.5528
15.5236
15.4937
15.463
15.4317
15.3996
15.3667
15.333
15.2986
15.2634
15.2274
15.1905
15.1528
15.1143
15.0749
15.0346
14.9934
14.9513
14.9083
14.8643
14.8194
14.7735
14.7266
14.6787
14.6298
14.5799
14.5288
14.4768
14.4236
14.3693
14.3138
14.2573
14.1995
14.1406
14.0804
14.0191
13.9565
13.8926
13.8274
13.7609
13.6931
13.6239
13.5534
13.4815
13.4081
13.3334
13.2571
13.1794
13.1002
16.1837
16.1763
16.1691
16.1604
16.1509
16.1405
16.1295
16.1178
16.1055
16.0925
16.079
16.0649
16.0502
16.035
16.0192
16.0028
15.9859
15.9685
15.9505
15.9319
15.9127
15.893
15.8727
15.8518
15.8303
15.8083
15.7856
15.7623
15.7384
15.7139
15.6887
15.6629
15.6364
15.6093
15.5815
15.553
15.5237
15.4938
15.4632
15.4318
15.3997
15.3668
15.3332
15.2988
15.2635
15.2275
15.1907
15.153
15.1144
15.075
15.0347
14.9935
14.9514
14.9084
14.8645
14.8195
14.7736
14.7268
14.6789
14.63
14.58
14.529
14.4769
14.4237
14.3694
14.314
14.2574
14.1997
14.1407
14.0806
14.0192
13.9566
13.8927
13.8275
13.7611
13.6932
13.6241
13.5535
13.4816
13.4083
13.3335
13.2573
13.1795
13.1003
16.1839
16.1765
16.1692
16.1606
16.151
16.1407
16.1297
16.118
16.1056
16.0927
16.0792
16.0651
16.0504
16.0352
16.0194
16.003
15.9861
15.9686
15.9506
15.932
15.9129
15.8932
15.8729
15.852
15.8305
15.8084
15.7858
15.7625
15.7386
15.7141
15.6889
15.6631
15.6366
15.6094
15.5816
15.5531
15.5239
15.494
15.4634
15.432
15.3999
15.367
15.3334
15.2989
15.2637
15.2277
15.1908
15.1531
15.1146
15.0752
15.0349
14.9937
14.9516
14.9086
14.8646
14.8197
14.7738
14.7269
14.679
14.6301
14.5802
14.5291
14.477
14.4239
14.3696
14.3141
14.2576
14.1998
14.1409
14.0807
14.0194
13.9567
13.8929
13.8277
13.7612
13.6934
13.6242
13.5537
13.4818
13.4084
13.3336
13.2574
13.1797
13.1004
16.1841
16.1767
16.1694
16.1608
16.1512
16.1409
16.1299
16.1182
16.1058
16.0929
16.0793
16.0652
16.0506
16.0353
16.0195
16.0032
15.9863
15.9688
15.9508
15.9322
15.9131
15.8933
15.873
15.8522
15.8307
15.8086
15.786
15.7627
15.7388
15.7142
15.6891
15.6632
15.6368
15.6096
15.5818
15.5533
15.5241
15.4942
15.4635
15.4322
15.4
15.3672
15.3335
15.2991
15.2639
15.2278
15.191
15.1533
15.1147
15.0753
15.035
14.9939
14.9518
14.9087
14.8648
14.8199
14.774
14.7271
14.6792
14.6303
14.5803
14.5293
14.4772
14.424
14.3697
14.3143
14.2577
14.2
14.141
14.0809
14.0195
13.9569
13.893
13.8278
13.7613
13.6935
13.6244
13.5538
13.4819
13.4086
13.3338
13.2575
13.1798
13.1006
16.1843
16.1769
16.1696
16.161
16.1514
16.1411
16.13
16.1183
16.106
16.0931
16.0795
16.0654
16.0508
16.0355
16.0197
16.0034
15.9865
15.969
15.951
15.9324
15.9133
15.8935
15.8732
15.8524
15.8309
15.8088
15.7861
15.7629
15.7389
15.7144
15.6892
15.6634
15.6369
15.6098
15.582
15.5535