/*--------------------------------*- C++ -*----------------------------------*\
  =========                 |
  \\      /  F ield         | OpenFOAM: The Open Source CFD Toolbox
   \\    /   O peration     | Website:  https://openfoam.org
    \\  /    A nd           | Version:  10
     \\/     M anipulation  |
\*---------------------------------------------------------------------------*/
FoamFile
{
    format      ascii;
    class       volScalarField;
    location    "20000";
    object      k;
}
// * * * * * * * * * * * * * * * * * * * * * * * * * * * * * * * * * * * * * //

dimensions      [0 2 -2 0 0 0 0];

internalField   nonuniform List<scalar> 
17969
(
1.91306e-05
0.00048306
0.00117823
0.00198916
0.00271708
0.00330828
0.00374213
0.0040021
0.00413462
0.00421632
0.00430468
0.00444505
0.00464903
0.00490793
0.00520685
0.00553085
0.00586768
0.00620851
0.00654753
0.00688124
0.00720776
0.00752623
0.00783642
0.00813849
0.0084328
0.00871978
0.00899991
0.00927366
0.00954146
0.00980368
0.0100607
0.0103127
0.0105601
0.010803
0.0110414
0.0112757
0.0115058
0.0117318
0.0119537
0.0121715
0.0123851
0.0125946
0.0127999
0.0130008
0.0131973
0.0133893
0.0135766
0.0137592
0.0139369
0.0141096
0.0142771
0.0144393
0.0145961
0.0147473
0.0148927
0.0150321
0.0151655
0.0152927
0.0154134
0.0155276
0.0156351
0.0157357
0.0158292
0.0159157
0.0159948
0.0160666
0.0161311
0.0161882
0.016238
0.0162808
0.0163169
0.0163467
0.0163712
0.0163913
0.0164085
0.0164246
0.0164419
0.0164631
0.0164907
0.0165266
0.0165733
0.0166329
0.0167079
0.0168006
0.0169132
0.017048
0.0172073
0.0173933
0.0176081
0.0178504
0.0181166
0.0184059
0.0187186
0.019055
0.0194157
0.0198007
0.0202094
0.0206411
0.0210954
0.0215724
1.41642e-05
0.000362481
0.000916506
0.00160734
0.00227601
0.00289062
0.00342656
0.00385447
0.00413831
0.00429547
0.0043797
0.0044488
0.00453743
0.00467817
0.00487398
0.00511712
0.00539579
0.00569817
0.00601419
0.00633618
0.00665874
0.00697832
0.00729278
0.00760094
0.00790224
0.00819653
0.00848393
0.00876465
0.009039
0.00930732
0.00956991
0.00982707
0.0100791
0.0103261
0.0105684
0.0108062
0.0110394
0.0112683
0.0114928
0.0117131
0.0119291
0.0121407
0.012348
0.0125508
0.0127492
0.012943
0.0131322
0.0133165
0.0134959
0.0136703
0.0138395
0.0140034
0.0141618
0.0143146
0.0144615
0.0146026
0.0147375
0.0148661
0.0149882
0.0151037
0.0152124
0.0153141
0.0154086
0.0154958
0.0155756
0.0156478
0.0157123
0.0157692
0.0158184
0.0158601
0.0158945
0.015922
0.0159433
0.0159594
0.0159714
0.0159812
0.0159913
0.0160042
0.0160224
0.0160479
0.0160831
0.0161303
0.0161918
0.01627
0.0163673
0.016486
0.0166288
0.0167979
0.0169956
0.0172215
0.017472
0.0177462
0.0180445
0.018368
0.0187173
0.0190929
0.0194944
0.0199214
0.0203736
0.0208517
1.06252e-05
0.000274565
0.000713896
0.00130041
0.00186501
0.00242315
0.00296331
0.00346633
0.00390249
0.00422567
0.00442593
0.0045342
0.0045981
0.00465974
0.00474634
0.00487993
0.00506231
0.00528735
0.00554567
0.00582759
0.00612448
0.00642939
0.00673713
0.00704404
0.00734773
0.00764668
0.00794004
0.00822739
0.00850859
0.00878369
0.00905282
0.00931617
0.00957397
0.00982643
0.0100737
0.0103161
0.0105536
0.0107864
0.0110145
0.0112381
0.0114572
0.0116718
0.0118819
0.0120874
0.0122883
0.0124846
0.0126761
0.0128627
0.0130444
0.013221
0.0133924
0.0135584
0.013719
0.0138739
0.0140229
0.0141661
0.014303
0.0144337
0.0145578
0.0146752
0.0147857
0.0148892
0.0149854
0.0150742
0.0151554
0.0152288
0.0152944
0.015352
0.0154017
0.0154434
0.0154773
0.0155038
0.0155233
0.0155367
0.015545
0.0155501
0.0155544
0.0155604
0.0155707
0.0155871
0.0156119
0.0156476
0.0156965
0.015761
0.0158436
0.0159467
0.016073
0.0162249
0.0164049
0.0166139
0.0168483
0.0171066
0.0173899
0.0176993
0.0180361
0.0184009
0.0187939
0.0192146
0.0196629
0.0201395
8.13724e-06
0.000212602
0.000566154
0.00106785
0.00154463
0.00200622
0.00248306
0.00296649
0.00344212
0.00388452
0.00424943
0.00450604
0.00465995
0.00474375
0.0047977
0.00485373
0.00493403
0.00505632
0.00522269
0.00542876
0.00566703
0.00592935
0.00620815
0.00649699
0.00679081
0.00708584
0.00737942
0.00766974
0.00795566
0.00823649
0.00851188
0.00878167
0.00904586
0.0093045
0.00955772
0.00980564
0.0100484
0.0102861
0.0105189
0.0107468
0.0109699
0.0111883
0.0114019
0.0116108
0.0118149
0.0120143
0.0122087
0.0123982
0.0125827
0.012762
0.0129361
0.0131048
0.013268
0.0134255
0.0135772
0.0137229
0.0138624
0.0139956
0.0141222
0.0142421
0.0143551
0.014461
0.0145595
0.0146505
0.0147339
0.0148093
0.0148767
0.0149359
0.0149869
0.0150296
0.0150641
0.0150907
0.0151096
0.0151217
0.0151277
0.0151295
0.0151294
0.0151299
0.0151336
0.0151422
0.0151581
0.0151835
0.0152209
0.0152728
0.0153415
0.0154296
0.0155399
0.0156748
0.015837
0.0160287
0.016247
0.0164893
0.016757
0.0170517
0.017375
0.0177281
0.0181114
0.0185247
0.0189678
0.0194411
0.0199441
0.0204745
0.0210291
0.021604
6.24421e-06
0.000165399
0.000455195
0.000882864
0.00129394
0.00167983
0.00206985
0.00248433
0.00292057
0.00336606
0.00380371
0.0042017
0.00451772
0.00473407
0.00486269
0.00493377
0.00498141
0.00503189
0.00510365
0.00521278
0.00536221
0.00554918
0.00576779
0.00601117
0.00627253
0.00654587
0.00682622
0.00710971
0.00739343
0.00767533
0.00795397
0.00822842
0.0084981
0.00876267
0.00902198
0.00927595
0.00952461
0.009768
0.0100062
0.0102392
0.0104672
0.0106902
0.0109082
0.0111212
0.0113293
0.0115324
0.0117304
0.0119234
0.0121113
0.0122939
0.0124712
0.012643
0.0128093
0.0129698
0.0131246
0.0132733
0.0134158
0.013552
0.0136816
0.0138045
0.0139204
0.0140292
0.0141307
0.0142245
0.0143106
0.0143887
0.0144586
0.0145202
0.0145733
0.0146179
0.014654
0.0146816
0.0147011
0.014713
0.014718
0.0147178
0.0147147
0.0147111
0.0147094
0.0147116
0.0147199
0.0147365
0.0147637
0.014804
0.01486
0.0149342
0.0150292
0.0151478
0.0152928
0.0154667
0.0156685
0.0158949
0.0161468
0.0164263
0.0167354
0.0170758
0.0174482
0.0178527
0.0182891
0.0187573
0.0192573
0.019787
0.0203436
0.0209232
4.7016e-06
0.000126445
0.000362943
0.000731202
0.00108897
0.00141787
0.00174172
0.00207885
0.00244303
0.00283728
0.00324905
0.00366993
0.00408362
0.00444953
0.00473389
0.00492692
0.00504211
0.00510653
0.00514975
0.00519491
0.00525747
0.00535315
0.00548579
0.00565409
0.00585363
0.00607865
0.00632308
0.00658129
0.00684839
0.00712043
0.00739433
0.00766775
0.00793904
0.00820701
0.00847087
0.00873011
0.0089844
0.00923358
0.00947754
0.00971626
0.00994973
0.010178
0.010401
0.0106189
0.0108316
0.0110391
0.0112414
0.0114384
0.0116302
0.0118167
0.0119977
0.0121731
0.012343
0.0125071
0.0126653
0.0128175
0.0129635
0.0131031
0.0132361
0.0133624
0.0134818
0.013594
0.0136988
0.013796
0.0138854
0.0139667
0.0140398
0.0141044
0.0141604
0.0142076
0.014246
0.0142757
0.0142967
0.0143095
0.0143146
0.0143136
0.0143087
0.0143023
0.0142965
0.0142939
0.0142959
0.0143049
0.0143233
0.0143535
0.0143979
0.0144593
0.0145402
0.0146435
0.0147719
0.0149281
0.0151133
0.015324
0.01556
0.0158238
0.0161179
0.0164444
0.0168045
0.0171988
0.0176271
0.0180891
0.0185842
0.0191111
0.0196673
0.0202492
3.40997e-06
9.31337e-05
0.000280525
0.000594946
0.000906533
0.00119052
0.00146372
0.00174223
0.0020374
0.00235863
0.00271315
0.00309336
0.003493
0.00390335
0.00429965
0.00464385
0.00490931
0.00509017
0.00519943
0.00526123
0.00530179
0.00534252
0.00539652
0.00547963
0.00559653
0.00574719
0.00592851
0.00613583
0.00636383
0.0066072
0.00686119
0.00712177
0.0073857
0.00765046
0.00791414
0.00817536
0.00843313
0.00868674
0.00893575
0.00917984
0.00941883
0.00965261
0.0098811
0.0101043
0.0103221
0.0105346
0.0107417
0.0109434
0.0111397
0.0113305
0.0115158
0.0116954
0.0118693
0.0120374
0.0121995
0.0123556
0.0125055
0.0126489
0.0127858
0.0129159
0.0130391
0.0131551
0.0132638
0.0133648
0.0134579
0.013543
0.0136198
0.013688
0.0137474
0.013798
0.0138395
0.0138719
0.0138953
0.01391
0.0139163
0.0139156
0.0139102
0.0139021
0.0138938
0.0138874
0.0138845
0.0138874
0.0138983
0.0139197
0.013954
0.0140038
0.0140719
0.0141608
0.0142735
0.0144127
0.014581
0.0147764
0.0149965
0.0152443
0.0155226
0.0158341
0.0161804
0.0165625
0.0169807
0.0174347
0.0179236
0.0184459
0.0189994
0.0195813
0.0201885
2.36245e-06
6.54244e-05
0.000206561
0.000466701
0.000735369
0.000979052
0.00121151
0.00144503
0.00168926
0.00195183
0.00223971
0.00256025
0.00291153
0.00328308
0.00367419
0.00407755
0.00446166
0.0047927
0.00504871
0.00522528
0.00533402
0.00539654
0.00543656
0.00547448
0.00552148
0.00559365
0.00569645
0.00583098
0.00599529
0.00618575
0.0063978
0.0066266
0.00686753
0.00711655
0.0073703
0.00762607
0.00788179
0.00813586
0.00838712
0.0086347
0.00887802
0.00911664
0.00935028
0.00957875
0.00980191
0.0100197
0.010232
0.0104388
0.01064
0.0108357
0.0110256
0.0112099
0.0113883
0.0115608
0.0117273
0.0118877
0.0120418
0.0121895
0.0123306
0.012465
0.0125924
0.0127126
0.0128255
0.0129307
0.0130281
0.0131174
0.0131983
0.0132706
0.013334
0.0133884
0.0134336
0.0134695
0.0134961
0.0135134
0.0135219
0.0135226
0.0135176
0.0135092
0.0134994
0.0134905
0.0134841
0.0134821
0.013487
0.0135011
0.0135267
0.0135664
0.013623
0.013699
0.0137973
0.0139207
0.014072
0.0142515
0.0144564
0.0146881
0.0149502
0.0152457
0.0155768
0.0159448
0.0163504
0.0167938
0.0172743
0.0177907
0.0183412
0.0189232
0.0195339
0.0201698
0.0208274
1.56661e-06
4.38605e-05
0.000143769
0.00034824
0.000573106
0.000777855
0.000972822
0.00116774
0.00137006
0.00158623
0.00182201
0.00208325
0.00237493
0.00269837
0.00304589
0.00341372
0.00380181
0.0042003
0.00457784
0.00490309
0.00515671
0.00533458
0.00544674
0.00551263
0.00555399
0.00559036
0.00563281
0.00569618
0.00578699
0.00590724
0.006056
0.00623057
0.0064272
0.00664161
0.00686946
0.00710674
0.00735001
0.00759643
0.00784374
0.00809019
0.00833446
0.00857553
0.00881268
0.00904537
0.00927322
0.00949596
0.00971338
0.00992535
0.0101318
0.0103325
0.0105275
0.0107168
0.0109001
0.0110774
0.0112487
0.0114138
0.0115726
0.0117249
0.0118706
0.0120096
0.0121415
0.0122664
0.0123838
0.0124936
0.0125956
0.0126894
0.0127749
0.0128517
0.0129196
0.0129784
0.0130279
0.0130678
0.0130982
0.013119
0.0131304
0.0131333
0.0131298
0.0131219
0.0131117
0.0131015
0.0130928
0.0130875
0.0130878
0.0130959
0.0131144
0.0131455
0.0131921
0.0132566
0.0133419
0.0134507
0.0135858
0.0137496
0.0139399
0.0141558
0.0144016
0.0146806
0.0149954
0.015348
0.0157394
0.0161704
0.0166406
0.0171493
0.0176949
0.0182753
0.0188876
0.0195285
0.0201945
0.0208815
9.99561e-07
2.82068e-05
9.46767e-05
0.000245953
0.000427169
0.000594937
0.00075427
0.000913664
0.0010795
0.00125617
0.00144879
0.00166247
0.00190225
0.0021699
0.00246709
0.00279382
0.00314231
0.0035099
0.00389584
0.00429059
0.00466419
0.00498728
0.00524193
0.0054237
0.00554118
0.00561197
0.00565624
0.00569257
0.00573227
0.00578874
0.00586947
0.00597722
0.00611189
0.00627161
0.0064534
0.00665361
0.00686827
0.00709355
0.00732598
0.00756262
0.00780107
0.00803941
0.00827618
0.00851023
0.00874072
0.008967
0.00918859
0.00940515
0.00961642
0.00982219
0.0100223
0.0102166
0.0104051
0.0105875
0.0107639
0.010934
0.0110977
0.011255
0.0114057
0.0115495
0.0116864
0.0118162
0.0119385
0.0120533
0.0121602
0.0122589
0.0123493
0.012431
0.0125038
0.0125674
0.0126216
0.0126661
0.0127008
0.0127257
0.0127408
0.0127467
0.0127455
0.0127391
0.0127295
0.0127188
0.0127092
0.0127018
0.0126989
0.0127026
0.0127154
0.0127395
0.0127776
0.0128322
0.012906
0.0130017
0.013122
0.01327
0.0134456
0.0136468
0.0138767
0.0141391
0.0144372
0.0147735
0.0151497
0.0155667
0.0160249
0.016524
0.0170629
0.0176396
0.0182516
0.0188957
0.0195683
0.0202652
0.0209821
0.0217149
6.24736e-07
1.76933e-05
5.97988e-05
0.000165283
0.000305736
0.000440188
0.000568239
0.000695888
0.000828404
0.000970402
0.00112551
0.00129797
0.00149251
0.00171107
0.00195497
0.00222756
0.00253295
0.0028656
0.00321782
0.0035866
0.00397119
0.0043628
0.00473331
0.00505539
0.00531196
0.00549828
0.00562164
0.00569795
0.00574596
0.00578326
0.00582137
0.00587242
0.00594467
0.00604147
0.00616342
0.00630935
0.00647697
0.00666322
0.00686462
0.00707761
0.00729881
0.00752522
0.00775433
0.00798408
0.00821286
0.00843941
0.00866275
0.00888215
0.00909703
0.00930698
0.00951167
0.00971083
0.00990426
0.0100918
0.0102733
0.0104486
0.0106175
0.01078
0.0109359
0.0110849
0.011227
0.011362
0.0114895
0.0116095
0.0117216
0.0118256
0.0119212
0.0120082
0.0120862
0.012155
0.0122142
0.0122637
0.0123033
0.0123328
0.0123521
0.0123618
0.0123636
0.0123595
0.0123515
0.0123416
0.012332
0.0123237
0.0123189
0.0123196
0.0123281
0.0123468
0.0123779
0.0124239
0.0124875
0.0125713
0.0126781
0.0128109
0.0129723
0.0131602
0.0133749
0.013621
0.0139023
0.0142218
0.0145818
0.0149838
0.0154287
0.0159166
0.0164469
0.017018
0.0176277
0.0182729
0.0189502
0.0196552
0.0203836
0.0211308
0.0218921
0.0226631
0.0234394
0.0242171
3.98683e-07
1.12604e-05
3.75851e-05
0.000108415
0.00021376
0.000319833
0.000421846
0.000523297
0.000628051
0.000739664
0.000861769
0.000998432
0.00115321
0.00132822
0.00152481
0.00174664
0.00199698
0.00227867
0.00259243
0.00292989
0.00328485
0.00365404
0.00403693
0.00442518
0.00479247
0.00511341
0.00537168
0.00556223
0.00569123
0.00577299
0.00582492
0.00586368
0.00590087
0.00594761
0.00601268
0.00609986
0.00621034
0.00634353
0.00649773
0.00667044
0.00685866
0.00705915
0.00726873
0.00748446
0.00770375
0.00792443
0.00814476
0.00836335
0.0085791
0.00879118
0.00899893
0.00920185
0.00939955
0.0095917
0.00977806
0.0099584
0.0101325
0.0103003
0.0104614
0.0106159
0.0107633
0.0109037
0.0110367
0.0111621
0.0112797
0.0113892
0.0114903
0.0115828
0.0116663
0.0117406
0.0118053
0.0118601
0.011905
0.0119396
0.0119637
0.0119776
0.0119832
0.0119822
0.0119766
0.0119684
0.0119597
0.0119517
0.0119463
0.0119454
0.011951
0.0119654
0.0119908
0.0120296
0.0120843
0.0121576
0.0122523
0.0123715
0.0125184
0.0126933
0.0128943
0.013125
0.01339
0.0136928
0.0140363
0.0144226
0.014853
0.0153283
0.0158483
0.0164119
0.0170172
0.0176616
0.0183414
0.0190525
0.0197905
0.0205504
0.0213273
0.0221163
0.0229128
0.0237124
2.74721e-07
7.69091e-06
2.49344e-05
7.30453e-05
0.000151301
0.000234645
0.000316037
0.000396891
0.000479796
0.000567326
0.000662195
0.000767601
0.000887675
0.00102432
0.00117853
0.00135353
0.00155315
0.00178051
0.00203824
0.00232906
0.00264971
0.00299016
0.00334625
0.00371488
0.00409566
0.00448033
0.00484426
0.00516375
0.00542318
0.00561733
0.00575134
0.0058381
0.00589376
0.00593412
0.00597072
0.00601399
0.00607296
0.00615171
0.00625189
0.0063734
0.00651503
0.00667478
0.00685009
0.00703807
0.00723579
0.00744043
0.00764943
0.00786057
0.00807198
0.00828216
0.0084899
0.00869425
0.00889446
0.00908996
0.00928027
0.00946503
0.00964391
0.00981664
0.00998299
0.0101427
0.0102956
0.0104415
0.01058
0.0107111
0.0108343
0.0109495
0.0110563
0.0111545
0.0112438
0.0113238
0.0113942
0.0114548
0.0115052
0.0115453
0.0115747
0.0115935
0.0116034
0.0116063
0.0116039
0.0115983
0.0115913
0.0115849
0.0115799
0.0115783
0.011582
0.0115932
0.011614
0.0116468
0.0116942
0.0117586
0.011843
0.0119502
0.0120834
0.0122454
0.0124343
0.0126507
0.0129
0.0131864
0.0135133
0.0138834
0.0142985
0.01476
0.0152681
0.0158225
0.0164216
0.0170629
0.0177432
0.0184585
0.0192041
0.019975
0.020766
0.0215718
0.0223875
0.0232082
2.1238e-07
5.87803e-06
1.84006e-05
5.35366e-05
0.000113696
0.000180466
0.0002465
0.000311951
0.000378475
0.000447846
0.000521948
0.000603
0.000693881
0.000798061
0.000916309
0.00105004
0.00120339
0.00137998
0.00158307
0.00181545
0.00207945
0.00237778
0.00270289
0.00304549
0.00340189
0.00376949
0.00414798
0.00452894
0.00488944
0.00520712
0.00546708
0.005664
0.00580218
0.00589325
0.00595227
0.00599418
0.00603034
0.00607083
0.00612465
0.00619607
0.00628706
0.00639794
0.00652794
0.00667547
0.00683835
0.00701403
0.00719984
0.00739315
0.00759148
0.00779261
0.00799463
0.00819593
0.00839521
0.0085914
0.00878367
0.00897134
0.00915387
0.00933081
0.00950178
0.00966646
0.00982454
0.00997575
0.0101198
0.0102565
0.0103854
0.0105064
0.0106191
0.0107231
0.0108183
0.0109042
0.0109806
0.0110472
0.0111036
0.0111496
0.0111847
0.011209
0.011224
0.0112314
0.0112332
0.0112309
0.0112266
0.0112222
0.0112183
0.0112168
0.0112194
0.0112284
0.0112459
0.011274
0.0113154
0.0113724
0.011448
0.011545
0.0116666
0.0118159
0.011993
0.0121968
0.0124314
0.012702
0.0130125
0.0133662
0.0137654
0.0142121
0.0147071
0.0152506
0.0158415
0.0164779
0.0171566
0.0178739
0.0186252
0.0194052
0.0202086
0.0210298
0.0218633
0.0227041
1.83914e-07
5.03791e-06
1.5309e-05
4.38629e-05
9.37315e-05
0.000150004
0.000205683
0.000260394
0.000315297
0.00037168
0.000430838
0.000494234
0.000563722
0.000641547
0.000730521
0.000831578
0.000946089
0.00107814
0.00123149
0.00140966
0.00161581
0.0018527
0.00212266
0.00242615
0.00275336
0.00309697
0.00345289
0.00381896
0.0041948
0.00457178
0.00492851
0.00524381
0.00550344
0.00570212
0.00584344
0.00593799
0.00599982
0.00604314
0.00607892
0.00611725
0.00616679
0.00623192
0.00631481
0.00641613
0.00653548
0.00667162
0.00682273
0.00698654
0.00716064
0.00734258
0.00753001
0.00772077
0.00791295
0.00810491
0.00829524
0.0084828
0.00866665
0.00884603
0.0090203
0.00918893
0.00935149
0.00950756
0.00965679
0.00979884
0.00993337
0.0100601
0.0101786
0.0102886
0.0103898
0.0104818
0.0105644
0.0106372
0.0106999
0.0107523
0.0107937
0.0108241
0.0108448
0.0108575
0.0108639
0.0108657
0.0108645
0.0108622
0.0108603
0.0108598
0.0108624
0.0108703
0.0108853
0.0109099
0.0109462
0.0109967
0.0110644
0.0111523
0.0112636
0.0114015
0.0115681
0.0117613
0.0119831
0.0122389
0.0125335
0.0128706
0.0132536
0.0136847
0.0141655
0.0146965
0.0152775
0.0159069
0.016582
0.0172992
0.018054
0.0188412
0.0196551
0.0204901
0.0213402
0.0221999
0.023064
1.73973e-07
4.72729e-06
1.40749e-05
3.9734e-05
8.47485e-05
0.000135504
0.000185167
0.000233168
0.000280448
0.000328102
0.000377091
0.000428316
0.000482957
0.000542441
0.000608679
0.000684287
0.000770276
0.000867589
0.000979664
0.00111044
0.00126366
0.00144289
0.00165139
0.00189198
0.00216731
0.00247429
0.00280203
0.00314554
0.00350037
0.00386448
0.00423731
0.00460989
0.00496226
0.00527431
0.00553249
0.00573163
0.00587483
0.00597185
0.00603585
0.00608036
0.00611579
0.00615252
0.00619863
0.00625846
0.00633428
0.00642706
0.00653675
0.00666243
0.00680254
0.00695509
0.00711787
0.00728862
0.00746513
0.00764533
0.00782734
0.00800951
0.0081904
0.00836881
0.0085437
0.00871422
0.00887966
0.00903939
0.00919289
0.00933968
0.00947932
0.00961142
0.00973559
0.00985148
0.00995871
0.010057
0.0101459
0.0102252
0.0102946
0.0103539
0.0104023
0.0104392
0.0104661
0.0104843
0.0104957
0.0105018
0.0105043
0.010505
0.0105057
0.010507
0.0105105
0.0105181
0.0105319
0.0105538
0.010586
0.010631
0.0106917
0.0107712
0.0108728
0.0109999
0.011156
0.0113398
0.0115507
0.011794
0.0120745
0.0123962
0.0127627
0.0131775
0.013643
0.0141603
0.0147297
0.0153502
0.0160195
0.0167344
0.0174906
0.0182827
0.0191053
0.0199521
0.020817
0.0216941
0.0225777
1.75264e-07
4.733e-06
1.39156e-05
3.87752e-05
8.2282e-05
0.00013091
0.000177739
0.000222162
0.000264851
0.000306876
0.000349105
0.000392321
0.000437323
0.000485014
0.000536505
0.000593276
0.000657397
0.000730565
0.000813409
0.000907887
0.00101797
0.00114751
0.00130032
0.0014801
0.00169022
0.00193356
0.00221312
0.00252183
0.00284975
0.00319278
0.00354626
0.00390812
0.0042775
0.0046451
0.00499217
0.00529971
0.00555495
0.00575296
0.00589654
0.00599484
0.00606024
0.00610566
0.00614075
0.00617641
0.00621976
0.00627506
0.00634476
0.00643005
0.00653111
0.00664728
0.00677723
0.00691922
0.00707123
0.00723116
0.00739693
0.00756656
0.00773824
0.00791032
0.00808135
0.00825009
0.00841545
0.00857649
0.00873241
0.00888252
0.0090262
0.00916291
0.00929217
0.00941354
0.00952661
0.00963101
0.0097264
0.00981249
0.00988906
0.0099556
0.010011
0.0100546
0.0100877
0.0101118
0.0101285
0.0101395
0.0101463
0.0101506
0.010154
0.010158
0.0101633
0.0101718
0.0101851
0.0102054
0.0102346
0.010275
0.0103298
0.0104019
0.0104947
0.0106118
0.0107568
0.0109311
0.0111324
0.0113642
0.0116321
0.0119402
0.0122916
0.0126901
0.0131394
0.0136419
0.0141982
0.0148079
0.0154694
0.0161798
0.016935
0.01773
0.0185589
0.0194156
0.0202935
0.0211864
0.0220882
1.84694e-07
4.96333e-06
1.44933e-05
3.98692e-05
8.38993e-05
0.000132468
0.00017822
0.000220775
0.00026101
0.00029983
0.000338013
0.000376236
0.000415139
0.000455368
0.000497645
0.000542842
0.000592078
0.000646886
0.00070935
0.00078026
0.000860405
0.000952852
0.00106141
0.00119
0.00134256
0.001523
0.00173493
0.00198146
0.0022638
0.0025724
0.00290011
0.00324217
0.00359388
0.00395298
0.00431832
0.00467999
0.00502039
0.00532177
0.00557218
0.00576713
0.00590931
0.00600753
0.00607342
0.0061193
0.00615387
0.00618871
0.00622992
0.00628152
0.00634601
0.00642476
0.00651816
0.00662575
0.00674642
0.00687862
0.0070205
0.00717011
0.00732549
0.00748474
0.0076461
0.00780795
0.00796885
0.00812751
0.00828281
0.00843376
0.00857949
0.00871925
0.00885241
0.0089784
0.00909672
0.0092069
0.00930873
0.00940158
0.00948499
0.00955848
0.00962074
0.00967104
0.00971049
0.00974064
0.00976312
0.00977937
0.0097909
0.00979927
0.00980615
0.00981329
0.00982107
0.00983104
0.0098449
0.00986444
0.00989158
0.00992866
0.00997856
0.0100443
0.0101293
0.0102369
0.0103711
0.0105354
0.0107279
0.0109487
0.0112046
0.0115001
0.0118383
0.0122217
0.0126545
0.0131411
0.0136829
0.0142802
0.0149319
0.0156356
0.0163876
0.017183
0.0180161
0.0188805
0.0197695
0.0206766
0.021595
0.0225189
2.01239e-07
5.38603e-06
1.56893e-05
4.25625e-05
8.84016e-05
0.000137504
0.000183362
0.000225433
0.000264558
0.000301638
0.000337438
0.000372599
0.000407682
0.000443214
0.000479725
0.000517799
0.000558121
0.000601554
0.000649243
0.000702791
0.000763861
0.000832972
0.000911392
0.00100262
0.0011104
0.00123873
0.0013917
0.00157342
0.00178772
0.00203825
0.00232246
0.00262993
0.00295647
0.00329675
0.00364629
0.00400233
0.0043627
0.00471717
0.00504922
0.00534241
0.00558577
0.0057754
0.00591414
0.00601052
0.00607545
0.00612047
0.00615535
0.00618981
0.00622942
0.00627798
0.00633805
0.00641114
0.00649779
0.00659773
0.00671
0.00683321
0.00696567
0.00710557
0.00725101
0.0074002
0.00755141
0.00770304
0.00785366
0.00800197
0.00814682
0.00828724
0.00842236
0.00855146
0.00867394
0.00878913
0.00889641
0.00899517
0.00908464
0.00916446
0.0092332
0.00928997
0.00933578
0.00937214
0.00940047
0.00942222
0.00943882
0.00945172
0.00946246
0.00947261
0.00948371
0.00949607
0.00951129
0.00953104
0.00955711
0.00959179
0.00963789
0.00969838
0.0097765
0.00987584
0.0100002
0.0101536
0.0103365
0.0105473
0.0107913
0.0110741
0.0113996
0.0117702
0.0121881
0.012658
0.013184
0.0137672
0.0144071
0.0151019
0.0158482
0.0166416
0.0174764
0.0183461
0.0192441
0.0201631
0.0210964
0.0220374
2.24761e-07
5.99652e-06
1.74874e-05
4.6667e-05
9.46066e-05
0.000145212
0.000191841
0.000234025
0.000272694
0.000308811
0.000343169
0.000376409
0.00040906
0.000441587
0.000474426
0.000508013
0.000542822
0.000579397
0.000618412
0.000660735
0.000707546
0.000760518
0.000820744
0.000888756
0.000966511
0.00105752
0.00116554
0.00129462
0.00144898
0.00163279
0.00184985
0.0021042
0.00238875
0.00269604
0.00302157
0.00335992
0.0037068
0.00405901
0.00441318
0.0047589
0.00508066
0.00536334
0.00559713
0.00577892
0.00591194
0.00600463
0.00606782
0.00611156
0.00614669
0.00618086
0.00621907
0.00626502
0.00632132
0.00638953
0.00647029
0.00656344
0.00666817
0.00678322
0.00690702
0.00703785
0.0071739
0.00731343
0.00745474
0.00759628
0.00773664
0.0078746
0.00800903
0.00813904
0.00826363
0.00838197
0.00849301
0.00859617
0.00869076
0.00877621
0.00885085
0.00891368
0.00896555
0.00900791
0.00904207
0.0090694
0.00909127
0.00910897
0.00912399
0.00913781
0.00915204
0.00916735
0.00918463
0.00920541
0.00923135
0.00926451
0.00930775
0.00936394
0.00943623
0.00952815
0.0096435
0.00978637
0.00995945
0.0101607
0.0103927
0.0106625
0.0109747
0.0113323
0.0117373
0.012192
0.0127011
0.0132686
0.0138947
0.0145783
0.0153166
0.0161054
0.0169394
0.017812
0.0187165
0.0196454
0.0205916
0.0215482
2.55259e-07
6.79621e-06
1.99159e-05
5.17387e-05
0.000102541
0.000155077
0.000202718
0.000245226
0.000283702
0.000319214
0.000352611
0.000384555
0.000415571
0.000446096
0.000476513
0.000507183
0.000538465
0.000570746
0.000604466
0.000640157
0.000678494
0.00072037
0.000767018
0.000820085
0.000880232
0.000948116
0.00102633
0.00111833
0.0012279
0.00135917
0.0015165
0.00170431
0.00192675
0.00218414
0.00246839
0.002775
0.00309905
0.00343494
0.00377825
0.00412535
0.00447181
0.004807
0.00511629
0.00538594
0.00560745
0.00577874
0.00590393
0.00599136
0.00605156
0.00609412
0.00612921
0.00616288
0.00619978
0.00624348
0.00629654
0.00636055
0.00643621
0.00652344
0.00662151
0.00672926
0.00684518
0.00696761
0.00709483
0.00722513
0.00735691
0.00748876
0.00761921
0.00774698
0.00787084
0.00798964
0.00810245
0.00820843
0.00830678
0.00839677
0.00847652
0.00854473
0.00860215
0.00865007
0.00868979
0.00872256
0.00874967
0.00877229
0.0087918
0.00880954
0.00882693
0.0088455
0.00886538
0.00888786
0.00891446
0.00894696
0.00898819
0.00904096
0.00910832
0.00919373
0.00930087
0.00943373
0.00959659
0.00978858
0.0100094
0.010266
0.0105641
0.0109077
0.0112992
0.0117401
0.0122333
0.0127837
0.0133942
0.0140645
0.0147923
0.015574
0.0164045
0.0172775
0.018186
0.0191225
0.0200795
0.0210498
2.92468e-07
7.77518e-06
2.29334e-05
5.78272e-05
0.00011201
0.000166651
0.000215325
0.000258165
0.000296504
0.000331542
0.0003642
0.000395172
0.000424995
0.000454096
0.000482833
0.000511523
0.000540462
0.00056995
0.000600303
0.000631883
0.00066512
0.000700549
0.000738869
0.000781023
0.000828336
0.000882189
0.000943069
0.00101201
0.00109195
0.00118634
0.001299
0.00143411
0.00159601
0.00178893
0.00201736
0.00227715
0.00256235
0.00286867
0.00319106
0.00352384
0.00386246
0.00420296
0.00454002
0.00486265
0.00515702
0.00541081
0.00561727
0.00577572
0.00589117
0.00597214
0.00602806
0.00606967
0.00610424
0.0061371
0.00617263
0.0062143
0.00626462
0.00632514
0.00639656
0.00647878
0.0065711
0.00667238
0.00678118
0.00689591
0.00701488
0.00713644
0.00725901
0.00738091
0.0075008
0.00761743
0.00772966
0.00783643
0.00793679
0.00802982
0.00811342
0.00818603
0.00824819
0.00830109
0.00834589
0.00838375
0.00841584
0.00844331
0.00846734
0.00848915
0.00850999
0.00853119
0.00855416
0.0085789
0.00860678
0.00863939
0.00867939
0.00872957
0.00879286
0.00887254
0.00897232
0.00909619
0.00924849
0.00943092
0.00964143
0.00988496
0.0101685
0.0104969
0.0108735
0.0113003
0.0117783
0.0123115
0.0129048
0.0135597
0.0142747
0.0150466
0.0158709
0.0167415
0.0176515
0.0185932
0.0195589
0.0205409
3.36443e-07
8.93065e-06
2.65036e-05
6.49382e-05
0.000122806
0.000179547
0.000229147
0.000272223
0.000310383
0.00034497
0.000376982
0.000407151
0.00043603
0.000464047
0.000491548
0.000518827
0.000546145
0.00057375
0.000601888
0.000630825
0.00066086
0.000692345
0.000725718
0.000761538
0.000800547
0.000843758
0.000892609
0.000948073
0.00101063
0.00108191
0.00116499
0.00126331
0.00138076
0.00152154
0.00169009
0.00189076
0.00212503
0.00238697
0.00267318
0.00297907
0.00329927
0.00362801
0.00396056
0.00429273
0.00461838
0.00492605
0.00520278
0.00543786
0.00562669
0.00577021
0.00587411
0.00594736
0.00599976
0.00603971
0.00607298
0.00610458
0.00613873
0.00617874
0.00622699
0.00628488
0.00635296
0.00643108
0.00651851
0.00661409
0.00671636
0.00682364
0.00693433
0.00704678
0.00715947
0.00727097
0.00737991
0.00748507
0.00758529
0.0076795
0.00776535
0.00784102
0.00790685
0.00796383
0.00801299
0.00805536
0.00809201
0.00812398
0.00815235
0.00817818
0.00820259
0.00822676
0.00825196
0.00827932
0.00830898
0.00834237
0.00838172
0.00842993
0.00848983
0.00856453
0.0086576
0.00877298
0.00891488
0.00908752
0.00928878
0.00951961
0.00978831
0.0101006
0.0104608
0.0108716
0.0113345
0.0118507
0.0124254
0.0130629
0.0137627
0.0145224
0.0153379
0.0162034
0.0171121
0.0180565
0.0190285
0.0200201
3.87651e-07
1.02723e-05
3.0626e-05
7.30033e-05
0.000134702
0.000193416
0.000243767
0.000286947
0.000324852
0.000358971
0.000390375
0.000419835
0.000447921
0.000475066
0.000501614
0.000527844
0.000553998
0.000580293
0.000606935
0.00063413
0.000662102
0.000691101
0.000721423
0.000753432
0.000787589
0.000824495
0.000864959
0.000910093
0.000961352
0.00101937
0.00108474
0.00115975
0.00124748
0.00135143
0.00147548
0.00162377
0.00180042
0.00200988
0.00224927
0.00251459
0.0028022
0.00310742
0.00342462
0.00374805
0.00407284
0.00439484
0.00470672
0.00499664
0.00525252
0.00546621
0.00563506
0.00576187
0.0058537
0.00591941
0.00596787
0.00600502
0.00603634
0.00606662
0.00609981
0.0061389
0.00618591
0.00624201
0.00630753
0.00638215
0.00646503
0.00655497
0.00665055
0.00675024
0.00685246
0.00695569
0.00705843
0.0071593
0.00725697
0.00735016
0.00743636
0.00751346
0.00758157
0.00764147
0.00769399
0.00774004
0.00778056
0.00781648
0.00784875
0.00787831
0.00790616
0.00793331
0.00796084
0.00798995
0.00802168
0.00805631
0.00809559
0.00814233
0.00819935
0.00826969
0.00835678
0.00846447
0.00859696
0.00875874
0.00895003
0.0091694
0.00942357
0.00971936
0.0100618
0.0104546
0.0109
0.0113992
0.0119553
0.0125735
0.0132559
0.0140007
0.0148045
0.0156621
0.0165669
0.0175113
0.0184872
0.0194862
4.46626e-07
1.18143e-05
3.52974e-05
8.19326e-05
0.000147458
0.000207941
0.00025885
0.000301999
0.000339574
0.000373203
0.000404022
0.000432837
0.000460235
0.000486657
0.000512444
0.000537873
0.000563171
0.000588537
0.000614151
0.000640186
0.000666817
0.000694232
0.000722647
0.000752312
0.000783538
0.000816712
0.000852339
0.000891084
0.00093385
0.000981898
0.00103644
0.00109798
0.00116755
0.00124779
0.00134184
0.00145322
0.00158578
0.00174367
0.00193095
0.00214878
0.00239329
0.00266188
0.0029505
0.00325422
0.00356704
0.00388367
0.00419913
0.00450895
0.00480393
0.00507268
0.00530459
0.00549418
0.00564136
0.00575084
0.00583051
0.00588902
0.0059324
0.0059664
0.00599609
0.00602574
0.00605871
0.00609751
0.0061438
0.00619841
0.00626151
0.00633266
0.00641098
0.0064953
0.00658423
0.00667629
0.00676998
0.00686382
0.00695636
0.00704617
0.00713056
0.00720722
0.00727597
0.00733735
0.007392
0.00744061
0.00748409
0.00752316
0.00755865
0.00759141
0.00762228
0.00765217
0.00768198
0.00771274
0.00774554
0.00778158
0.00782133
0.007867
0.00792157
0.00798802
0.00806966
0.0081702
0.00829375
0.00844476
0.00862588
0.00883456
0.00907446
0.0093535
0.00967741
0.0100506
0.0104764
0.0109565
0.0114927
0.0120901
0.012753