/*--------------------------------*- C++ -*----------------------------------*\
  =========                 |
  \\      /  F ield         | OpenFOAM: The Open Source CFD Toolbox
   \\    /   O peration     | Website:  https://openfoam.org
    \\  /    A nd           | Version:  10
     \\/     M anipulation  |
\*---------------------------------------------------------------------------*/
FoamFile
{
    format      ascii;
    class       volScalarField;
    location    "20000";
    object      nut;
}
// * * * * * * * * * * * * * * * * * * * * * * * * * * * * * * * * * * * * * //

dimensions      [0 2 -1 0 0 0 0];

internalField   nonuniform List<scalar> 
17969
(
3.43939e-09
3.25334e-07
1.99006e-06
4.49772e-06
6.59149e-06
7.53064e-06
8.31543e-06
9.57668e-06
1.18662e-05
1.57749e-05
1.97568e-05
2.42104e-05
2.99567e-05
3.71319e-05
4.57928e-05
5.59269e-05
6.74664e-05
8.03081e-05
9.43313e-05
0.000109411
0.000125429
0.000142273
0.000159846
0.000178062
0.000196849
0.000216144
0.000235897
0.000256067
0.000276618
0.000297527
0.00031877
0.000340335
0.000362208
0.000384381
0.00040685
0.000429609
0.000452656
0.00047599
0.000499606
0.000523502
0.000547674
0.000572116
0.000596821
0.000621778
0.000646974
0.000672395
0.00069802
0.000723827
0.00074979
0.000775877
0.000802053
0.00082828
0.000854512
0.0008807
0.000906791
0.000932726
0.000958441
0.000983868
0.00100893
0.00103356
0.00105766
0.00108115
0.00110394
0.00112593
0.00114703
0.00116713
0.00118613
0.00120391
0.00122036
0.00123538
0.00124884
0.00126061
0.00127058
0.00127859
0.00128441
0.0012879
0.00128917
0.00128836
0.00128559
0.00128089
0.00127435
0.00126601
0.00125591
0.00124408
0.00123055
0.00121538
0.00119868
0.00118065
0.00116157
0.00114327
0.00112763
0.00111468
0.00110404
0.00109535
0.00108836
0.0010829
0.00107887
0.00107623
0.00107006
0.00106196
2.54647e-09
2.47272e-07
1.75971e-06
4.52779e-06
7.01695e-06
8.84198e-06
9.39316e-06
9.8892e-06
1.08569e-05
1.26868e-05
1.59116e-05
2.0916e-05
2.47465e-05
2.96611e-05
3.58446e-05
4.34081e-05
5.23987e-05
6.28093e-05
7.45863e-05
8.76435e-05
0.000101876
0.000117172
0.000133419
0.000150513
0.000168358
0.000186869
0.000205971
0.000225602
0.000245708
0.000266244
0.000287174
0.000308469
0.000330105
0.000352063
0.000374329
0.000396891
0.00041974
0.000442869
0.000466272
0.000489941
0.000513872
0.000538056
0.000562486
0.00058715
0.000612038
0.000637132
0.000662417
0.00068787
0.000713466
0.000739177
0.000764971
0.00079081
0.000816652
0.000842452
0.000868158
0.000893716
0.000919063
0.000944134
0.00096886
0.000993165
0.00101697
0.00104019
0.00106273
0.00108451
0.00110543
0.00112539
0.00114428
0.001162
0.00117844
0.00119348
0.00120702
0.00121894
0.0012291
0.00123738
0.00124354
0.00124745
0.0012492
0.00124894
0.00124678
0.00124274
0.00123689
0.00122925
0.00121985
0.00120868
0.00119574
0.00118107
0.00116473
0.00114688
0.00112781
0.0011091
0.00109282
0.00107925
0.00106793
0.00105851
0.0010507
0.00104436
0.00103942
0.00103586
0.00102784
0.00101875
1.9102e-09
1.8849e-07
1.49117e-06
4.40213e-06
7.41091e-06
9.67104e-06
1.1297e-05
1.15754e-05
1.1717e-05
1.22966e-05
1.36349e-05
1.60947e-05
2.01628e-05
2.54885e-05
2.96301e-05
3.48425e-05
4.1292e-05
4.90807e-05
5.82545e-05
6.88134e-05
8.07176e-05
9.38961e-05
0.000108257
0.0001237
0.000140118
0.000157412
0.000175486
0.000194255
0.000213642
0.00023358
0.000254014
0.000274894
0.000296181
0.00031784
0.000339845
0.000362173
0.000384805
0.000407726
0.000430923
0.000454385
0.000478101
0.00050206
0.000526253
0.000550668
0.000575291
0.000600107
0.000625099
0.000650246
0.000675526
0.000700912
0.000726371
0.000751871
0.000777372
0.00080283
0.000828197
0.000853421
0.000878444
0.000903203
0.000927632
0.000951658
0.000975205
0.00099819
0.00102053
0.00104213
0.00106291
0.00108275
0.00110157
0.00111926
0.00113571
0.00115082
0.00116446
0.00117653
0.00118691
0.00119547
0.00120199
0.00120632
0.00120856
0.00120886
0.00120733
0.00120397
0.00119886
0.00119199
0.00118338
0.00117301
0.00116085
0.0011469
0.00113119
0.00111386
0.00109514
0.00107622
0.00105931
0.00104516
0.00103323
0.00102311
0.00101454
0.00100736
0.00100154
0.000997071
0.000989281
0.000980156
1.4629e-09
1.46308e-07
1.25048e-06
4.17826e-06
7.61142e-06
1.04988e-05
1.25383e-05
1.39676e-05
1.41907e-05
1.39425e-05
1.4064e-05
1.48626e-05
1.65888e-05
1.95933e-05
2.43433e-05
3.00312e-05
3.43754e-05
3.97621e-05
4.63513e-05
5.42466e-05
6.34978e-05
7.41118e-05
8.60605e-05
9.92863e-05
0.00011371
0.000129238
0.000145774
0.000163217
0.000181475
0.00020046
0.000220093
0.000240304
0.000261033
0.000282225
0.000303836
0.000325829
0.00034817
0.000370833
0.000393795
0.000417036
0.000440538
0.000464286
0.000488265
0.000512459
0.000536853
0.00056143
0.000586174
0.000611062
0.000636073
0.000661181
0.000686356
0.000711565
0.000736773
0.000761936
0.000787012
0.000811949
0.000836692
0.000861183
0.000885357
0.000909145
0.000932474
0.000955265
0.000977435
0.000998897
0.00101956
0.00103933
0.00105811
0.0010758
0.00109229
0.00110747
0.00112125
0.0011335
0.00114411
0.00115296
0.00115983
0.00116458
0.00116731
0.00116816
0.00116725
0.00116459
0.00116022
0.00115417
0.00114642
0.00113694
0.00112569
0.00111263
0.00109779
0.00108126
0.00106327
0.00104437
0.00102695
0.0010123
0.000999834
0.000989114
0.000979848
0.000971902
0.000965252
0.000959926
0.000953246
0.000944806
0.000937968
0.000934138
0.000933982
0.000937898
1.12257e-09
1.13843e-07
1.04621e-06
3.84019e-06
7.58053e-06
1.10443e-05
1.37758e-05
1.56628e-05
1.69323e-05
1.73811e-05
1.67255e-05
1.63085e-05
1.65215e-05
1.75476e-05
1.96123e-05
2.30614e-05
2.83485e-05
3.45397e-05
3.90073e-05
4.44811e-05
5.11193e-05
5.90332e-05
6.82828e-05
7.8883e-05
9.08141e-05
0.000104029
0.00011846
0.000134023
0.000150624
0.000168169
0.000186564
0.000205721
0.000225557
0.000245998
0.00026698
0.000288443
0.000310338
0.000332622
0.000355258
0.000378212
0.000401457
0.000424968
0.000448723
0.000472701
0.000496881
0.000521243
0.000545768
0.000570433
0.000595215
0.000620087
0.000645021
0.000669986
0.000694947
0.000719863
0.000744693
0.000769388
0.000793897
0.000818163
0.000842124
0.000865716
0.000888866
0.000911501
0.000933538
0.000954895
0.000975483
0.00099521
0.00101398
0.00103169
0.00104825
0.00106354
0.00107746
0.0010899
0.00110076
0.00110991
0.00111714
0.0011223
0.0011255
0.00112689
0.00112657
0.00112461
0.001121
0.00111578
0.00110892
0.00110039
0.00109013
0.00107809
0.00106427
0.00104872
0.00103164
0.00101332
0.000995738
0.000980608
0.000967685
0.000956453
0.000946589
0.000937959
0.000930557
0.000924437
0.000919143
0.000911652
0.000905377
0.000901681
0.000901168
0.000904116
8.45241e-10
8.69409e-08
8.57453e-07
3.45826e-06
7.3424e-06
1.12787e-05
1.46623e-05
1.72753e-05
1.90742e-05
2.02187e-05
2.1032e-05
2.01496e-05
1.91786e-05
1.87607e-05
1.90893e-05
2.03124e-05
2.26576e-05
2.64626e-05
3.2177e-05
3.90342e-05
4.35731e-05
4.90776e-05
5.5705e-05
6.35751e-05
7.27626e-05
8.32952e-05
9.51615e-05
0.000108322
0.000122717
0.000138269
0.000154891
0.000172491
0.000190976
0.000210257
0.000230248
0.000250872
0.000272058
0.000293744
0.000315874
0.000338399
0.000361275
0.000384466
0.000407938
0.00043166
0.000455604
0.000479745
0.000504056
0.000528511
0.000553086
0.000577752
0.000602479
0.000627237
0.00065199
0.0006767
0.000701326
0.000725822
0.000750138
0.000774221
0.000798012
0.000821447
0.000844458
0.000866973
0.000888915
0.000910202
0.000930747
0.000950461
0.000969251
0.000987018
0.00100366
0.00101908
0.00103318
0.00104583
0.00105694
0.0010664
0.00107399
0.00107956
0.00108322
0.00108512
0.00108538
0.0010841
0.00108124
0.00107684
0.00107088
0.00106333
0.00105412
0.00104319
0.00103052
0.00101613
0.00100017
0.000982901
0.00096547
0.000949897
0.000936629
0.000924997
0.000914648
0.000905437
0.00089737
0.000890524
0.000884996
0.000880042
0.000874892
0.00087161
0.000871094
0.000873986
6.13033e-10
6.39401e-08
6.75641e-07
3.01919e-06
6.88645e-06
1.11547e-05
1.50918e-05
1.83923e-05
2.09393e-05
2.27177e-05
2.37947e-05
2.44722e-05
2.41171e-05
2.27601e-05
2.1704e-05
2.13254e-05
2.17608e-05
2.31486e-05
2.57268e-05
2.98256e-05
3.5898e-05
4.35451e-05
4.81256e-05
5.36303e-05
6.02141e-05
6.80025e-05
7.70846e-05
8.75057e-05
9.92676e-05
0.000112338
0.000126661
0.000142165
0.000158767
0.000176379
0.000194909
0.000214265
0.000234361
0.000255115
0.000276452
0.000298304
0.000320611
0.000343317
0.000366374
0.000389738
0.00041337
0.000437233
0.000461294
0.000485521
0.000509882
0.000534345
0.000558878
0.000583448
0.000608019
0.000632553
0.000657008
0.00068134
0.000705501
0.000729438
0.000753095
0.000776411
0.00079932
0.000821752
0.000843632
0.000864882
0.000885417
0.00090515
0.00092399
0.00094184
0.000958602
0.000974177
0.00098846
0.00100135
0.00101273
0.00102251
0.00103046
0.00103643
0.00104055
0.00104295
0.00104379
0.00104315
0.00104102
0.00103742
0.00103236
0.00102579
0.00101766
0.0010079
0.000996472
0.000983387
0.000968753
0.000952795
0.000935858
0.000920046
0.000906547
0.000894637
0.000883925
0.00087424
0.000865598
0.000858099
0.000851863
0.000847002
0.000843599
0.000841705
0.000841335
0.000842468
0.000845053
4.24715e-10
4.48434e-08
5.04378e-07
2.52001e-06
6.22976e-06
1.0628e-05
1.49584e-05
1.88113e-05
2.20098e-05
2.44897e-05
2.62506e-05
2.73247e-05
2.79298e-05
2.83358e-05
2.69219e-05
2.53999e-05
2.43511e-05
2.40144e-05
2.45333e-05
2.60568e-05
2.88358e-05
3.31896e-05
3.95752e-05
4.81039e-05
5.2714e-05
5.82082e-05
6.47375e-05
7.24292e-05
8.1382e-05
9.1659e-05
0.00010328
0.000116225
0.000130443
0.000145866
0.000162413
0.000179996
0.000198525
0.000217908
0.000238056
0.000258884
0.000280313
0.000302271
0.000324691
0.000347513
0.000370681
0.000394147
0.000417865
0.000441791
0.000465888
0.000490115
0.000514434
0.000538809
0.0005632
0.000587568
0.000611868
0.000636058
0.000660088
0.000683907
0.000707461
0.000730688
0.000753527
0.000775907
0.000797758
0.000819002
0.000839558
0.000859339
0.000878256
0.000896216
0.000913122
0.000928874
0.000943372
0.000956511
0.000968187
0.000978298
0.000986618
0.000993004
0.000997564
0.00100047
0.00100185
0.00100184
0.00100041
0.000997604
0.000993421
0.000987836
0.000980795
0.000972233
0.000962095
0.000950369
0.000937113
0.000922481
0.000906723
0.000891202
0.000877425
0.000865318
0.000854335
0.000844276
0.000835149
0.00082707
0.000820182
0.00081462
0.000810492
0.00080787
0.000806786
0.000807237
0.000809185
0.000812568
0.0008173
2.81642e-10
3.00078e-08
3.5434e-07
1.98511e-06
5.37394e-06
9.68453e-06
1.41737e-05
1.83654e-05
2.20087e-05
2.49985e-05
2.73024e-05
2.89275e-05
2.99362e-05
3.05656e-05
3.11333e-05
3.11766e-05
2.96725e-05
2.81384e-05
2.7095e-05
2.67883e-05
2.73797e-05
2.90238e-05
3.19847e-05
3.65831e-05
4.32267e-05
5.20901e-05
5.73724e-05
6.28602e-05
6.93397e-05
7.69377e-05
8.57571e-05
9.58729e-05
0.000107324
0.000120108
0.000134186
0.000149492
0.000165948
0.000183464
0.000201949
0.000221311
0.000241458
0.000262304
0.000283765
0.000305765
0.00032823
0.000351096
0.000374302
0.000397791
0.000421513
0.000445417
0.000469458
0.000493591
0.00051777
0.000541951
0.000566089
0.000590136
0.000614042
0.000637756
0.000661222
0.000684382
0.000707172
0.000729525
0.000751372
0.000772636
0.000793237
0.000813093
0.000832114
0.000850209
0.000867282
0.000883236
0.00089797
0.000911382
0.000923369
0.000933829
0.000942534
0.000949336
0.000954345
0.000957734
0.000959657
0.000960241
0.000959508
0.000957476
0.000954164
0.000949559
0.000943617
0.000936277
0.000927478
0.000917186
0.000905424
0.000892296
0.000877998
0.00086299
0.000849045
0.000836862
0.000825721
0.000815402
0.000805898
0.000797333
0.00078987
0.000783668
0.000778859
0.00077554
0.000773766
0.000773553
0.000774882
0.000777698
0.000781925
0.000787465
1.79699e-10
1.9255e-08
2.34299e-07
1.46084e-06
4.37408e-06
8.38443e-06
1.27653e-05
1.70383e-05
2.09098e-05
2.4201e-05
2.68506e-05
2.88435e-05
3.02086e-05
3.11484e-05
3.19964e-05
3.28509e-05
3.37232e-05
3.3932e-05
3.24459e-05
3.09173e-05
2.98847e-05
2.96112e-05
3.02766e-05
3.20441e-05
3.51829e-05
3.99988e-05
4.68552e-05
5.59364e-05
6.21221e-05
6.76157e-05
7.40591e-05
8.15773e-05
9.02733e-05
0.000100228
0.000111494
0.000124086
0.000137985
0.000153135
0.000169459
0.000186868
0.000205267
0.000224562
0.000244658
0.000265466
0.000286898
0.000308873
0.000331314
0.00035415
0.000377314
0.000400744
0.000424381
0.000448171
0.00047206
0.000495995
0.000519925
0.000543798
0.00056756
0.000591158
0.000614534
0.000637629
0.000660379
0.000682717
0.000704574
0.000725875
0.000746542
0.000766491
0.000785636
0.000803887
0.000821149
0.000837326
0.000852318
0.000866023
0.000878339
0.000889166
0.000898271
0.000905501
0.000910964
0.00091484
0.000917289
0.000918446
0.000918413
0.000917154
0.000914709
0.000911083
0.000906246
0.000900144
0.000892714
0.000883901
0.000873686
0.000862101
0.000849271
0.000835355
0.000821621
0.000809217
0.00079793
0.000787436
0.000777677
0.000768753
0.000760829
0.000754081
0.000748664
0.000744702
0.000742274
0.000741421
0.000742139
0.000744391
0.000748106
0.000753191
0.000759536
0.000767022
1.12314e-10
1.20485e-08
1.47714e-07
1.00369e-06
3.33794e-06
6.85567e-06
1.09128e-05
1.50271e-05
1.88898e-05
2.23099e-05
2.51584e-05
2.73831e-05
2.89897e-05
3.01565e-05
3.12433e-05
3.2373e-05
3.3573e-05
3.48264e-05
3.60899e-05
3.66248e-05
3.52005e-05
3.36996e-05
3.26983e-05
3.24775e-05
3.32328e-05
3.51326e-05
3.84434e-05
4.3463e-05
5.05254e-05
5.98322e-05
6.69758e-05
7.24903e-05
7.89147e-05
8.63718e-05
9.49626e-05
0.000104769
0.00011585
0.000128236
0.000141923
0.000156873
0.000173019
0.000190273
0.00020854
0.00022772
0.000247714
0.000268428
0.000289771
0.000311656
0.000334002
0.000356731
0.000379771
0.000403055
0.000426516
0.000450092
0.000473724
0.00049735
0.000520913
0.000544353
0.000567608
0.000590617
0.000613314
0.000635631
0.000657499
0.000678841
0.000699579
0.000719632
0.000738914
0.000757335
0.000774801
0.000791217
0.000806484
0.0008205
0.000833165
0.000844377
0.0008539
0.000861572
0.000867504
0.000871879
0.000874868
0.00087662
0.000877266
0.000876773
0.000875193
0.000872546
0.000868819
0.000863972
0.000857935
0.000850652
0.000842033
0.000832022
0.000820665
0.000808068
0.000794658
0.000781987
0.000770689
0.00076019
0.00075035
0.000741225
0.000732976
0.000725794
0.00071986
0.000715322
0.000712289
0.000710826
0.000710953
0.000712646
0.000715848
0.000720472
0.000726411
0.000733543
0.00074174
0.000750872
0.000760814
0.000771444
7.16753e-11
7.65095e-09
9.22242e-08
6.60027e-07
2.41226e-06
5.31856e-06
8.88353e-06
1.26681e-05
1.63639e-05
1.97574e-05
2.27007e-05
2.50923e-05
2.68746e-05
2.81857e-05
2.94133e-05
3.07015e-05
3.2095e-05
3.36031e-05
3.52043e-05
3.68473e-05
3.84816e-05
3.92726e-05
3.79288e-05
3.64882e-05
3.55504e-05
3.54108e-05
3.62751e-05
3.83178e-05
4.18056e-05
4.70387e-05
5.43321e-05
6.38982e-05
7.19403e-05
7.74907e-05
8.39137e-05
9.13297e-05
9.98365e-05
0.000109514
0.000120425
0.000132604
0.000146063
0.000160778
0.000176698
0.000193744
0.000211822
0.000230832
0.000250668
0.000271231
0.000292422
0.00031415
0.000336328
0.000358873
0.000381705
0.00040475
0.000427937
0.000451195
0.000474457
0.000497656
0.000520724
0.000543595
0.000566199
0.000588465
0.000610321
0.000631689
0.000652492
0.000672645
0.000692064
0.000710658
0.000728335
0.000744999
0.000760551
0.000774892
0.000787921
0.000799538
0.000809497
0.000817633
0.000824055
0.00082895
0.000832495
0.000834852
0.000836169
0.00083646
0.00083576
0.000834096
0.000831467
0.000827824
0.000823094
0.000817194
0.000810027
0.000801519
0.00079164
0.000780417
0.000767962
0.000755485
0.00074412
0.000733692
0.000723891
0.000714698
0.000706253
0.000698751
0.000692393
0.000687355
0.000683774
0.00068174
0.000681299
0.000682446
0.000685139
0.000689301
0.000694828
0.000701602
0.000709492
0.000718364
0.000728087
0.000738534
4.93899e-11
5.21759e-09
6.06324e-08
4.39754e-07
1.71435e-06
4.01271e-06
7.00873e-06
1.03514e-05
1.37704e-05
1.70553e-05
2.00361e-05
2.25748e-05
2.45618e-05
2.6004e-05
2.72597e-05
2.85667e-05
2.99882e-05
3.15523e-05
3.32625e-05
3.51101e-05
3.70543e-05
3.90296e-05
4.09872e-05
4.18907e-05
4.06446e-05
3.9303e-05
3.84665e-05
3.84393e-05
3.94353e-05
4.16395e-05
4.53257e-05
5.08048e-05
5.83795e-05
6.82572e-05
7.70183e-05
8.26183e-05
8.90568e-05
9.64512e-05
0.000104896
0.000114468
0.000125228
0.000137215
0.000150445
0.000164908
0.000180563
0.000197348
0.000215177
0.00023395
0.000253562
0.000273906
0.000294877
0.000316376
0.000338309
0.000360586
0.000383121
0.000405832
0.00042864
0.000451468
0.00047424
0.000496882
0.000519318
0.000541472
0.000563267
0.000584624
0.00060546
0.000625692
0.000645232
0.000663989
0.000681871
0.000698782
0.000714625
0.000729299
0.000742705
0.000754743
0.000765164
0.000773791
0.000780734
0.000786184
0.000790316
0.000793293
0.000795276
0.000796378
0.000796526
0.000795771
0.000794122
0.000791548
0.000788004
0.000783407
0.000777657
0.00077065
0.000762301
0.000752571
0.000741514
0.00072953
0.00071811
0.000707857
0.000698218
0.000689095
0.000680584
0.00067288
0.000666198
0.000660741
0.000656672
0.000654112
0.000653131
0.000653747
0.000655935
0.00065963
0.000664738
0.00067114
0.000678706
0.000687301
0.000696786
0.000707032
3.81823e-11
3.98543e-09
4.43288e-08
3.16786e-07
1.26864e-06
3.077e-06
5.54331e-06
8.41516e-06
1.14884e-05
1.45904e-05
1.75615e-05
2.02493e-05
2.25104e-05
2.42245e-05
2.54893e-05
2.67102e-05
2.8011e-05
2.94524e-05
3.10604e-05
3.28433e-05
3.47979e-05
3.69132e-05
3.91322e-05
4.13847e-05
4.3623e-05
4.45031e-05
4.33782e-05
4.21759e-05
4.14776e-05
4.1595e-05
4.27511e-05
4.51471e-05
4.90709e-05
5.48497e-05
6.27766e-05
7.3031e-05
8.22103e-05
8.78723e-05
9.43418e-05
0.000101733
0.000110137
0.000119627
0.00013026
0.000142076
0.00015509
0.000169299
0.000184673
0.000201158
0.000218681
0.000237149
0.000256459
0.000276503
0.000297171
0.000318356
0.000339956
0.000361873
0.000384011
0.000406282
0.000428598
0.000450874
0.000473026
0.00049497
0.000516623
0.0005379
0.000558714
0.000578979
0.000598604
0.000617498
0.000635566
0.000652712
0.00066884
0.00068385
0.000697645
0.000710128
0.00072104
0.0007302
0.000737707
0.000743767
0.000748539
0.000752171
0.000754816
0.000756623
0.000757526
0.00075758
0.000756816
0.000755234
0.000752795
0.00074943
0.000745037
0.000739055
0.000729323
0.000720251
0.00071189
0.000703441
0.000692837
0.000682715
0.000673304
0.000664352
0.000655891
0.000648098
0.000641195
0.000635404
0.000630916
0.000627879
0.00062639
0.000626494
0.000628184
0.000631412
0.00063609
0.000642108
0.000649336
0.000657635
0.000666867
0.000676893
3.30651e-11
3.41763e-09
3.65574e-08
2.54773e-07
1.02086e-06
2.50302e-06
4.56659e-06
7.02993e-06
9.75185e-06
1.26131e-05
1.54936e-05
1.82632e-05
2.07816e-05
2.28953e-05
2.44774e-05
2.56377e-05
2.67659e-05
2.79727e-05
2.93224e-05
3.08509e-05
3.25781e-05
3.4512e-05
3.66513e-05
3.89763e-05
4.14174e-05
4.3905e-05
4.63909e-05
4.7162e-05
4.61812e-05
4.51513e-05
4.46227e-05
4.4917e-05
4.6268e-05
4.88985e-05
5.31185e-05
5.92698e-05
6.76365e-05
7.83403e-05
8.75161e-05
9.32514e-05
9.9767e-05
0.000107173
0.000115555
0.000124985
0.000135516
0.000147183
0.000160003
0.000173971
0.000189062
0.000205229
0.000222406
0.000240511
0.000259445
0.000279103
0.000299373
0.000320144
0.000341306
0.000362753
0.000384381
0.000406091
0.000427788
0.000449375
0.000470761
0.000491853
0.000512557
0.000532782
0.000552434
0.000571417
0.000589635
0.000606993
0.000623393
0.000638739
0.000652938
0.000665893
0.000677336
0.000687092
0.000695224
0.000701895
0.000707283
0.000711544
0.0007148
0.0007172
0.000718835
0.000719662
0.000719734
0.00071907
0.000717652
0.000715424
0.000712299
0.000703464
0.000693494
0.000684269
0.000675839
0.000668272
0.000661208
0.00065399
0.000646647
0.000639513
0.000632063
0.0006243
0.000617285
0.000611254
0.000606423
0.000602966
0.000601009
0.000600625
0.000601828
0.000604589
0.000608832
0.000614453
0.000621326
0.000629312
0.000638268
0.000648053
0.000658533
3.12781e-11
3.21227e-09
3.33362e-08
2.26703e-07
8.99175e-07
2.19689e-06
4.00604e-06
6.18053e-06
8.61656e-06
1.12386e-05
1.39683e-05
1.67101e-05
1.93602e-05
2.17937e-05
2.38697e-05
2.54447e-05
2.65458e-05
2.75408e-05
2.85914e-05
2.97645e-05
3.11104e-05
3.26647e-05
3.44516e-05
3.64833e-05
3.8763e-05
4.12565e-05
4.38844e-05
4.65787e-05
4.92897e-05
4.99181e-05
4.91035e-05
4.82733e-05
4.7943e-05
4.84489e-05
5.00384e-05
5.29609e-05
5.75553e-05
6.41702e-05
7.30765e-05
8.43035e-05
9.29378e-05
9.87569e-05
0.000105333
0.000112769
0.000121149
0.000130539
0.00014099
0.000152533
0.000165181
0.000178928
0.000193747
0.000209594
0.000226408
0.000244111
0.00026261
0.000281804
0.000301584
0.000321835
0.000342444
0.000363298
0.000384285
0.000405297
0.000426229
0.000446977
0.000467438
0.000487511
0.000507097
0.000526096
0.000544409
0.000561938
0.000578589
0.000594268
0.000608885
0.000622355
0.000634375
0.000644706
0.000653438
0.000660707
0.00066668
0.000671523
0.000675372
0.000678375
0.000680681
0.00068223
0.00068308
0.000683262
0.000682775
0.000681581
0.000679057
0.00066924
0.000659451
0.000650282
0.000641646
0.000633894
0.000627211
0.00062115
0.000615344
0.00061003
0.000605303
0.000600661
0.000594371
0.000588201
0.000583109
0.000579296
0.000576919
0.000576075
0.000576808
0.000579106
0.000582909
0.000588124
0.000594628
0.000602285
0.00061095
0.000620477
0.000630729
3.15107e-11
3.2251e-09
3.27115e-08
2.17622e-07
8.51636e-07
2.06173e-06
3.73594e-06
5.74477e-06
7.99147e-06
1.0424e-05
1.29945e-05
1.56485e-05
1.8318e-05
2.09161e-05
2.33346e-05
2.54438e-05
2.70979e-05
2.82328e-05
2.90809e-05
2.99466e-05
3.08964e-05
3.19922e-05
3.32853e-05
3.48181e-05
3.66216e-05
3.8714e-05
4.1103e-05
4.37362e-05
4.65287e-05
4.94114e-05
5.23333e-05
5.28175e-05
5.21894e-05
5.15856e-05
5.1487e-05
5.22434e-05
5.41229e-05
5.7409e-05
6.24774e-05
6.96633e-05
7.92129e-05
9.10234e-05
9.8481e-05
0.000104393
0.000111042
0.000118523
0.000126917
0.000136287
0.000146678
0.00015812
0.000170619
0.000184165
0.000198729
0.000214266
0.000230714
0.000247997
0.000266026
0.0002847
0.000303913
0.000323552
0.000343499
0.000363638
0.000383851
0.000404024
0.000424043
0.000443797
0.000463177
0.000482078
0.000500396
0.000518031
0.000534891
0.000550879
0.000565917
0.000579857
0.000592398
0.000603261
0.000612527
0.000620352
0.000626906
0.000632323
0.000636749
0.000640331
0.000643217
0.000645472
0.000647056
0.000648021
0.000648382
0.00064812
0.000645346
0.000636179
0.000626967
0.00061818
0.000609767
0.000602036
0.000595273
0.000589437
0.000584172
0.000579614
0.000576122
0.000573677
0.00057129
0.000566169
0.000560904
0.000556805
0.000554056
0.000552787
0.000553067
0.000554907
0.000558268
0.000563065
0.000569186
0.000576495
0.000584848
0.000594097
0.000604101
3.32064e-11
3.39511e-09
3.38349e-08
2.20526e-07
8.49637e-07
2.03327e-06
3.64492e-06
5.56464e-06
7.71539e-06
1.00467e-05
1.25196e-05
1.50966e-05
1.77353e-05
2.03819e-05
2.2967e-05
2.54011e-05
2.75723e-05
2.93476e-05
3.05965e-05
3.1373e-05
3.20453e-05
3.27644e-05
3.35863e-05
3.45722e-05
3.5781e-05
3.72644e-05
3.90621e-05
4.11994e-05
4.36785e-05
4.6432e-05
4.93738e-05
5.24319e-05
5.55536e-05
5.59049e-05
5.54826e-05
5.51333e-05
5.53001e-05
5.63509e-05
5.85859e-05
6.23275e-05
6.79931e-05
7.58687e-05
8.61509e-05
9.85862e-05
0.000104152
0.000110168
0.000116902
0.000124442
0.000132865
0.000142231
0.000152581
0.000163939
0.000176308
0.000189673
0.000204
0.000219239
0.000235328
0.000252187
0.000269727
0.000287849
0.000306445
0.000325402
0.000344602
0.000363925
0.000383252
0.000402464
0.000421446
0.000440085
0.000458274
0.000475902
0.000492902
0.000509116
0.000524424
0.000538721
0.000551667
0.000562989
0.000572754
0.000581104
0.000588198
0.000594169
0.000599153
0.000603293
0.000606738
0.000609622
0.00061188
0.000613562
0.000614694
0.000615269
0.000613125
0.000604618
0.000595972
0.000587694
0.000579701
0.000572229
0.000565547
0.000559848
0.00055485
0.000550455
0.000547134
0.000545333
0.000545432
0.000544924
0.000539753
0.000535435
0.000532366
0.000530707
0.000530554
0.000531944
0.000534857
0.000539227
0.000544947
0.000551888
0.000559906
0.000568853
0.000578582
0.000588956
3.61816e-11
3.70251e-09
3.64006e-08
2.32628e-07
8.79327e-07
2.05812e-06
3.66e-06
5.56673e-06
7.69806e-06
1.00011e-05
1.24378e-05
1.49771e-05
1.75887e-05
2.02387e-05
2.28848e-05
2.54721e-05
2.79283e-05
3.01601e-05
3.20511e-05
3.34628e-05
3.43266e-05
3.48325e-05
3.53335e-05
3.58962e-05
3.65757e-05
3.74377e-05
3.85504e-05
3.99757e-05
4.17617e-05
4.39418e-05
4.65032e-05
4.93681e-05
5.24488e-05
5.56715e-05
5.87882e-05
5.92076e-05
5.90263e-05
5.89535e-05
5.94253e-05
6.08327e-05
6.35157e-05
6.7837e-05
7.42522e-05
8.30333e-05
9.40511e-05
0.000104419
0.000109959
0.000116091
0.00012292
0.000130532
0.000138998
0.000148374
0.000158699
0.00016999
0.000182245
0.000195443
0.000209547
0.000224501
0.000240237
0.000256674
0.000273718
0.000291268
0.000309216
0.000327445
0.000345839
0.00036428
0.000382649
0.000400832
0.000418733
0.000436208
0.000453119
0.000469372
0.000484793
0.000499283
0.000512507
0.000524194
0.000534384
0.000543215
0.000550804
0.000557288
0.000562798
0.000567464
0.00057143
0.000574817
0.000577725
0.000580077
0.000581915
0.000583246
0.000582636
0.000574847
0.000566683
0.000558894
0.000551383
0.000544329
0.00053795
0.000532437
0.000527653
0.000523369
0.000520097
0.000517965
0.00051759
0.000518807
0.000519594
0.000515127
0.000511793
0.00050978
0.000509216
0.000510165
0.000512629
0.000516559
0.000521863
0.000528416
0.000536079
0.000544702
0.000554136
0.00056424
4.04112e-11
4.1468e-09
4.03661e-08
2.52892e-07
9.2361e-07
2.13082e-06
3.76533e-06
5.70612e-06
7.86793e-06
1.01935e-05
1.26425e-05
1.51845e-05
1.77937e-05
2.04458e-05
2.31137e-05
2.57647e-05
2.83557e-05
3.08295e-05
3.31104e-05
3.51003e-05
3.66775e-05
3.77081e-05
3.82149e-05
3.85133e-05
3.88492e-05
3.92583e-05
3.97981e-05
4.05414e-05
4.1566e-05
4.29428e-05
4.47272e-05
4.69578e-05
4.96038e-05
5.25795e-05
5.57969e-05
5.91814e-05
6.21693e-05
6.2774e-05
6.28578e-05
6.30883e-05
6.392e-05
6.57727e-05
6.90278e-05
7.40935e-05
8.14071e-05
9.11245e-05
0.000102862
0.000110252
0.000115923
0.000122178
0.000129111
0.000136804
0.000145325
0.000154725
0.000165037
0.000176273
0.000188426
0.00020147
0.000215361
0.000230037
0.000245424
0.000261436
0.000277976
0.00029494
0.000312216
0.000329693
0.000347257
0.000364794
0.000382158
0.000399234
0.000415857
0.000431922
0.000447299
0.000461861
0.000475252
0.000487193
0.00049771
0.000506926
0.000514947
0.000521894
0.000527889
0.000533042
0.0005375
0.000541379
0.000544804
0.000547764
0.000550241
0.000552253
0.000553678
0.000546809
0.000539184
0.000531855
0.000524807
0.000518193
0.000512178
0.000506937
0.000502548
0.000498485
0.000494903
0.000492356
0.000491361
0.000492314
0.000494742
0.000495818
0.000492277
0.000489951
0.000489
0.000489517
0.00049153
0.00049501
0.000499879
0.000506024
0.000513308
0.000521582
0.000530697
0.000540508
4.58953e-11
4.73178e-09
4.58334e-08
2.77761e-07
9.87798e-07
2.24859e-06
3.94553e-06
5.95198e-06
8.17678e-06
1.05578e-05
1.30514e-05
1.56259e-05
1.82568e-05
2.09234e-05
2.36065e-05
2.62857e-05
2.89358e-05
3.15241e-05
3.40062e-05
3.63215e-05
3.83897e-05
4.01071e-05
4.13446e-05
4.19998e-05
4.21993e-05
4.23302e-05
4.25169e-05
4.27886e-05
4.32071e-05
4.38536e-05
4.48146e-05
4.61694e-05
4.79815e-05
5.02801e-05
5.30218e-05
5.61138e-05
5.94705e-05
6.30173e-05
6.58646e-05
6.6651e-05
6.70111e-05
6.75814e-05
6.88429e-05
7.12448e-05
7.52438e-05
8.12927e-05
8.96882e-05
0.000100282
0.000110914
0.000116254
0.000122064
0.000128446
0.00013549
0.000143274
0.000151859
0.000161294
0.000171603
0.000182796
0.000194857
0.000207753
0.000221434
0.000235832
0.000250866
0.000266445
0.000282466
0.000298835
0.000315414
0.000332076
0.000348699
0.000365145
0.000381289
0.000397011
0.000412185
0.000426674
0.000440117
0.000452206
0.000462953
0.000472461
0.000480831
0.000488169
0.000494587
0.000500187
0.000505096
0.000509424
0.000513282
0.000516776
0.000519827
0.00052245
0.00052464
0.000520311
0.000513552
0.000506718
0.000500124
0.000493905
0.000488255
0.000483239
0.000479029
0.000475331
0.000471907
0.000469171
0.000467629
0.00046778
0.000469945
0.000473228
0.00047376
0.000471163
0.00046985
0.000469945
0.000471505
0.000474524
0.000478941
0.000484655
0.000491536
0.000499437
0.000508208
0.000517702
5.25862e-11
5.45387e-09
5.26893e-08
3.08409e-07
1.07189e-06
2.4069e-06
4.18867e-06
6.28263e-06
8.59125e-06
1.10476e-05
1.3605e-05
1.623e-05
1.88978e-05
2.15899e-05
2.42907e-05
2.69867e-05
2.96629e-05
3.23015e-05
3.48779e-05
3.73581e-05
3.96944e-05
4.18213e-05
4.36518e-05
4.50746e-05
4.59519e-05
4.62561e-05
4.623e-05
4.62275e-05
4.62904e-05
4.64522e-05
4.6781e-05
4.73664e-05
4.83029e-05
4.96755e-05
5.15502e-05
5.39455e-05
5.67995e-05
6.00197e-05
6.35224e-05
6.72336e-05
6.99068e-05
7.0863e-05
7.15098e-05
7.24662e-05
7.42824e-05
7.74361e-05
8.23996e-05
8.95969e-05
9.9155e-05
0.000110488
0.000116973
0.000122452
0.000128402
0.000134915
0.000142076
0.000149957
0.000158617
0.000168096
0.000178414
0.000189571
0.000201545
0.000214295
0.000227762
0.000241877
0.000256537
0.000271633
0.000287067
0.000302697
0.00031841
0.000334086
0.000349601
0.000364833
0.000379656
0.000393929
0.000407286
0.000419404
0.000430276
0.000439987
0.000448626
0.000456282
0.000463053
0.000469044
0.000474357
0.000479093
0.000483351
0.000487225
0.000490799
0.000493972
0.000496748
0.000495482
0.000489773
0.000483515
0.000477427
0.000471558
0.000466134
0.000461343
0.000457339
0.000454008
0.000450949
0.000448283
0.000446444
0.000445883
0.000447087
0.00045028
0.000454041
0.000453365
0.000451714
0.000451398
0.000452502
0.000455048
0.000458995
0.000464255
0.000470708
0.00047821
0.000486613
0.000495767
6.04939e-11
6.31456e-09
6.084e-08
3.45601e-07
1.17529e-06
2.6014e-06
4.48473e-06
6.68094e-06
9.08587e-06
1.16282e-05
1.42584e-05
1.69418e-05
1.96535e-05
2.23758e-05
2.50961e-05
2.78044e-05
3.04924e-05
3.31507e-05
3.57672e-05
3.83243e-05
4.07963e-05
4.31454e-05
4.53184e-05
4.72425e-05
4.8822e-05
4.99362e-05
5.04545e-05
5.04544e-05
5.02849e-05
5.01832e-05
5.01554e-05
5.02439e-05
5.05249e-05
5.10955e-05
5.20551e-05
5.34927e-05
5.54733e-05
5.79981e-05
6.09857e-05
6.43489e-05
6.80057e-05
7.18832e-05
7.43016e-05
7.54178e-05
7.64055e-05
7.78735e-05
8.04138e-05
8.45445e-05
9.07387e-05
9.93008e-05
0.000109753
0.000118002
0.00012325
0.000128871
0.00013496
0.000141606
0.000148889
0.000156878
0.000165623
0.000175158