/*--------------------------------*- C++ -*----------------------------------*\
  =========                 |
  \\      /  F ield         | OpenFOAM: The Open Source CFD Toolbox
   \\    /   O peration     | Website:  https://openfoam.org
    \\  /    A nd           | Version:  10
     \\/     M anipulation  |
\*---------------------------------------------------------------------------*/
FoamFile
{
    format      ascii;
    class       volScalarField;
    location    "20000";
    object      p;
}
// * * * * * * * * * * * * * * * * * * * * * * * * * * * * * * * * * * * * * //

dimensions      [0 2 -2 0 0 0 0];

internalField   nonuniform List<scalar> 
17969
(
-5.71552
-5.70581
-5.6975
-5.68862
-5.67894
-5.66853
-5.65738
-5.64542
-5.63262
-5.61903
-5.60473
-5.58977
-5.57417
-5.55796
-5.54116
-5.52376
-5.50578
-5.48719
-5.46798
-5.44815
-5.42767
-5.40652
-5.3847
-5.36216
-5.33891
-5.3149
-5.29012
-5.26455
-5.23815
-5.2109
-5.18277
-5.15374
-5.12377
-5.09283
-5.06089
-5.02792
-4.99388
-4.95873
-4.92244
-4.88496
-4.84626
-4.80629
-4.76501
-4.72238
-4.67833
-4.63284
-4.58583
-4.53727
-4.48709
-4.43523
-4.38164
-4.32625
-4.26899
-4.20979
-4.14859
-4.08531
-4.01987
-3.95219
-3.88218
-3.80977
-3.73484
-3.65731
-3.57709
-3.49405
-3.4081
-3.31912
-3.227
-3.1316
-3.0328
-2.93046
-2.82445
-2.71462
-2.6008
-2.48285
-2.36235
-2.24267
-2.12554
-2.01092
-1.8988
-1.78914
-1.68192
-1.57711
-1.47467
-1.37457
-1.27679
-1.18129
-1.08803
-0.996991
-0.908131
-0.821424
-0.736838
-0.654343
-0.573903
-0.495482
-0.419046
-0.344558
-0.271982
-0.201278
-0.132399
-0.0653101
-5.7144
-5.70472
-5.6965
-5.68778
-5.67836
-5.66833
-5.65767
-5.64631
-5.63416
-5.62121
-5.60743
-5.59289
-5.57768
-5.5618
-5.54526
-5.52809
-5.51031
-5.4919
-5.47286
-5.45318
-5.43285
-5.41185
-5.39015
-5.36776
-5.34463
-5.32075
-5.2961
-5.27065
-5.24437
-5.21724
-5.18923
-5.16032
-5.13046
-5.09964
-5.06781
-5.03495
-5.00101
-4.96597
-4.92978
-4.8924
-4.8538
-4.81393
-4.77275
-4.7302
-4.68625
-4.64084
-4.59391
-4.54543
-4.49532
-4.44354
-4.39002
-4.33469
-4.27749
-4.21836
-4.15721
-4.09398
-4.02858
-3.96094
-3.89097
-3.81858
-3.74368
-3.66618
-3.58597
-3.50294
-3.41699
-3.32801
-3.23588
-3.14046
-3.04164
-2.93927
-2.83322
-2.72333
-2.60946
-2.49143
-2.37084
-2.25108
-2.13384
-2.01912
-1.90689
-1.79711
-1.68976
-1.58482
-1.48224
-1.38201
-1.28408
-1.18842
-1.09501
-1.0038
-0.914771
-0.82789
-0.743127
-0.660451
-0.579827
-0.50122
-0.424596
-0.349918
-0.277152
-0.206257
-0.137189
-0.0699168
-5.7135
-5.70382
-5.69565
-5.68702
-5.67778
-5.66801
-5.6577
-5.6468
-5.63523
-5.62293
-5.60982
-5.5959
-5.58118
-5.5657
-5.54954
-5.5327
-5.51518
-5.497
-5.47816
-5.45866
-5.43849
-5.41765
-5.39611
-5.37385
-5.35086
-5.32712
-5.30259
-5.27727
-5.25112
-5.22411
-5.19622
-5.16743
-5.13769
-5.10698
-5.07526
-5.04251
-5.00869
-4.97375
-4.93767
-4.90039
-4.86189
-4.82212
-4.78103
-4.73858
-4.69472
-4.6494
-4.60256
-4.55416
-4.50414
-4.45243
-4.39898
-4.34372
-4.28659
-4.22751
-4.16642
-4.10324
-4.0379
-3.9703
-3.90037
-3.82801
-3.75314
-3.67566
-3.59546
-3.51244
-3.4265
-3.33751
-3.24537
-3.14993
-3.05108
-2.94868
-2.84258
-2.73264
-2.6187
-2.50059
-2.37991
-2.26005
-2.14271
-2.02787
-1.91552
-1.80562
-1.69814
-1.59306
-1.49034
-1.38995
-1.29187
-1.19605
-1.10247
-1.01109
-0.92189
-0.834829
-0.74988
-0.667014
-0.586197
-0.507395
-0.430573
-0.355696
-0.28273
-0.211634
-0.14237
-0.0749052
-5.71275
-5.70306
-5.69492
-5.68634
-5.67722
-5.66763
-5.65756
-5.64697
-5.63583
-5.62406
-5.61159
-5.59835
-5.5843
-5.56942
-5.55373
-5.53729
-5.52015
-5.50229
-5.48372
-5.46445
-5.44449
-5.42383
-5.40245
-5.38035
-5.35751
-5.33391
-5.30952
-5.28433
-5.2583
-5.23142
-5.20366
-5.17498
-5.14536
-5.11477
-5.08317
-5.05053
-5.01682
-4.98199
-4.94602
-4.90885
-4.87045
-4.83078
-4.78979
-4.74744
-4.70367
-4.65844
-4.61169
-4.56338
-4.51344
-4.46181
-4.40843
-4.35325
-4.29618
-4.23717
-4.17614
-4.11302
-4.04772
-3.98017
-3.91028
-3.83796
-3.76312
-3.68565
-3.60547
-3.52247
-3.43653
-3.34754
-3.25538
-3.15992
-3.06104
-2.9586
-2.85246
-2.74245
-2.62844
-2.51025
-2.38948
-2.26951
-2.15206
-2.0371
-1.92462
-1.81459
-1.70697
-1.60175
-1.49888
-1.39834
-1.30009
-1.20411
-1.11037
-1.01882
-0.929433
-0.842186
-0.757048
-0.673989
-0.592975
-0.513974
-0.43695
-0.361869
-0.288697
-0.217398
-0.147934
-0.0802724
-0.0143855
0.0497562
0.112186
0.172938
-5.71213
-5.70244
-5.69429
-5.68575
-5.6767
-5.66722
-5.65732
-5.64695
-5.63609
-5.62468
-5.6127
-5.60005
-5.58667
-5.57249
-5.55748
-5.54163
-5.52494
-5.50749
-5.48931
-5.47038
-5.45069
-5.43026
-5.4091
-5.38719
-5.36452
-5.34107
-5.31684
-5.29179
-5.2659
-5.23915
-5.21151
-5.18296
-5.15346
-5.12299
-5.09151
-5.05898
-5.02538
-4.99067
-4.9548
-4.91774
-4.87945
-4.83988
-4.79899
-4.75674
-4.71307
-4.66793
-4.62127
-4.57305
-4.52319
-4.47164
-4.41834
-4.36323
-4.30624
-4.2473
-4.18633
-4.12326
-4.05802
-3.99051
-3.92066
-3.84838
-3.77357
-3.69613
-3.61597
-3.53297
-3.44703
-3.35804
-3.26586
-3.17039
-3.07148
-2.96899
-2.86279
-2.75273
-2.63864
-2.52036
-2.39949
-2.27941
-2.16184
-2.04676
-1.93414
-1.82397
-1.71621
-1.61084
-1.50782
-1.40712
-1.30871
-1.21256
-1.11864
-1.02691
-0.937349
-0.849915
-0.764584
-0.681327
-0.600113
-0.520907
-0.443676
-0.368386
-0.295004
-0.223496
-0.153826
-0.0859601
-0.0198711
0.0444706
0.107097
0.168043
-5.71163
-5.70191
-5.69376
-5.68523
-5.67624
-5.66683
-5.65703
-5.64681
-5.63614
-5.62499
-5.61332
-5.60108
-5.58823
-5.57469
-5.56037
-5.54523
-5.52923
-5.51237
-5.49464
-5.47611
-5.45682
-5.43675
-5.41587
-5.39421
-5.37175
-5.3485
-5.32444
-5.29956
-5.27382
-5.24722
-5.21972
-5.1913
-5.16193
-5.13158
-5.10022
-5.06781
-5.03433
-4.99972
-4.96397
-4.92702
-4.88883
-4.84937
-4.80859
-4.76643
-4.72286
-4.67782
-4.63126
-4.58312
-4.53335
-4.48188
-4.42867
-4.37363
-4.31671
-4.25784
-4.19693
-4.13392
-4.06873
-4.00128
-3.93147
-3.85922
-3.78444
-3.70703
-3.62688
-3.5439
-3.45796
-3.36896
-3.27677
-3.18127
-3.08232
-2.97979
-2.87354
-2.76341
-2.64924
-2.53087
-2.40989
-2.28969
-2.172
-2.05679
-1.94404
-1.83372
-1.72582
-1.62029
-1.51711
-1.41625
-1.31767
-1.22135
-1.12725
-1.03535
-0.945596
-0.857972
-0.772447
-0.68899
-0.607572
-0.528159
-0.450719
-0.375218
-0.301623
-0.229902
-0.160021
-0.0919477
-0.0256522
0.0388946
0.101723
0.162866
-5.71122
-5.70149
-5.69333
-5.6848
-5.67584
-5.66649
-5.65676
-5.64664
-5.6361
-5.62512
-5.61367
-5.60171
-5.58921
-5.57611
-5.56236
-5.54787
-5.53258
-5.51643
-5.4994
-5.48147
-5.46264
-5.44297
-5.4225
-5.4012
-5.37905
-5.35605
-5.33222
-5.30753
-5.28198
-5.25554
-5.2282
-5.19993
-5.17069
-5.14048
-5.10925
-5.07696
-5.0436
-5.00912
-4.97347
-4.93664
-4.89856
-4.85921
-4.81853
-4.77648
-4.73301
-4.68806
-4.6416
-4.59355
-4.54387
-4.49249
-4.43936
-4.3844
-4.32755
-4.26875
-4.20791
-4.14496
-4.07982
-4.01242
-3.94265
-3.87044
-3.79569
-3.71831
-3.63818
-3.5552
-3.46926
-3.38026
-3.28805
-3.19252
-3.09354
-2.99097
-2.88465
-2.77445
-2.6602
-2.54173
-2.42064
-2.30032
-2.1825
-2.06715
-1.95426
-1.8438
-1.73574
-1.63005
-1.52671
-1.42568
-1.32693
-1.23044
-1.13616
-1.04407
-0.954132
-0.866317
-0.780594
-0.696936
-0.615312
-0.535692
-0.458041
-0.382327
-0.308517
-0.23658
-0.166485
-0.0981986
-0.0316921
0.0330657
0.0961082
0.157471
0.217191
-5.71089
-5.70115
-5.69297
-5.68444
-5.6755
-5.66619
-5.65652
-5.64648
-5.63604
-5.62518
-5.61388
-5.60212
-5.58985
-5.57704
-5.56366
-5.54966
-5.53494
-5.51946
-5.50314
-5.48593
-5.4678
-5.44874
-5.42873
-5.40783
-5.38609
-5.36348
-5.33996
-5.31555
-5.29023
-5.264
-5.23685
-5.20875
-5.17968
-5.14961
-5.11852
-5.08638
-5.05314
-5.01878
-4.98326
-4.94655
-4.90859
-4.86934
-4.82877
-4.78683
-4.74346
-4.69862
-4.65225
-4.6043
-4.55471
-4.50342
-4.45037
-4.39549
-4.33872
-4.27998
-4.21921
-4.15633
-4.09125
-4.02389
-3.95417
-3.882
-3.80728
-3.72992
-3.6498
-3.56684
-3.4809
-3.39189
-3.29966
-3.20411
-3.10509
-3.00246
-2.89609
-2.78581
-2.67147
-2.5529
-2.43169
-2.31125
-2.19329
-2.07781
-1.96477
-1.85415
-1.74593
-1.64008
-1.53658
-1.43538
-1.33646
-1.23978
-1.14532
-1.05304
-0.962918
-0.87491
-0.78899
-0.705129
-0.623299
-0.543468
-0.465604
-0.389674
-0.315648
-0.243493
-0.173179
-0.104674
-0.0379476
0.0270324
0.0902979
0.151882
0.211817
0.270138
0.326878
-5.71062
-5.70087
-5.69266
-5.68413
-5.67521
-5.66593
-5.6563
-5.64632
-5.63595
-5.62518
-5.614
-5.60238
-5.59029
-5.5777
-5.56457
-5.55087
-5.53655
-5.52156
-5.50582
-5.48928
-5.47186
-5.45352
-5.43422
-5.41394
-5.39268
-5.37047
-5.34737
-5.32335
-5.29836
-5.27242
-5.24551
-5.21763
-5.18876
-5.15888
-5.12796
-5.09597
-5.06288
-5.02866
-4.99327
-4.95668
-4.91885
-4.87973
-4.83927
-4.79744
-4.75418
-4.70944
-4.66317
-4.61532
-4.56582
-4.51462
-4.46166
-4.40686
-4.35017
-4.29151
-4.23081
-4.16798
-4.10296
-4.03566
-3.96599
-3.89385
-3.81917
-3.74183
-3.66173
-3.57877
-3.49284
-3.40381
-3.31157
-3.21598
-3.11692
-3.01424
-2.90781
-2.79745
-2.68302
-2.56435
-2.44302
-2.32245
-2.20435
-2.08872
-1.97553
-1.86476
-1.75638
-1.65036
-1.54668
-1.44531
-1.34621
-1.24935
-1.15471
-1.06224
-0.971921
-0.883718
-0.797598
-0.713533
-0.631493
-0.551449
-0.47337
-0.397222
-0.322975
-0.250598
-0.180061
-0.111332
-0.0443811
0.0208226
0.0843107
0.146115
0.206268
0.264803
0.321752
0.377149
-5.7104
-5.70063
-5.6924
-5.68385
-5.67493
-5.66568
-5.65608
-5.64614
-5.63583
-5.62513
-5.61403
-5.60252
-5.59056
-5.57812
-5.56519
-5.55172
-5.53766
-5.52298
-5.50766
-5.49162
-5.47479
-5.45712
-5.43853
-5.41898
-5.39842
-5.37685
-5.35424
-5.33063
-5.30606
-5.28053
-5.25398
-5.2264
-5.19779
-5.16814
-5.13743
-5.10563
-5.07272
-5.03866
-5.00343
-4.96698
-4.92928
-4.89029
-4.84996
-4.80825
-4.7651
-4.72048
-4.67432
-4.62657
-4.57717
-4.52607
-4.47319
-4.41848
-4.36187
-4.30328
-4.24265
-4.17989
-4.11493
-4.04768
-3.97805
-3.90596
-3.83131
-3.75399
-3.67391
-3.59096
-3.50503
-3.41599
-3.32373
-3.22811
-3.12901
-3.02628
-2.91977
-2.80934
-2.69482
-2.57604
-2.45458
-2.33388
-2.21564
-2.09986
-1.98651
-1.87558
-1.76703
-1.66085
-1.55699
-1.45544
-1.35616
-1.25911
-1.16428
-1.07162
-0.981111
-0.892709
-0.806388
-0.722117
-0.639866
-0.559608
-0.481311
-0.404943
-0.330474
-0.257873
-0.187109
-0.118153
-0.0509747
0.0144563
0.0781707
0.140199
0.200574
0.259326
0.316488
0.372094
0.426176
0.478768
-5.71022
-5.70043
-5.69217
-5.6836
-5.67468
-5.66543
-5.65586
-5.64594
-5.63567
-5.62502
-5.61399
-5.60255
-5.59068
-5.57836
-5.56557
-5.55226
-5.53841
-5.52398
-5.50893
-5.49322
-5.47681
-5.45965
-5.44166
-5.42278
-5.40294
-5.38209
-5.36019
-5.33723
-5.31318
-5.28807
-5.26194
-5.23478
-5.20654
-5.1772
-5.14677
-5.11522
-5.08253
-5.04868
-5.01364
-4.97736
-4.93982
-4.90098
-4.86079
-4.81921
-4.77619
-4.73168
-4.68564
-4.638
-4.58871
-4.5377
-4.48492
-4.4303
-4.37377
-4.31527
-4.25471
-4.19202
-4.12712
-4.05992
-3.99034
-3.91829
-3.84367
-3.76638
-3.68632
-3.60337
-3.51744
-3.42839
-3.33611
-3.24046
-3.14132
-3.03853
-2.93196
-2.82144
-2.70682
-2.58793
-2.46635
-2.34551
-2.22713
-2.11119
-1.99769
-1.88659
-1.77788
-1.67151
-1.56748
-1.46575
-1.36628
-1.26905
-1.17402
-1.08117
-0.990459
-0.901857
-0.815332
-0.730852
-0.64839
-0.567915
-0.489398
-0.41281
-0.338117
-0.26529
-0.194299
-0.125114
-0.0577062
0.00795466
0.0718982
0.134154
0.194754
0.253728
0.311108
0.366927
0.421217
0.474012
0.525345
0.575249
0.623759
0.670908
-5.71008
-5.70027
-5.69198
-5.68338
-5.67445
-5.6652
-5.65564
-5.64573
-5.63548
-5.62487
-5.61388
-5.60249
-5.59069
-5.57845
-5.56576
-5.55258
-5.53888
-5.52463
-5.5098
-5.49435
-5.47823
-5.46141
-5.44385
-5.42548
-5.40625
-5.38608
-5.3649
-5.34266
-5.31932
-5.29486
-5.26926
-5.24254
-5.21473
-5.18583
-5.15578
-5.12456
-5.09217
-5.05858
-5.02376
-4.9877
-4.95036
-4.91169
-4.87167
-4.83024
-4.78737
-4.743
-4.69708
-4.64956
-4.60038
-4.54948
-4.4968
-4.44228
-4.38584
-4.32742
-4.26693
-4.20431
-4.13948
-4.07234
-4.00281
-3.9308
-3.85621
-3.77895
-3.69891
-3.61597
-3.53004
-3.44098
-3.34868
-3.253
-3.15381
-3.05097
-2.94433
-2.83373
-2.71901
-2.60001
-2.4783
-2.35732
-2.23879
-2.1227
-2.00903
-1.89777
-1.78888
-1.68234
-1.57812
-1.4762
-1.37655
-1.27912
-1.1839
-1.09085
-0.999942
-0.911136
-0.824403
-0.739714
-0.657038
-0.576346
-0.49761
-0.4208
-0.345883
-0.27283
-0.20161
-0.132195
-0.0645556
0.00133717
0.0655123
0.127999
0.188827
0.248027
0.30563
0.361666
0.416169
0.46917
0.520703
0.570802
0.619499
0.666828
-5.70998
-5.70014
-5.69183
-5.68321
-5.67426
-5.66501
-5.65544
-5.64554
-5.6353
-5.62471
-5.61374
-5.60239
-5.59063
-5.57845
-5.56583
-5.55274
-5.53915
-5.52503
-5.51036
-5.4951
-5.47922
-5.46267
-5.44541
-5.4274
-5.4086
-5.38895
-5.36838
-5.34682
-5.3242
-5.30047
-5.27558
-5.24952
-5.22225
-5.1938
-5.16418
-5.1334
-5.10141
-5.06816
-5.03366
-4.99787
-4.96077
-4.92233
-4.88251
-4.84126
-4.79856
-4.75435
-4.70857
-4.66119
-4.61214
-4.56136
-4.50879
-4.45437
-4.39803
-4.33969
-4.27929
-4.21675
-4.15198
-4.0849
-4.01543
-3.94346
-3.86891
-3.79168
-3.71165
-3.62873
-3.54279
-3.45373
-3.3614
-3.26569
-3.16646
-3.06356
-2.95685
-2.84617
-2.73135
-2.61223
-2.4904
-2.36927
-2.25059
-2.13435
-2.02052
-1.90908
-1.80002
-1.6933
-1.5889
-1.48679
-1.38694
-1.28933
-1.19391
-1.10066
-1.00954
-0.920528
-0.833584
-0.748679
-0.665786
-0.584876
-0.50592
-0.428888
-0.353748
-0.280469
-0.209021
-0.139375
-0.0715036
-0.00537748
0.0590313
0.121751
0.182811
0.24224
0.300068
0.356327
0.411047
0.46426
0.515998
0.566296
0.615185
0.662699
-5.70991
-5.70005
-5.69171
-5.68308
-5.67412
-5.66486
-5.65528
-5.64539
-5.63515
-5.62457
-5.61362
-5.60228
-5.59055
-5.57841
-5.56583
-5.5528
-5.53929
-5.52527
-5.51072
-5.49561
-5.47989
-5.46355
-5.44654
-5.42881
-5.41032
-5.39103
-5.37091
-5.34988
-5.32787
-5.30481
-5.28064
-5.25531
-5.22875
-5.20096
-5.1719
-5.14157
-5.11002
-5.07721
-5.04312
-5.00768
-4.9709
-4.93274
-4.89318
-4.85217
-4.80967
-4.76565
-4.72005
-4.67282
-4.62391
-4.57327
-4.52083
-4.46652
-4.41029
-4.35205
-4.29174
-4.22928
-4.16458
-4.09757
-4.02815
-3.95623
-3.88172
-3.80452
-3.72452
-3.64161
-3.55567
-3.4666
-3.37425
-3.27851
-3.17923
-3.07628
-2.9695
-2.85873
-2.74382
-2.62458
-2.50262
-2.38135
-2.26252
-2.14611
-2.03212
-1.92051
-1.81127
-1.70437
-1.59979
-1.49749
-1.39745
-1.29963
-1.20402
-1.11057
-1.01925
-0.930024
-0.84286
-0.757735
-0.674626
-0.593497
-0.514318
-0.437059
-0.361693
-0.288187
-0.216511
-0.146636
-0.0785321
-0.0121721
0.0524716
0.115426
0.17672
0.236381
0.294439
0.350923
0.405864
0.459293
0.511242
0.561743
0.610829
0.658534
-5.70987
-5.69999
-5.69164
-5.68299
-5.67402
-5.66475
-5.65518
-5.64528
-5.63505
-5.62447
-5.61353
-5.60221
-5.5905
-5.57838
-5.56583
-5.55284
-5.53938
-5.52543
-5.51096
-5.49595
-5.48037
-5.46418
-5.44734
-5.42983
-5.4116
-5.39261
-5.3728
-5.35215
-5.33059
-5.30807
-5.28451
-5.25985
-5.23401
-5.20693
-5.17858
-5.14891
-5.11791
-5.08557
-5.05191
-5.01693
-4.98056
-4.94276
-4.90352
-4.8628
-4.82057
-4.77678
-4.7314
-4.68436
-4.63563
-4.58515
-4.53285
-4.47868
-4.42256
-4.36444
-4.30423
-4.24186
-4.17724
-4.1103
-4.04095
-3.96908
-3.89462
-3.81745
-3.73747
-3.65457
-3.56864
-3.47956
-3.38719
-3.29142
-3.1921
-3.08909
-2.98224
-2.87139
-2.75638
-2.63703
-2.51493
-2.39352
-2.27454
-2.15797
-2.04381
-1.93203
-1.82261
-1.71553
-1.61076
-1.50827
-1.40804
-1.31003
-1.21421
-1.12056
-1.02904
-0.9396
-0.852219
-0.766877
-0.683546
-0.602194
-0.522792
-0.445309
-0.369715
-0.29598
-0.224073
-0.153965
-0.0856277
-0.019033
0.0458468
0.109038
0.170568
0.230465
0.288755
0.345468
0.400634
0.454283
0.506446
0.557156
0.606444
0.654342
0.700885
-5.70986
-5.69996
-5.69159
-5.68294
-5.67396
-5.66469
-5.65512
-5.64523
-5.635
-5.62443
-5.61349
-5.60218
-5.59049
-5.57838
-5.56586
-5.55289
-5.53947
-5.52557
-5.51116
-5.49622
-5.48073
-5.46465
-5.44795
-5.4306
-5.41257
-5.3938
-5.37426
-5.3539
-5.33267
-5.31054
-5.28745
-5.26332
-5.23809
-5.21168
-5.18403
-5.15508
-5.12477
-5.09308
-5.05998
-5.02546
-4.98954
-4.95219
-4.91336
-4.87301
-4.83111
-4.78762
-4.7425
-4.69571
-4.64719
-4.5969
-4.54478
-4.49076
-4.43479
-4.3768
-4.3167
-4.25443
-4.18991
-4.12305
-4.05377
-3.98197
-3.90755
-3.83042
-3.75047
-3.66759
-3.58167
-3.49258
-3.4002
-3.3044
-3.20504
-3.10197
-2.99506
-2.88412
-2.76901
-2.64954
-2.52731
-2.40576
-2.28663
-2.1699
-2.05557
-1.94362
-1.83402
-1.72676
-1.6218
-1.51912
-1.41869
-1.32049
-1.22447
-1.13062
-1.03889
-0.949235
-0.861639
-0.776081
-0.692531
-0.610956
-0.531329
-0.453618
-0.377793
-0.303826
-0.231688
-0.16135
-0.0927791
-0.025948
0.0391698
0.1026
0.164369
0.224502
0.283028
0.339973
0.395368
0.44924
0.501622
0.552543
0.602037
0.650134
0.696869
-5.70986
-5.69994
-5.69157
-5.68291
-5.67394
-5.66467
-5.65511
-5.64522
-5.635
-5.62444
-5.61352
-5.60222
-5.59054
-5.57845
-5.56594
-5.553
-5.5396
-5.52573
-5.51136
-5.49648
-5.48105
-5.46505
-5.44845
-5.43122
-5.41333
-5.39473
-5.3754
-5.35527
-5.33432
-5.31249
-5.28973
-5.266
-5.24124
-5.21537
-5.18833
-5.16004
-5.13043
-5.09945
-5.06703
-5.03314
-4.99776
-4.96088
-4.9225
-4.8826
-4.84111
-4.79799
-4.7532
-4.70671
-4.65846
-4.60842
-4.55651
-4.50269
-4.44689
-4.38905
-4.32909
-4.26695
-4.20254
-4.13577
-4.06657
-3.99484
-3.92048
-3.8434
-3.76348
-3.68062
-3.59471
-3.50562
-3.41323
-3.31741
-3.21801
-3.11489
-3.0079
-2.89689
-2.78168
-2.6621
-2.53974
-2.41804
-2.29876
-2.18187
-2.06738
-1.95525
-1.84548
-1.73803
-1.63288
-1.53001
-1.42939
-1.33098
-1.23477
-1.14072
-1.04877
-0.958909
-0.871099
-0.785324
-0.701552
-0.619755
-0.539902
-0.461963
-0.385908
-0.311708
-0.239337
-0.168766
-0.0999643
-0.0328993
0.0324565
0.0961267
0.158135
0.218508
0.277271
0.334451
0.390077
0.444177
0.49678
0.547917
0.59762
0.64592
0.692849
-5.70989
-5.69994
-5.69157
-5.68292
-5.67395
-5.66469
-5.65513
-5.64526
-5.63505
-5.6245
-5.61359
-5.60231
-5.59064
-5.57857
-5.56609
-5.55316
-5.53979
-5.52595
-5.51161
-5.49677
-5.48139
-5.46544
-5.44892
-5.43178
-5.41399
-5.39552
-5.37633
-5.35639
-5.33565
-5.31406
-5.29159
-5.26817
-5.24375
-5.21829
-5.19172
-5.16397
-5.13497
-5.10463
-5.0729
-5.03971
-5.005
-4.96873
-4.93087
-4.89143
-4.8504
-4.80773
-4.76335
-4.71723
-4.66931
-4.61956
-4.56793
-4.51435
-4.45876
-4.40111
-4.34132
-4.27933
-4.21504
-4.1484
-4.07929
-4.00764
-3.93336
-3.85633
-3.77646
-3.69363
-3.60774
-3.51865
-3.42625
-3.33041
-3.23097
-3.12781
-3.02076
-2.90966
-2.79436
-2.67467
-2.55218
-2.43034
-2.31091
-2.19386
-2.0792
-1.96691
-1.85695
-1.74932
-1.64398
-1.54092
-1.4401
-1.3415
-1.24509
-1.15083
-1.05868
-0.968607
-0.880583
-0.79459
-0.710598
-0.628577
-0.548497
-0.47033
-0.394044
-0.319611
-0.247004
-0.176198
-0.107165
-0.0398685
0.025724
0.0896341
0.151883
0.212496
0.271498
0.328914
0.384773
0.439102
0.49193
0.543286
0.593201
0.641707
0.688835
0.734619
-5.70992
-5.69996
-5.69159
-5.68294
-5.67398
-5.66473
-5.65519
-5.64533
-5.63513
-5.6246
-5.61371
-5.60244
-5.5908
-5.57875
-5.56628
-5.55338
-5.54003
-5.52622
-5.51191
-5.4971
-5.48176
-5.46586
-5.44939
-5.43231
-5.4146
-5.39622
-5.37715
-5.35734
-5.33676
-5.31536
-5.2931
-5.26994
-5.24581
-5.22067
-5.19445
-5.16712
-5.1386
-5.1088
-5.07767
-5.04512
-5.01109
-4.97549
-4.93829
-4.89944
-4.8589
-4.81669
-4.77278
-4.72709
-4.67958
-4.6302
-4.57889
-4.52561
-4.47029
-4.41287
-4.35329
-4.29148
-4.22736
-4.16085
-4.09187
-4.02033
-3.94613
-3.86917
-3.78935
-3.70657
-3.6207
-3.53163
-3.43923
-3.34337
-3.2439
-3.14069
-3.03358
-2.92241
-2.80702
-2.68722
-2.5646
-2.44263
-2.32304
-2.20585
-2.09102
-1.97855
-1.86842
-1.76061
-1.65509
-1.55183
-1.45082
-1.35202
-1.25541
-1.16094
-1.06859
-0.978309
-0.890072
-0.803863
-0.719651
-0.637407
-0.557102
-0.478706
-0.40219
-0.327525
-0.254683
-0.183638
-0.114365
-0.0468351
0.0189867
0.0831323
0.145622
0.206476
0.265718
0.323372
0.379466
0.434027
0.487081
0.538658
0.588789
0.637504
0.684834
0.730811
-5.70996
-5.69998
-5.69162
-5.68298
-5.67403
-5.6648
-5.65527
-5.64542
-5.63525
-5.62473
-5.61386
-5.60261
-5.59098
-5.57896
-5.56651
-5.55364
-5.54032
-5.52653
-5.51225
-5.49747
-5.48217
-5.46631
-5.44988
-5.43286
-5.41521
-5.3969
-5.37791
-5.35821
-5.33774
-5.31649
-5.2944
-5.27143
-5.24752
-5.22264
-5.19673
-5.16972
-5.14156
-5.11219
-5.08154
-5.04954
-5.01609
-4.98114
-4.9446
-4.9064
-4.86649
-4.82483
-4.78139
-4.73617
-4.68913
-4.64017
-4.58926
-4.53633
-4.48134
-4.42421
-4.3649
-4.30331
-4.23939
-4.17306
-4.10423
-4.03282
-3.95872
-3.88186
-3.80211
-3.71939
-3.63356
-3.5445
-3.45211
-3.35624
-3.25676
-3.15351
-3.04634
-2.9351
-2.81962
-2.69971
-2.57698
-2.45487
-2.33514
-2.21779
-2.10281
-1.99017
-1.87986
-1.77187
-1.66616
-1.56272
-1.46151
-1.36252
-1.2657
-1.17104
-1.07848
-0.987994
-0.899547
-0.813124
-0.728694
-0.646229
-0.565699
-0.487076
-0.410331
-0.335434
-0.262357
-0.191074
-0.121561
-0.0537926
0.0122615
0.0766367
0.139363
0.200458
0.25994
0.317834
0.374165
0.428958
0.482241
0.534042
0.584391
0.633317
0.680852
0.727027
-5.71001
-5.70001
-5.69166
-5.68303
-5.67409
-5.66487
-5.65536
-5.64553
-5.63538
-5.62488
-5.61402
-5.6028
-5.5912
-5.57919
-5.56677
-5.55392
-5.54063
-5.52687
-5.51262
-5.49788
-5.4826
-5.46679
-5.4504
-5.43342
-5.41582
-5.39757
-5.37865
-5.35902
-5.33865
-5.31751
-5.29554
-5.27272
-5.249
-5.22432
-5.19864
-5.1719
-5.14405
-5.11501
-5.08474
-5.05316
-5.02021
-4.98579
-4.94984
-4.91227
-4.87301
-4.83198
-4.78913
-4.74442
-4.69784
-4.64936
-4.5989
-4.54639
-4.49178
-4.43501
-4.376
-4.3147
-4.25103
-4.18492
-4.11628
-4.04503
-3.97107
-3.89432
-3.81467
-3.73201
-3.64624
-3.55723
-3.46486
-3.36899
-3.26949
-3.16621
-3.059
-2.9477
-2.83214
-2.71213
-2.58928
-2.46704
-2.34717
-2.22967
-2.11453
-2.00173
-1.89125
-1.78308
-1.67719
-1.57356
-1.47216
-1.37297
-1.27595
-1.18109
-1.08833
-0.997642
-0.90899
-0.822354
-0.737709
-0.655025
-0.574273
-0.495425
-0.418452
-0.343324
-0.270015
-0.198496
-0.128744
-0.0607348
0.00555675
0.0701633
0.133119
0.194451
0.254174
0.312308
0.368876
0.423904
0.477418
0.529444
0.580013
0.629153
0.676895
0.723269
-5.71006
-5.70004
-5.69171
-5.68309
-5.67416
-5.66496
-5.65547
-5.64566
-5.63552
-5.62504
-5.6142
-5.603
-5.59142
-5.57944
-5.56704
-5.55422
-5.54095
-5.52722
-5.51301
-5.49829
-5.48305
-5.46727
-5.45092
-5.43398
-5.41643
-5.39824
-5.37937
-5.35981
-5.33951
-5.31845
-5.29659
-5.27389
-5.2503
-5.22578
-5.20028
-5.17376
-5.14615
-5.11739
-5.08743
-5.0562
-5.02363
-4.98965
-4.95419
-4.91716
-4.87848
-4.83807
-4.79585
-4.75174
-4.7057
-4.6577
-4.60771
-4.55567
-4.5015
-4.44513
-4.38649
-4.32553
-4.26216
-4.19632
-4.12791
-4.05686
-3.98309
-3.90648
-3.82695
-3.7444
-3.6587
-3.56974
-3.47741
-3.38156
-3.28206
-3.17876
-3.07152
-2.96016
-2.84452
-2.72443
-2.60147
-2.47911
-2.35911
-2.24146
-2.12616
-2.0132
-1.90256
-1.79421
-1.68814
-1.58432
-1.48274
-1.38335
-1.28614
-1.19107
-1.09812
-1.00723
-0.918377
-0.831533
-0.746676
-0.663776
-0.582805
-0.503734
-0.426535
-0.351181
-0.277641
-0.205889
-0.135901
-0.0676528
-0.00112103
0.0637202
0.126906
0.188469
0.248429
0.306803
0.363609
0.418872
0.472617
0.52487
0.57566
0.625016
0.672966
0.719543
-5.71011
-5.70007
-5.69176
-5.68315
-5.67424
-5.66505
-5.65557
-5.64578
-5.63566
-5.6252
-5.61438
-5.6032
-5.59164
-5.57968
-5.56731
-5.55452
-5.54127
-5.52757
-5.51339
-5.4987
-5.48349
-5.46775
-5.45144
-5.43454
-5.41703
-5.39888
-5.38007
-5.36056
-5.34033
-5.31934
-5.29756
-5.27495
-5.25147
-5.22708
-5.20173
-5.17538
-5.14796
-5.11943
-5.08972
-5.05878
-5.02653
-4.9929
-4.95784
-4.92125
-4.88307
-4.8432
-4.80155
-4.75804
-4.7126
-4.66516
-4.61566
-4.56409
-4.51039
-4.45447
-4.39626
-4.33568
-4.27267
-4.20715
-4.13902
-4.06823
-3.99467
-3.91825
-3.83888
-3.75645
-3.67086
-3.58199
-3.48971
-3.39389
-3.29441
-3.19111
-3.08384
-2.97244
-2.85674
-2.73657
-2.61351
-2.49103
-2.3709
-2.25312
-2.13768
-2.02456
-1.91375
-1.80523
-1.69899
-1.59499
-1.49321
-1.39364
-1.29623
-1.20097
-1.10782
-1.01673
-0.927683
-0.840637
-0.755572
-0.672461
-0.591275
-0.511985
-0.434565
-0.358987
-0.285221
-0.21324
-0.14302
-0.0745362
-0.00776581
0.0573139
0.12073
0.18252
0.242714
0.301327
0.358371
0.413868
0.467844
0.520325
0.571337
0.62091
0.669071
0.715851
-5.71016
-5.70009
-5.69181
-5.68321
-5.67431
-5.66514
-5.65568
-5.6459
-5.63579
-5.62535
-5.61455
-5.60339
-5.59185
-5.57992
-5.56757
-5.5548
-5.54158
-5.52791
-5.51375
-5.49909
-5.48392
-5.46821
-5.45193
-5.43507
-5.4176
-5.3995
-5.38073
-5.36128
-5.3411
-5.32018
-5.29847
-5.27593
-5.25255
-5.22826
-5.20302
-5.1768
-5.14954
-5.12119
-5.09169
-5.06098
-5.02899
-4.99567
-4.96093
-4.92471
-4.88693
-4.84751
-4.80636
-4.76339
-4.71852
-4.67165
-4.62272
-4.57165
-4.51842
-4.46297
-4.40522
-4.34508
-4.28246
-4.2173
-4.14952
-4.07902
-4.00572
-3.92953
-3.85036
-3.7681
-3.68265
-3.59388
-3.50169
-3.40593
-3.30649
-3.2032
-3.09592
-2.9845
-2.86875
-2.74851
-2.62536
-2.50278
-2.38253
-2.26462
-2.14903
-2.03576
-1.9248
-1.81612
-1.7097
-1.60553
-1.50357
-1.40381
-1.30621
-1.21076
-1.11741
-1.02613
-0.936885
-0.849643
-0.764376
-0.681059
-0.599663
-0.52016
-0.442523
-0.366725
-0.292737
-0.220533
-0.150085
-0.0813711
-0.0143671
0.0509486
0.1146
0.176619
0.23704
0.295885
0.353165
0.408897
0.463104
0.515812
0.567047
0.616837
0.665209
0.712195
-5.71021
-5.70011
-5.69185
-5.68326
-5.67438
-5.66522
-5.65577
-5.64601
-5.63592
-5.62549
-5.61471
-5.60357
-5.59205
-5.58013
-5.56781
-5.55506
-5.54187
-5.52822
-5.51409
-5.49946
-5.48432
-5.46864
-5.4524
-5.43557
-5.41814
-5.40008
-5.38135
-5.36195
-5.34182
-5.32095
-5.2993
-5.27684
-5.25352
-5.22932
-5.20419
-5.17808
-5.15094
-5.12274
-5.0934
-5.06288
-5.03111
-4.99803
-4.96357
-4.92766
-4.89021
-4.85116
-4.81043
-4.76792
-4.72355
-4.67722
-4.62884
-4.57832
-4.52559
-4.47061
-4.41332
-4.35364
-4.29146
-4.22671
-4.1593
-4.08914
-4.01615
-3.94023
-3.8613
-3.77925
-3.69397
-3.60535
-3.51327
-3.41761
-3.31822
-3.21497
-3.10771
-2.99628
-2.8805
-2.7602
-2.63698
-2.5143
-2.39394
-2.27591
-2.1602
-2.04679
-1.93567
-1.82683
-1.72025
-1.61591
-1.51378
-1.41383
-1.31605
-1.2204
-1.12686
-1.03539
-0.945958
-0.858525
-0.773063
-0.689546
-0.607947
-0.528237
-0.450389
-0.374377
-0.300173
-0.22775
-0.157081
-0.0881422
-0.0209104
0.0446366
0.10852
0.170767
0.231413
0.290488
0.348002
0.403965
0.458402
0.511336
0.562793
0.612799
0.661384
0.708575
-5.71024
-5.70013
-5.69189
-5.68331
-5.67444
-5.66529
-5.65585
-5.6461
-5.63602
-5.62561
-5.61485
-5.60372
-5.59222
-5.58032
-5.56802
-5.55529
-5.54212
-5.52849
-5.51439
-5.49979
-5.48468
-5.46902
-5.45281
-5.43602
-5.41863
-5.4006
-5.38192
-5.36255
-5.34248
-5.32166
-5.30006
-5.27766
-5.25441
-5.23028
-5.20523
-5.17921
-5.15218
-5.1241
-5.0949
-5.06453
-5.03295
-5.00007
-4.96583
-4.93018
-4.89302
-4.85429
-4.8139
-4.77177
-4.72782
-4.68196
-4.63407
-4.58408
-4.53188
-4.47739
-4.42057
-4.36135
-4.29963
-4.23531
-4.1683
-4.09852
-4.02587
-3.95027
-3.87162
-3.78982
-3.70475
-3.61631
-3.52439
-3.42884
-3.32955
-3.22636
-3.11914
-3.00772
-2.89193
-2.77159
-2.64831
-2.52556
-2.40511
-2.28697
-2.17113
-2.05759
-1.94634
-1.83735
-1.73061
-1.6261
-1.5238
-1.42368
-1.32572
-1.22989
-1.13616
-1.0445
-0.954877
-0.867258
-0.781608
-0.697899
-0.616103
-0.536194
-0.458142
-0.381923
-0.30751
-0.234875
-0.163991
-0.0948348
-0.0273824
0.0383887
0.102499
0.164972
0.225843
0.285145
0.342888
0.399079
0.453742
0.506899
0.558576
0.608799
0.657595
0.704991
-5.71027
-5.70014
-5.69192
-5.68335
-5.67448
-5.66535
-5.65592
-5.64617
-5.63611
-5.62571
-5.61496
-5.60385
-5.59236
-5.58048
-5.56819
-5.55548
-5.54233
-5.52873
-5.51465
-5.50007
-5.48499
-5.46936
-5.45318
-5.43642
-5.41906
-5.40107
-5.38242
-5.3631
-5.34306
-5.32229
-5.30074
-5.27839
-5.2552
-5.23113
-5.20615
-5.18022
-5.15328
-5.12529
-5.09621
-5.06597
-5.03453
-5.00182
-4.96778
-4.93233
-4.89542
-4.85695
-4.81686
-4.77506
-4.73146
-4.68599
-4.63854
-4.58902
-4.53731
-4.48333
-4.42699
-4.36823
-4.30696
-4.24308
-4.17649
-4.10711
-4.03484
-3.95959
-3.88125
-3.79973
-3.71492
-3.6267
-3.53496
-3.43957
-3.3404
-3.23731
-3.13015
-3.01877
-2.90299
-2.78264
-2.65932
-2.53651
-2.41598
-2.29774
-2.1818
-2.06814
-1.95675
-1.84763
-1.74074
-1.63608
-1.53362
-1.43333
-1.3352
-1.23919
-1.14527
-1.05343
-0.963622
-0.875819
-0.789986
-0.706091
-0.624108
-0.544008
-0.465762
-0.389344
-0.314729
-0.24189
-0.170799
-0.101434
-0.0337686
0.0322183
0.096548
0.159242
0.220337
0.279864
0.337829
0.394243
0.449127
0.502504
0.554399
0.604836
0.653841
0.701443
-5.71029
-5.70013
-5.69193
-5.68337
-5.67451
-5.66538
-5.65596
-5.64623
-5.63617
-5.62578
-5.61504
-5.60394
-5.59246
-5.5806
-5.56833
-5.55563
-5.5425
-5.52892
-5.51486
-5.50031
-5.48524
-5.46964
-5.45349
-5.43676
-5.41943
-5.40147
-5.38286
-5.36357
-5.34357
-5.32283
-5.30133
-5.27903
-5.25589
-5.23188
-5.20696
-5.18109
-5.15423
-5.12633
-5.09735
-5.06722
-5.0359
-5.00333
-4.96944
-4.93418
-4.89746
-4.85922
-4.81938
-4.77786
-4.73457
-4.68943
-4.64235
-4.59323
-4.54197
-4.48846
-4.4326
-4.3743
-4.31347
-4.25003
-4.18386
-4.11489
-4.04301
-3.96813
-3.89014
-3.80893
-3.72441
-3.63644
-3.54492
-3.44972
-3.35071
-3.24775
-3.14069
-3.02937
-2.91363
-2.79329
-2.66995
-2.5471
-2.42651
-2.30819
-2.19216
-2.07839
-1.96689
-1.85763
-1.75061
-1.6458
-1.54319
-1.44275
-1.34445
-1.24827
-1.15418
-1.06216
-0.972173
-0.884188
-0.798176
-0.714103
-0.631939
-0.551655
-0.473224
-0.396618
-0.321811
-0.248778
-0.17749
-0.107924
-0.0400554
0.026138
0.0906772
0.153589
0.214907
0.274651
0.332829
0.389458
0.444557
0.49815
0.550259
0.600908
0.650121
0.697927
-5.7103
-5.70011
-5.69194
-5.68337
-5.67453
-5.6654
-5.65598
-5.64625
-5.6362
-5.62582
-5.61509
-5.604
-5.59254
-5.58068
-5.56842
-5.55574
-5.54263
-5.52906
-5.51502
-5.50049
-5.48544
-5.46986
-5.45374
-5.43703
-5.41972
-5.40179
-5.38321
-5.36396
-5.344
-5.3233
-5.30184
-5.27958
-5.25648
-5.23252
-5.20766
-5.18185
-5.15505
-5.12723
-5.09832
-5.06829
-5.03707
-5.00462
-4.97087
-4.93575
-4.8992
-4.86116
-4.82153
-4.78024
-4.73722
-4.69236
-4.64559
-4.59682
-4.54594
-4.49285
-4.43743
-4.37957
-4.31918
-4.25616
-4.19042
-4.12186
-4.05038
-3.97588
-3.89826
-3.81739
-3.73318
-3.6455
-3.55423
-3.45925
-3.36043
-3.25762
-3.15068
-3.03946
-2.92379
-2.80348
-2.68016
-2.55728
-2.43665
-2.31827
-2.20216
-2.08831
-1.9767
-1.86733
-1.76018
-1.65524
-1.55249
-1.4519
-1.35345
-1.25711
-1.16286
-1.07067
-0.98051
-0.892352
-0.806164
-0.721917
-0.639579
-0.559119
-0.480509
-0.403723
-0.328735
-0.255518
-0.184044
-0.11429
-0.0462291
0.020159
0.0849012
0.148026
0.209556
0.269504
0.327886
0.384723
0.440033
0.493836
0.546155
0.597012
0.646432
0.694441
-5.71031
-5.70009
-5.69193
-5.68337
-5.67452
-5.6654
-5.65598
-5.64626
-5.63621