/*--------------------------------*- C++ -*----------------------------------*\
  =========                 |
  \\      /  F ield         | OpenFOAM: The Open Source CFD Toolbox
   \\    /   O peration     | Website:  https://openfoam.org
    \\  /    A nd           | Version:  10
     \\/     M anipulation  |
\*---------------------------------------------------------------------------*/
FoamFile
{
    format      ascii;
    class       surfaceScalarField;
    location    "20000";
    object      phi;
}
// * * * * * * * * * * * * * * * * * * * * * * * * * * * * * * * * * * * * * //

dimensions      [0 3 -1 0 0 0 0];

internalField   nonuniform List<scalar> 
35536
(
1.88851e-09
-3.28196e-07
1.0883e-08
-1.61486e-07
4.62374e-08
-8.95119e-08
1.06294e-07
-1.95755e-08
1.93738e-07
5.49667e-08
3.10212e-07
1.40096e-07
4.49675e-07
2.3945e-07
5.97851e-07
3.50136e-07
7.39174e-07
4.63209e-07
8.64003e-07
5.68869e-07
9.69628e-07
6.61758e-07
1.05776e-06
7.40587e-07
1.13093e-06
8.0746e-07
1.19161e-06
8.64893e-07
1.24242e-06
9.14823e-07
1.28577e-06
9.59052e-07
1.32363e-06
9.99137e-07
1.35751e-06
1.03632e-06
1.38851e-06
1.07152e-06
1.41742e-06
1.1054e-06
1.44478e-06
1.13841e-06
1.47099e-06
1.17085e-06
1.49633e-06
1.20294e-06
1.521e-06
1.23481e-06
1.54516e-06
1.26655e-06
1.56889e-06
1.29822e-06
1.59229e-06
1.32984e-06
1.6154e-06
1.36142e-06
1.63827e-06
1.39295e-06
1.66092e-06
1.42442e-06
1.68336e-06
1.45579e-06
1.7056e-06
1.48704e-06
1.72765e-06
1.5181e-06
1.7495e-06
1.54894e-06
1.77114e-06
1.57948e-06
1.79256e-06
1.60966e-06
1.81375e-06
1.6394e-06
1.8347e-06
1.66862e-06
1.85537e-06
1.69723e-06
1.87577e-06
1.72514e-06
1.89586e-06
1.75224e-06
1.91563e-06
1.77842e-06
1.93505e-06
1.80355e-06
1.9541e-06
1.82751e-06
1.97276e-06
1.85015e-06
1.99101e-06
1.87134e-06
2.00881e-06
1.89091e-06
2.02615e-06
1.90868e-06
2.043e-06
1.92448e-06
2.05933e-06
1.93811e-06
2.07512e-06
1.94936e-06
2.09033e-06
1.958e-06
2.10494e-06
1.9638e-06
2.11891e-06
1.9665e-06
2.13222e-06
1.96583e-06
2.14483e-06
1.96149e-06
2.1567e-06
1.95317e-06
2.16778e-06
1.94053e-06
2.17804e-06
1.92322e-06
2.18743e-06
1.90084e-06
2.19589e-06
1.873e-06
2.20337e-06
1.83925e-06
2.2098e-06
1.79913e-06
2.2151e-06
1.75214e-06
2.2192e-06
1.69774e-06
2.222e-06
1.63537e-06
2.2234e-06
1.56441e-06
2.22328e-06
1.48422e-06
2.22151e-06
1.39412e-06
2.21792e-06
1.29335e-06
2.21235e-06
1.18112e-06
2.20459e-06
1.0566e-06
2.19439e-06
9.18857e-07
2.18148e-06
7.66925e-07
2.16603e-06
5.8552e-07
2.14846e-06
3.94847e-07
2.12883e-06
2.18758e-07
2.1072e-06
5.62925e-08
2.08362e-06
-9.34766e-08
2.05813e-06
-2.31444e-07
2.03075e-06
-3.58465e-07
2.00151e-06
-4.75363e-07
1.97044e-06
-5.82926e-07
1.93759e-06
-6.81905e-07
1.90299e-06
-7.73022e-07
1.86669e-06
-8.56957e-07
1.82878e-06
-9.34359e-07
1.78933e-06
-1.00583e-06
1.74846e-06
-1.07194e-06
1.70631e-06
-1.13317e-06
1.66303e-06
-1.18984e-06
1.61879e-06
-1.2422e-06
1.57376e-06
-1.29049e-06
1.52812e-06
-1.3349e-06
1.48205e-06
-1.37563e-06
1.43572e-06
-1.41288e-06
1.38932e-06
-1.4468e-06
1.343e-06
-1.47754e-06
1.297e-06
-1.50535e-06
-1.53052e-06
-1.14256e-09
-3.27054e-07
1.68683e-09
-1.64316e-07
2.3436e-08
-1.11261e-07
6.36843e-08
-5.98235e-08
1.24932e-07
-6.28077e-09
2.1104e-07
5.39874e-08
3.25019e-07
1.25471e-07
4.63568e-07
2.11587e-07
6.15663e-07
3.11114e-07
7.66859e-07
4.17673e-07
9.05716e-07
5.229e-07
1.02683e-06
6.19471e-07
1.12986e-06
7.04438e-07
1.21688e-06
7.77867e-07
1.29015e-06
8.41551e-07
1.35183e-06
8.97376e-07
1.40415e-06
9.46814e-07
1.44922e-06
9.91254e-07
1.48881e-06
1.03193e-06
1.52433e-06
1.06988e-06
1.55683e-06
1.1059e-06
1.58711e-06
1.14058e-06
1.61571e-06
1.17434e-06
1.64305e-06
1.20747e-06
1.66942e-06
1.24018e-06
1.69505e-06
1.27259e-06
1.72009e-06
1.30479e-06
1.74467e-06
1.33684e-06
1.76885e-06
1.36876e-06
1.79272e-06
1.40055e-06
1.8163e-06
1.43221e-06
1.83963e-06
1.4637e-06
1.86273e-06
1.495e-06
1.88561e-06
1.52606e-06
1.90827e-06
1.55682e-06
1.9307e-06
1.58722e-06
1.9529e-06
1.6172e-06
1.97485e-06
1.64666e-06
1.99655e-06
1.67553e-06
2.01798e-06
1.70372e-06
2.03911e-06
1.73111e-06
2.05992e-06
1.7576e-06
2.08039e-06
1.78307e-06
2.1005e-06
1.8074e-06
2.12022e-06
1.83044e-06
2.13952e-06
1.85204e-06
2.15838e-06
1.87205e-06
2.17676e-06
1.8903e-06
2.19464e-06
1.9066e-06
2.21199e-06
1.92076e-06
2.22876e-06
1.93258e-06
2.24493e-06
1.94183e-06
2.26047e-06
1.94827e-06
2.27532e-06
1.95165e-06
2.28947e-06
1.95169e-06
2.30285e-06
1.9481e-06
2.31544e-06
1.94058e-06
2.32717e-06
1.92879e-06
2.33801e-06
1.91238e-06
2.34789e-06
1.89096e-06
2.35675e-06
1.86414e-06
2.36454e-06
1.83147e-06
2.37117e-06
1.7925e-06
2.37657e-06
1.74674e-06
2.38064e-06
1.69366e-06
2.3833e-06
1.63271e-06
2.38443e-06
1.56328e-06
2.38392e-06
1.48474e-06
2.38161e-06
1.39642e-06
2.37736e-06
1.2976e-06
2.37099e-06
1.18749e-06
2.36229e-06
1.06529e-06
2.35104e-06
9.3011e-07
2.33696e-06
7.81002e-07
2.32027e-06
6.02213e-07
2.30144e-06
4.13674e-07
2.28057e-06
2.3963e-07
2.25773e-06
7.91347e-08
2.23297e-06
-6.87217e-08
2.20635e-06
-2.04823e-07
2.1779e-06
-3.30016e-07
2.14766e-06
-4.45116e-07
2.11564e-06
-5.50908e-07
2.08188e-06
-6.48146e-07
2.04641e-06
-7.37552e-07
2.00927e-06
-8.19816e-07
1.97051e-06
-8.95596e-07
1.93019e-06
-9.65513e-07
1.88839e-06
-1.03015e-06
1.84523e-06
-1.09001e-06
1.80085e-06
-1.14546e-06
1.75542e-06
-1.19677e-06
1.70909e-06
-1.24416e-06
1.66204e-06
-1.28785e-06
1.61445e-06
-1.32805e-06
1.56651e-06
-1.36494e-06
1.51839e-06
-1.39869e-06
1.47029e-06
-1.42943e-06
1.42237e-06
-1.45743e-06
-1.48298e-06
-2.00582e-09
-3.25048e-07
-2.81944e-09
-1.63502e-07
9.41018e-09
-1.23491e-07
3.46156e-08
-8.50296e-08
7.48967e-08
-4.65622e-08
1.33232e-07
-4.34856e-09
2.13765e-07
4.49379e-08
3.20597e-07
1.04755e-07
4.53316e-07
1.78394e-07
6.0467e-07
2.6632e-07
7.62652e-07
3.64918e-07
9.14621e-07
4.67501e-07
1.05213e-06
5.66928e-07
1.17202e-06
6.5798e-07
1.27483e-06
7.38737e-07
1.36267e-06
8.09539e-07
1.43751e-06
8.71974e-07
1.50124e-06
9.27527e-07
1.5558e-06
9.77366e-07
1.60309e-06
1.0226e-06
1.64474e-06
1.06425e-06
1.68212e-06
1.1032e-06
1.71627e-06
1.14019e-06
1.74799e-06
1.17576e-06
1.77786e-06
1.21031e-06
1.80632e-06
1.24413e-06
1.8337e-06
1.27742e-06
1.86022e-06
1.31032e-06
1.88608e-06
1.34291e-06
1.91139e-06
1.37524e-06
1.93625e-06
1.40735e-06
1.96074e-06
1.43922e-06
1.9849e-06
1.47084e-06
2.00877e-06
1.50219e-06
2.03236e-06
1.53323e-06
2.0557e-06
1.56389e-06
2.07878e-06
1.59412e-06
2.1016e-06
1.62384e-06
2.12416e-06
1.65298e-06
2.14643e-06
1.68144e-06
2.16841e-06
1.70913e-06
2.19007e-06
1.73594e-06
2.21139e-06
1.76175e-06
2.23235e-06
1.78644e-06
2.25291e-06
1.80987e-06
2.27306e-06
1.83189e-06
2.29276e-06
1.85235e-06
2.31197e-06
1.87108e-06
2.33067e-06
1.8879e-06
2.34881e-06
1.90262e-06
2.36636e-06
1.91503e-06
2.38329e-06
1.9249e-06
2.39954e-06
1.93201e-06
2.41509e-06
1.9361e-06
2.42987e-06
1.9369e-06
2.44385e-06
1.93413e-06
2.45697e-06
1.92746e-06
2.46918e-06
1.91658e-06
2.48043e-06
1.90113e-06
2.49064e-06
1.88075e-06
2.49976e-06
1.85502e-06
2.50771e-06
1.82352e-06
2.51442e-06
1.78579e-06
2.51979e-06
1.74137e-06
2.52374e-06
1.68971e-06
2.52616e-06
1.63029e-06
2.52694e-06
1.5625e-06
2.52595e-06
1.48573e-06
2.52305e-06
1.39932e-06
2.51809e-06
1.30256e-06
2.51088e-06
1.1947e-06
2.50122e-06
1.07495e-06
2.48889e-06
9.42439e-07
2.47363e-06
7.96266e-07
2.45569e-06
6.20154e-07
2.4356e-06
4.33759e-07
2.41349e-06
2.61746e-07
2.38943e-06
1.03192e-07
2.3635e-06
-4.27962e-08
2.33577e-06
-1.77087e-07
2.30626e-06
-3.00513e-07
2.27503e-06
-4.13882e-07
2.24209e-06
-5.1797e-07
2.20747e-06
-6.13528e-07
2.1712e-06
-7.01276e-07
2.13329e-06
-7.81908e-07
2.09378e-06
-8.56088e-07
2.05271e-06
-9.24447e-07
2.01015e-06
-9.8758e-07
1.96616e-06
-1.04602e-06
1.92089e-06
-1.10019e-06
1.87448e-06
-1.15036e-06
1.82709e-06
-1.19677e-06
1.7789e-06
-1.23966e-06
1.73008e-06
-1.27923e-06
1.68083e-06
-1.31569e-06
1.63134e-06
-1.3492e-06
1.58181e-06
-1.3799e-06
1.5324e-06
-1.40802e-06
-1.43383e-06
-2.47289e-09
-3.22575e-07
-5.89659e-09
-1.60078e-07
3.17959e-10
-1.29705e-07
1.5738e-08
-1.00449e-07
4.13773e-08
-7.22013e-08
7.94784e-08
-4.24496e-08
1.32831e-07
-8.41516e-09
2.05379e-07
3.22074e-08
3.0176e-07
8.20126e-08
4.24167e-07
1.43913e-07
5.69354e-07
2.19732e-07
7.28384e-07
3.0847e-07
8.89624e-07
4.05689e-07
1.04237e-06
5.05229e-07
1.18005e-06
6.01065e-07
1.30053e-06
6.89061e-07
1.40471e-06
7.67788e-07
1.49462e-06
8.3762e-07
1.57201e-06
8.99974e-07
1.63853e-06
9.56075e-07
1.69591e-06
1.00687e-06
1.74583e-06
1.05328e-06
1.78987e-06
1.09615e-06
1.82934e-06
1.13628e-06
1.86531e-06
1.17433e-06
1.8986e-06
1.21084e-06
1.92983e-06
1.24619e-06
1.95947e-06
1.28068e-06
1.98786e-06
1.31451e-06
2.01529e-06
1.34782e-06
2.04193e-06
1.3807e-06
2.06794e-06
1.41321e-06
2.09342e-06
1.44536e-06
2.11846e-06
1.47715e-06
2.14312e-06
1.50857e-06
2.16742e-06
1.53958e-06
2.1914e-06
1.57014e-06
2.21507e-06
1.60017e-06
2.23844e-06
1.62962e-06
2.26149e-06
1.65839e-06
2.28423e-06
1.6864e-06
2.30664e-06
1.71354e-06
2.32869e-06
1.7397e-06
2.35038e-06
1.76476e-06
2.37166e-06
1.78859e-06
2.39251e-06
1.81104e-06
2.4129e-06
1.83196e-06
2.43279e-06
1.85119e-06
2.45216e-06
1.86854e-06
2.47095e-06
1.88383e-06
2.48913e-06
1.89685e-06
2.50666e-06
1.90738e-06
2.52349e-06
1.91519e-06
2.53957e-06
1.92002e-06
2.55485e-06
1.92162e-06
2.56928e-06
1.91969e-06
2.5828e-06
1.91394e-06
2.59536e-06
1.90402e-06
2.60689e-06
1.88961e-06
2.61732e-06
1.87031e-06
2.62659e-06
1.84575e-06
2.6346e-06
1.8155e-06
2.64129e-06
1.77911e-06
2.64655e-06
1.7361e-06
2.65029e-06
1.68597e-06
2.65241e-06
1.62817e-06
2.65277e-06
1.56213e-06
2.65126e-06
1.48724e-06
2.64773e-06
1.40285e-06
2.64202e-06
1.30828e-06
2.63395e-06
1.20278e-06
2.62331e-06
1.08558e-06
2.6099e-06
9.55856e-07
2.59344e-06
8.12723e-07
2.57424e-06
6.39349e-07
2.5529e-06
4.55101e-07
2.52954e-06
2.85106e-07
2.50427e-06
1.28462e-07
2.47718e-06
-1.57036e-08
2.44833e-06
-1.4824e-07
2.41778e-06
-2.69966e-07
2.38558e-06
-3.81675e-07
2.35174e-06
-4.84134e-07
2.3163e-06
-5.78084e-07
2.27926e-06
-6.64242e-07
2.24066e-06
-7.43301e-07
2.2005e-06
-8.15926e-07
2.1588e-06
-8.82755e-07
2.11562e-06
-9.44391e-07
2.07099e-06
-1.00139e-06
2.02502e-06
-1.05422e-06
1.97786e-06
-1.1032e-06
1.92966e-06
-1.14857e-06
1.88058e-06
-1.19058e-06
1.8308e-06
-1.22945e-06
1.78051e-06
-1.2654e-06
1.72992e-06
-1.2986e-06
1.67923e-06
-1.32921e-06
1.62861e-06
-1.35739e-06
1.57816e-06
-1.38338e-06
1.52804e-06
-1.40737e-06
1.4784e-06
-1.42939e-06
1.42944e-06
-1.44938e-06
-1.46729e-06
-2.66086e-09
-3.19914e-07
-7.52416e-09
-1.55216e-07
-5.00073e-09
-1.32229e-07
4.21964e-09
-1.0967e-07
2.03993e-08
-8.8381e-08
4.48396e-08
-6.689e-08
7.95187e-08
-4.30943e-08
1.26937e-07
-1.52107e-08
1.9052e-07
1.84295e-08
2.7475e-07
5.96826e-08
3.83556e-07
1.10925e-07
5.17223e-07
1.74804e-07
6.70639e-07
2.52272e-07
8.34595e-07
3.41273e-07
9.98321e-07
4.37339e-07
1.15246e-06
5.34924e-07
1.29145e-06
6.28793e-07
1.4137e-06
7.1537e-07
1.52024e-06
7.93435e-07
1.613e-06
8.63315e-07
1.69357e-06
9.26308e-07
1.76339e-06
9.83461e-07
1.82397e-06
1.03557e-06
1.87686e-06
1.08339e-06
1.92354e-06
1.12765e-06
1.96533e-06
1.16905e-06
2.00329e-06
1.20823e-06
2.03828e-06
1.24569e-06
2.07096e-06
1.28183e-06
2.10184e-06
1.31694e-06
2.13131e-06
1.35124e-06
2.15965e-06
1.38487e-06
2.18709e-06
1.41792e-06
2.21378e-06
1.45046e-06
2.23986e-06
1.48249e-06
2.26541e-06
1.51403e-06
2.2905e-06
1.54505e-06
2.31516e-06
1.5755e-06
2.33944e-06
1.60534e-06
2.36334e-06
1.63449e-06
2.38687e-06
1.66287e-06
2.41002e-06
1.69038e-06
2.43279e-06
1.71693e-06
2.45516e-06
1.74239e-06
2.4771e-06
1.76664e-06
2.49859e-06
1.78955e-06
2.5196e-06
1.81095e-06
2.5401e-06
1.83069e-06
2.56004e-06
1.8486e-06
2.57939e-06
1.86448e-06
2.5981e-06
1.87813e-06
2.61613e-06
1.88935e-06
2.63343e-06
1.89789e-06
2.64994e-06
1.90351e-06
2.66562e-06
1.90594e-06
2.68041e-06
1.90491e-06
2.69424e-06
1.90011e-06
2.70706e-06
1.89121e-06
2.71878e-06
1.87788e-06
2.72935e-06
1.85975e-06
2.73868e-06
1.83642e-06
2.74669e-06
1.80749e-06
2.75329e-06
1.77251e-06
2.75839e-06
1.73101e-06
2.76187e-06
1.68248e-06
2.76364e-06
1.6264e-06
2.76356e-06
1.56221e-06
2.76151e-06
1.4893e-06
2.75732e-06
1.40704e-06
2.75085e-06
1.31475e-06
2.74192e-06
1.21172e-06
2.73031e-06
1.09719e-06
2.71581e-06
9.70353e-07
2.69817e-06
8.30363e-07
2.67774e-06
6.59784e-07
2.65515e-06
4.77691e-07
2.63055e-06
3.09703e-07
2.60407e-06
1.54941e-07
2.57581e-06
1.25547e-08
2.54586e-06
-1.18283e-07
2.51426e-06
-2.38375e-07
2.48109e-06
-3.48497e-07
2.44636e-06
-4.49405e-07
2.4101e-06
-5.41829e-07
2.37234e-06
-6.26477e-07
2.33307e-06
-7.04036e-07
2.29232e-06
-7.75171e-07
2.25008e-06
-8.40521e-07
2.20638e-06
-9.00694e-07
2.16126e-06
-9.56267e-07
2.11477e-06
-1.00774e-06
2.06705e-06
-1.05548e-06
2.01823e-06
-1.09975e-06
1.96847e-06
-1.14081e-06
1.91793e-06
-1.17891e-06
1.86681e-06
-1.21427e-06
1.81529e-06
-1.24709e-06
1.7636e-06
-1.27752e-06
1.71193e-06
-1.30572e-06
1.66039e-06
-1.33184e-06
1.60909e-06
-1.35607e-06
1.55819e-06
-1.37848e-06
1.50785e-06
-1.39904e-06
-1.41769e-06
-2.75998e-09
-3.17154e-07
-8.3989e-09
-1.49576e-07
-8.00965e-09
-1.32617e-07
-2.4219e-09
-1.15257e-07
8.05461e-09
-9.88573e-08
2.40889e-08
-8.29241e-08
4.6851e-08
-6.58564e-08
7.79932e-08
-4.63528e-08
1.19648e-07
-2.32256e-08
1.7456e-07
4.77088e-09
2.46551e-07
3.89349e-08
3.40154e-07
8.12006e-08
4.58201e-07
1.34225e-07
5.99515e-07
1.99959e-07
7.58308e-07
2.78547e-07
9.2561e-07
3.67621e-07
1.09146e-06
4.6294e-07
1.24738e-06
5.59456e-07
1.38834e-06
6.52472e-07
1.51297e-06
7.38682e-07
1.62236e-06
8.16921e-07
1.71837e-06
8.87449e-07
1.80244e-06
9.51502e-07
1.87584e-06
1.01e-06
1.93987e-06
1.06361e-06
1.99596e-06
1.11296e-06
2.04551e-06
1.15869e-06
2.08979e-06
1.20141e-06
2.12989e-06
1.24172e-06
2.16672e-06
1.28011e-06
2.20097e-06
1.31699e-06
2.23318e-06
1.35265e-06
2.26378e-06
1.38732e-06
2.29309e-06
1.42115e-06
2.32136e-06
1.45423e-06
2.34875e-06
1.48664e-06
2.37541e-06
1.51839e-06
2.40145e-06
1.54947e-06
2.42692e-06
1.57986e-06
2.45189e-06
1.60952e-06
2.47638e-06
1.63838e-06
2.50041e-06
1.66635e-06
2.52398e-06
1.69336e-06
2.54709e-06
1.71928e-06
2.56973e-06
1.74401e-06
2.59188e-06
1.7674e-06
2.6135e-06
1.78932e-06
2.63458e-06
1.80962e-06
2.65507e-06
1.82811e-06
2.67494e-06
1.84461e-06
2.69414e-06
1.85894e-06
2.71262e-06
1.87087e-06
2.73034e-06
1.88017e-06
2.74724e-06
1.88661e-06
2.76326e-06
1.88992e-06
2.77834e-06
1.88982e-06
2.79242e-06
1.88602e-06
2.80543e-06
1.8782e-06
2.8173e-06
1.86601e-06
2.82796e-06
1.8491e-06
2.83731e-06
1.82707e-06
2.84527e-06
1.79953e-06
2.85175e-06
1.76603e-06
2.85665e-06
1.72611e-06
2.85986e-06
1.67927e-06
2.86126e-06
1.625e-06
2.86073e-06
1.56274e-06
2.85812e-06
1.4919e-06
2.8533e-06
1.41186e-06
2.84608e-06
1.32196e-06
2.83629e-06
1.2215e-06
2.82374e-06
1.10974e-06
2.80819e-06
9.85904e-07
2.78939e-06
8.49157e-07
2.76774e-06
6.81434e-07
2.74393e-06
5.01505e-07
2.71811e-06
3.35517e-07
2.69044e-06
1.82615e-07
2.66102e-06
4.19713e-08
2.62996e-06
-8.72179e-08
2.59732e-06
-2.05738e-07
2.56317e-06
-3.14347e-07
2.52755e-06
-4.13784e-07
2.49049e-06
-5.04765e-07
2.452e-06
-5.87991e-07
2.4121e-06
-6.64137e-07
2.37079e-06
-7.33864e-07
2.32808e-06
-7.97807e-07
2.28396e-06
-8.56579e-07
2.23846e-06
-9.10761e-07
2.1916e-06
-9.60884e-07
2.14349e-06
-1.00737e-06
2.09426e-06
-1.05051e-06
2.04402e-06
-1.09058e-06
1.99295e-06
-1.12784e-06
1.94119e-06
-1.16252e-06
1.88895e-06
-1.19484e-06
1.83642e-06
-1.225e-06
1.78382e-06
-1.25312e-06
1.7313e-06
-1.27933e-06
1.67898e-06
-1.30375e-06
1.62697e-06
-1.32647e-06
1.57541e-06
-1.34748e-06
-1.36675e-06
-2.80268e-09
-3.14351e-07
-8.78668e-09
-1.43592e-07
-9.62107e-09
-1.31783e-07
-6.01193e-09
-1.18866e-07
1.28262e-09
-1.06152e-07
1.24823e-08
-9.41236e-08
2.82289e-08
-8.1603e-08
4.94858e-08
-6.76097e-08
7.75697e-08
-5.13093e-08
1.14203e-07
-3.18626e-08
1.61465e-07
-8.32661e-09
2.22311e-07
2.03548e-08
3.00928e-07
5.56076e-08
4.01472e-07
9.94147e-08
5.25846e-07
1.54173e-07
6.72032e-07
2.21436e-07
8.34157e-07
3.00815e-07
1.00367e-06
3.89939e-07
1.17129e-06
4.84859e-07
1.32905e-06
5.80918e-07
1.47221e-06
6.73762e-07
1.59944e-06
7.60219e-07
1.71185e-06
8.3909e-07
1.81128e-06
9.10571e-07
1.89899e-06
9.75895e-07
1.97608e-06
1.03587e-06
2.04373e-06
1.09105e-06
2.10318e-06
1.14196e-06
2.15576e-06
1.18914e-06
2.20271e-06
1.23316e-06
2.24514e-06
1.27456e-06
2.28395e-06
1.31383e-06
2.3199e-06
1.35137e-06
2.35356e-06
1.38749e-06
2.38538e-06
1.42241e-06
2.41572e-06
1.4563e-06
2.44485e-06
1.48926e-06
2.47295e-06
1.52136e-06
2.5002e-06
1.55262e-06
2.52669e-06
1.58303e-06
2.5525e-06
1.61256e-06
2.57769e-06
1.64116e-06
2.6023e-06
1.66875e-06
2.62634e-06
1.69524e-06
2.64982e-06
1.72053e-06
2.67273e-06
1.74449e-06
2.69505e-06
1.767e-06
2.71677e-06
1.7879e-06
2.73785e-06
1.80702e-06
2.75826e-06
1.8242e-06
2.77796e-06
1.83924e-06
2.7969e-06
1.85193e-06
2.81503e-06
1.86204e-06
2.83229e-06
1.86935e-06
2.84863e-06
1.87358e-06
2.86399e-06
1.87446e-06
2.8783e-06
1.87171e-06
2.89149e-06
1.86501e-06
2.90348e-06
1.85402e-06
2.9142e-06
1.83838e-06
2.92355e-06
1.81772e-06
2.93145e-06
1.79163e-06
2.9378e-06
1.75968e-06
2.9425e-06
1.72141e-06
2.94543e-06
1.67634e-06
2.94647e-06
1.62396e-06
2.9455e-06
1.56372e-06
2.94236e-06
1.49504e-06
2.93691e-06
1.41731e-06
2.92898e-06
1.32989e-06
2.91839e-06
1.2321e-06
2.90492e-06
1.12321e-06
2.88836e-06
1.00246e-06
2.86846e-06
8.6906e-07
2.84564e-06
7.04253e-07
2.82064e-06
5.26503e-07
2.79364e-06
3.62514e-07
2.7648e-06
2.11458e-07
2.73424e-06
7.25281e-08
2.70208e-06
-5.50555e-08
2.6684e-06
-1.72058e-07
2.63327e-06
-2.79219e-07
2.59675e-06
-3.7726e-07
2.55887e-06
-4.66884e-07
2.51965e-06
-5.48774e-07
2.47911e-06
-6.23599e-07
2.43726e-06
-6.92009e-07
2.39409e-06
-7.54634e-07
2.34959e-06
-8.12086e-07
2.30378e-06
-8.64945e-07
2.25665e-06
-9.13759e-07
2.20828e-06
-9.58996e-07
2.15877e-06
-1.001e-06
2.10823e-06
-1.04004e-06
2.0568e-06
-1.0764e-06
2.00461e-06
-1.11033e-06
1.95183e-06
-1.14206e-06
1.89863e-06
-1.1718e-06
1.8452e-06
-1.19969e-06
1.79173e-06
-1.22586e-06
1.73837e-06
-1.2504e-06
1.68526e-06
-1.27336e-06
1.63253e-06
-1.29475e-06
1.58035e-06
-1.31457e-06
-1.33277e-06
-2.82922e-09
-3.11522e-07
-9.02101e-09
-1.374e-07
-1.09685e-08
-1.29835e-07
-8.7749e-09
-1.2106e-07
-3.48588e-09
-1.11441e-07
4.82073e-09
-1.0243e-07
1.64439e-08
-9.3226e-08
3.19207e-08
-8.30865e-08
5.2004e-08
-7.13926e-08
7.76911e-08
-5.75497e-08
1.10279e-07
-4.09146e-08
1.51368e-07
-2.07348e-08
2.03109e-07
3.86686e-09
2.6869e-07
3.3834e-08
3.52292e-07
7.05701e-08
4.57606e-07
1.16122e-07
5.85933e-07
1.72487e-07
7.35011e-07
2.40861e-07
8.99103e-07
3.20767e-07
1.07007e-06
4.09947e-07
1.23913e-06
5.04704e-07
1.39869e-06
6.00665e-07
1.54408e-06
6.93699e-07
1.67395e-06
7.80695e-07
1.78946e-06
8.6039e-07
1.89232e-06
9.33009e-07
1.98369e-06
9.99673e-07
2.06454e-06
1.06111e-06
2.13589e-06
1.1178e-06
2.19884e-06
1.1702e-06
2.25463e-06
1.21878e-06
2.30443e-06
1.26403e-06
2.34935e-06
1.30645e-06
2.39031e-06
1.34652e-06
2.42809e-06
1.38463e-06
2.4633e-06
1.42109e-06
2.49643e-06
1.45613e-06
2.52786e-06
1.48994e-06
2.55788e-06
1.52261e-06
2.5867e-06
1.55421e-06
2.61449e-06
1.58477e-06
2.64139e-06
1.61427e-06
2.66746e-06
1.64267e-06
2.69278e-06
1.66992e-06
2.71738e-06
1.69593e-06
2.74129e-06
1.72059e-06
2.76449e-06
1.74379e-06
2.787e-06
1.76539e-06
2.80879e-06
1.78523e-06
2.82984e-06
1.80316e-06
2.85011e-06
1.81897e-06
2.86955e-06
1.83248e-06
2.88814e-06
1.84346e-06
2.9058e-06
1.85168e-06
2.92249e-06
1.85689e-06
2.93814e-06
1.85881e-06
2.95269e-06
1.85716e-06
2.96607e-06
1.85164e-06
2.97819e-06
1.8419e-06
2.98897e-06
1.82759e-06
2.99834e-06
1.80835e-06
3.00618e-06
1.78378e-06
3.01242e-06
1.75344e-06
3.01692e-06
1.7169e-06
3.0196e-06
1.67367e-06
3.0203e-06
1.62325e-06
3.01892e-06
1.56511e-06
3.01529e-06
1.49867e-06
3.00926e-06
1.42334e-06
3.00066e-06
1.33849e-06
2.98931e-06
1.24345e-06
2.97499e-06
1.13753e-06
2.95749e-06
1.01997e-06
2.93654e-06
8.90004e-07
2.91262e-06
7.28177e-07
2.88649e-06
5.52626e-07
2.85836e-06
3.90645e-07
2.82839e-06
2.41429e-07
2.79672e-06
1.04195e-07
2.76348e-06
-2.18142e-08
2.72877e-06
-1.37343e-07
2.69266e-06
-2.43111e-07
2.65522e-06
-3.39822e-07
2.6165e-06
-4.28162e-07
2.57653e-06
-5.08802e-07
2.53532e-06
-5.82395e-07
2.4929e-06
-6.4958e-07
2.44924e-06
-7.1098e-07
2.40436e-06
-7.672e-07
2.35823e-06
-8.18819e-07
2.31086e-06
-8.6639e-07
2.26228e-06
-9.10414e-07
2.21256e-06
-9.51282e-07
2.16181e-06
-9.89293e-07
2.11013e-06
-1.02472e-06
2.05764e-06
-1.05784e-06
2.00446e-06
-1.08889e-06
1.95075e-06
-1.11809e-06
1.89667e-06
-1.1456e-06
1.84238e-06
-1.17157e-06
1.78807e-06
-1.19608e-06
1.7339e-06
-1.21919e-06
1.68006e-06
-1.24091e-06
1.62672e-06
-1.26123e-06
1.57408e-06
-1.28013e-06
1.52233e-06
-1.29755e-06
-1.31345e-06
-2.90583e-09
-3.08616e-07
-9.47328e-09
-1.30832e-07
-1.28896e-08
-1.26417e-07
-1.24136e-08
-1.21534e-07
-9.10334e-09
-1.1475e-07
-3.20317e-09
-1.0833e-07
5.38211e-09
-1.01811e-07
1.69415e-08
-9.46458e-08
3.19246e-08
-8.63755e-08
5.09329e-08
-7.6558e-08
7.47373e-08
-6.47189e-08
1.04318e-07
-5.03153e-08
1.40889e-07
-3.27039e-08
1.85888e-07
-1.11658e-08
2.41453e-07
1.50056e-08
3.10922e-07
4.66524e-08
3.98316e-07
8.50929e-08
5.0698e-07
1.32197e-07
6.37925e-07
1.89822e-07
7.88832e-07
2.5904e-07
9.54169e-07
3.39367e-07
1.12618e-06
4.28657e-07
1.29647e-06
5.23409e-07
1.45771e-06
6.19457e-07
1.60532e-06
7.12781e-07
1.73789e-06
8.00438e-07
1.85647e-06
8.81088e-07
1.9627e-06
9.54876e-07
2.05768e-06
1.02282e-06
2.14226e-06
1.08562e-06
2.21732e-06
1.14372e-06
2.28385e-06
1.1975e-06
2.34293e-06
1.24737e-06
2.3957e-06
1.29375e-06
2.44323e-06
1.3371e-06
2.48645e-06
1.37787e-06
2.52615e-06
1.41643e-06
2.56298e-06
1.4531e-06
2.59746e-06
1.48813e-06
2.62998e-06
1.52169e-06
2.66087e-06
1.55388e-06
2.69036e-06
1.58477e-06
2.71864e-06
1.61439e-06
2.74584e-06
1.64272e-06
2.77206e-06
1.66971e-06
2.79736e-06
1.69529e-06
2.82178e-06
1.71937e-06
2.84535e-06
1.74182e-06
2.86807e-06
1.76251e-06
2.88993e-06
1.78129e-06
2.91092e-06
1.79798e-06
2.93101e-06
1.8124e-06
2.95014e-06
1.82432e-06
2.96829e-06
1.83353e-06
2.9854e-06
1.83978e-06
3.0014e-06
1.84281e-06
3.01624e-06
1.84233e-06
3.02984e-06
1.83804e-06
3.04213e-06
1.82961e-06
3.05302e-06
1.8167e-06
3.06243e-06
1.79895e-06
3.07025e-06
1.77595e-06
3.0764e-06
1.7473e-06
3.08076e-06
1.71254e-06
3.08321e-06
1.67122e-06
3.08363e-06
1.62283e-06
3.08187e-06
1.56686e-06
3.07781e-06
1.50274e-06
3.07126e-06
1.42989e-06
3.06206e-06
1.34769e-06
3.05002e-06
1.25549e-06
3.03493e-06
1.15262e-06
3.01655e-06
1.03834e-06
2.99465e-06
9.11909e-07
2.9697e-06
7.53125e-07
2.94253e-06
5.798e-07
2.91333e-06
4.19843e-07
2.88228e-06
2.72473e-07
2.84955e-06
1.36929e-07
2.81526e-06
1.24749e-08
2.77953e-06
-1.01609e-07
2.74244e-06
-2.06025e-07
2.70408e-06
-3.01459e-07
2.6645e-06
-3.88579e-07
2.62374e-06
-4.68041e-07
2.58182e-06
-5.40483e-07
2.53878e-06
-6.06532e-07
2.49459e-06
-6.66799e-07
2.44928e-06
-7.21881e-07
2.40281e-06
-7.72351e-07
2.35518e-06
-8.1876e-07
2.30639e-06
-8.61623e-07
2.25648e-06
-9.01379e-07
2.20555e-06
-9.38356e-07
2.15366e-06
-9.72838e-07
2.10092e-06
-1.0051e-06
2.04744e-06
-1.03541e-06
1.99334e-06
-1.06398e-06
1.93875e-06
-1.09102e-06
1.88385e-06
-1.11667e-06
1.82879e-06
-1.14103e-06
1.77377e-06
-1.16417e-06
1.71898e-06
-1.18612e-06
1.66461e-06
-1.20686e-06
1.61086e-06
-1.22638e-06
1.55793e-06
-1.24462e-06
1.50599e-06
-1.26151e-06
-1.277e-06
-2.94836e-09
-3.05667e-07
-9.87241e-09
-1.23908e-07
-1.48416e-08
-1.21448e-07
-1.63111e-08
-1.20065e-07
-1.51658e-08
-1.15896e-07
-1.172e-08
-1.11776e-07
-5.978e-09
-1.07553e-07
2.21971e-09
-1.02844e-07
1.31555e-08
-9.73114e-08
2.72296e-08
-9.06321e-08
4.49595e-08
-8.24489e-08
6.69866e-08
-7.23426e-08
9.40929e-08
-5.98104e-08
1.27203e-07
-4.4276e-08
1.67375e-07
-2.51668e-08
2.15978e-07
-1.95038e-09
2.75136e-07
2.59346e-08
3.48085e-07
5.92482e-08
4.38667e-07
9.92403e-08
5.50004e-07
1.47703e-07
6.8295e-07
2.06421e-07
8.35204e-07
2.76403e-07
1.00145e-06
3.57165e-07
1.17426e-06
4.46641e-07
1.34558e-06
5.41468e-07
1.50835e-06
6.37665e-07
1.65808e-06
7.31356e-07
1.79324e-06
8.19718e-07
1.91473e-06
9.01328e-07
2.02414e-06
9.76214e-07
2.12255e-06
1.04531e-06
2.2107e-06
1.10935e-06
2.28937e-06
1.1687e-06
2.3594e-06
1.22373e-06
2.42175e-06
1.27475e-06
2.47749e-06
1.32213e-06
2.52764e-06
1.36628e-06
2.57313e-06
1.40761e-06
2.61476e-06
1.4465e-06
2.6532e-06
1.48325e-06
2.68899e-06
1.51809e-06
2.72256e-06
1.55121e-06
2.75424e-06
1.58271e-06
2.7843e-06
1.61266e-06
2.81293e-06
1.64108e-06
2.84029e-06
1.66794e-06
2.86647e-06
1.69319e-06
2.89154e-06
1.71674e-06
2.91557e-06
1.73849e-06
2.93856e-06
1.7583e-06
2.96052e-06
1.77602e-06
2.98145e-06
1.79147e-06
3.00132e-06
1.80445e-06
3.0201e-06
1.81475e-06
3.03775e-06
1.82213e-06
3.05421e-06
1.82634e-06
3.06943e-06
1.82711e-06
3.08334e-06
1.82413e-06
3.09587e-06
1.81708e-06
3.10693e-06
1.80564e-06
3.11644e-06
1.78944e-06
3.12431e-06
1.76809e-06
3.13043e-06
1.74118e-06
3.13469e-06
1.70828e-06
3.13698e-06
1.66893e-06
3.13716e-06
1.62265e-06
3.13511e-06
1.56891e-06
3.13067e-06
1.50718e-06
3.12368e-06
1.43688e-06
3.11395e-06
1.35741e-06
3.10131e-06
1.26814e-06
3.08553e-06
1.1684e-06
3.06638e-06
1.05749e-06
3.04362e-06
9.34676e-07
3.01774e-06
7.79e-07
2.98961e-06
6.07935e-07
2.95942e-06
4.50025e-07
2.92738e-06
3.04516e-07
2.89364e-06
1.70667e-07
2.85836e-06
4.77634e-08
2.82164e-06
-6.48914e-08
2.7836e-06
-1.67983e-07
2.74432e-06
-2.62177e-07
2.70386e-06
-3.48126e-07
2.66229e-06
-4.26468e-07
2.61964e-06
-4.9783e-07
2.57593e-06
-5.62822e-07
2.53117e-06
-6.22046e-07
2.48538e-06
-6.76084e-07
2.43853e-06
-7.25503e-07
2.39061e-06
-7.70845e-07
2.34162e-06
-8.12625e-07
2.29155e-06
-8.5131e-07
2.24046e-06
-8.87271e-07
2.18843e-06
-9.20805e-07
2.13552e-06
-9.52192e-07
2.08182e-06
-9.81706e-07
2.02743e-06
-1.0096e-06
1.97249e-06
-1.03607e-06
1.91713e-06
-1.06131e-06
1.86152e-06
-1.08542e-06
1.80584e-06
-1.10849e-06
1.75029e-06
-1.13056e-06
1.69506e-06
-1.15164e-06
1.64036e-06
-1.17168e-06
1.58639e-06
-1.19064e-06
1.53332e-06
-1.20844e-06
1.48134e-06
-1.22502e-06
1.4306e-06
-1.24027e-06
-1.25414e-06
-2.89144e-09
-3.02776e-07
-9.834e-09
-1.16964e-07
-1.57928e-08
-1.15488e-07
-1.88707e-08
-1.16986e-07
-1.96778e-08
-1.15088e-07
-1.85111e-08
-1.12942e-07
-1.54157e-08
-1.10648e-07
-1.02949e-08
-1.07964e-07
-2.94636e-09
-1.0466e-07
6.92143e-09
-1.005e-07
1.96905e-08
-9.52178e-08
3.58421e-08
-8.84941e-08
5.59582e-08
-7.99265e-08
8.07164e-08
-6.90342e-08
1.1088e-07
-5.533e-08
1.47292e-07
-3.83626e-08
1.9091e-07
-1.76838e-08
2.43001e-07
7.15735e-09
3.05575e-07
3.66666e-08
3.81731e-07
7.15471e-08
4.75166e-07
1.12985e-07
5.88831e-07
1.62738e-07
7.23458e-07
2.22539e-07
8.76776e-07
2.93323e-07
1.04366e-06
3.74586e-07
1.21701e-06
4.64316e-07
1.38908e-06
5.5928e-07
1.55313e-06
6.55672e-07
1.7047e-06
7.49758e-07
1.84213e-06
8.38784e-07
1.96618e-06
9.21265e-07
2.07842e-06
9.97105e-07
2.17993e-06
1.06719e-06
2.27137e-06
1.13229e-06
2.35339e-06
1.19273e-06
2.42669e-06
1.24882e-06
2.49215e-06
1.30083e-06
2.55071e-06
1.34904e-06
2.60338e-06
1.39383e-06
2.65105e-06
1.43558e-06
2.69452e-06
1.47462e-06
2.73447e-06
1.51126e-06
2.77146e-06
1.54572e-06
2.80594e-06
1.57818e-06
2.83828e-06
1.60875e-06
2.86874e-06
1.63748e-06
2.89753e-06
1.66439e-06
2.92483e-06
1.68944e-06
2.95074e-06
1.71258e-06
2.97535e-06
1.7337e-06
2.99869e-06
1.75268e-06
3.02081e-06
1.76935e-06
3.0417e-06
1.78356e-06
3.06135e-06
1.7951e-06
3.07974e-06
1.80374e-06
3.09684e-06
1.80925e-06
3.11259e-06
1.81136e-06
3.12693e-06
1.80978e-06
3.13981e-06
1.80421e-06
3.15115e-06
1.79431e-06
3.16085e-06
1.77973e-06
3.16884e-06
1.7601e-06
3.17502e-06
1.73501e-06
3.17926e-06
1.70403e-06
3.18147e-06
1.66673e-06
3.1815e-06
1.62261e-06
3.17923e-06
1.57118e-06
3.1745e-06
1.51191e-06
3.16714e-06
1.44423e-06
3.15699e-06
1.36757e-06
3.14383e-06
1.28129e-06
3.12747e-06
1.18476e-06
3.10766e-06
1.0773e-06
3.08414e-06
9.58196e-07
3.05744e-06
8.05694e-07
3.02845e-06
6.36924e-07
2.99739e-06
4.81092e-07
2.96444e-06
3.37465e-07
2.92978e-06
2.05326e-07
2.89356e-06
8.39782e-08
2.85593e-06
-2.72533e-08
2.81698e-06
-1.29034e-07
2.77681e-06
-2.22011e-07
2.7355e-06
-3.06821e-07
2.69312e-06
-3.84087e-07
2.64971e-06
-4.5442e-07
2.60531e-06
-5.18421e-07
2.55994e-06
-5.76678e-07
2.51362e-06
-6.29763e-07
2.46635e-06
-6.78233e-07
2.41812e-06
-7.22616e-07
2.36891e-06
-7.63411e-07
2.31869e-06
-8.01091e-07
2.26749e-06
-8.36068e-07
2.21535e-06
-8.68666e-07
2.16233e-06
-8.99173e-07
2.1085e-06
-9.27872e-07
2.05393e-06
-9.55031e-07
1.99874e-06
-9.80883e-07
1.94306e-06
-1.00562e-06
1.88703e-06
-1.02939e-06
1.83084e-06
-1.0523e-06
1.77467e-06
-1.07439e-06
1.71872e-06
-1.09569e-06
1.6632e-06
-1.11616e-06
1.6083e-06
-1.13574e-06
1.55423e-06
-1.15437e-06
1.50116e-06
-1.17195e-06
1.44927e-06
-1.18838e-06
1.39869e-06
-1.20356e-06
1.34956e-06
-1.21741e-06
1.30199e-06
-1.22984e-06
1.25604e-06
-1.24078e-06
-1.25019e-06
-2.74076e-09
-3.00035e-07
-9.28061e-09
-1.10424e-07
-1.52618e-08
-1.09507e-07
-1.91113e-08
-1.13137e-07
-2.1153e-08
-1.13047e-07
-2.162e-08
-1.12475e-07
-2.05713e-08
-1.11697e-07
-1.79469e-08
-1.10589e-07
-1.35955e-08
-1.09011e-07
-7.28679e-09
-1.06809e-07
1.28752e-09
-1.03792e-07
1.25156e-08
-9.97223e-08
2.68764e-08
-9.42875e-08
4.49336e-08
-8.70916e-08
6.73075e-08
-7.7704e-08
9.46658e-08
-6.57209e-08
1.27724e-07
-5.07422e-08
1.67247e-07
-3.23653e-08
2.14099e-07
-1.01854e-08
2.69443e-07
1.6203e-08
3.35168e-07
4.72604e-08
4.14253e-07
8.3653e-08
5.10268e-07
1.26524e-07
6.25988e-07
1.77602e-07
7.62015e-07
2.38559e-07
9.16099e-07
3.10233e-07
1.0833e-06
3.92079e-07
1.25684e-06
4.82133e-07
1.42931e-06
5.77285e-07
1.59421e-06
6.73887e-07
1.74714e-06
7.68331e-07
1.88635e-06
8.57902e-07
2.01246e-06
9.41084e-07
2.12706e-06
1.01768e-06
2.23123e-06
1.08856e-06
2.32554e-06
1.15452e-06
2.41052e-06
1.21584e-06
2.48676e-06
1.27281e-06
2.55501e-06
1.32559e-06
2.61615e-06
1.37444e-06
2.6711e-06
1.41966e-06
2.72074e-06
1.46161e-06
2.76586e-06
1.5006e-06
2.80714e-06
1.5369e-06
2.84514e-06
1.57074e-06
2.88034e-06
1.60228e-06
2.91311e-06
1.63162e-06
2.94374e-06
1.65881e-06
2.97246e-06
1.68386e-06
2.99944e-06
1.70672e-06
3.0248e-06
1.72732e-06
3.04862e-06
1.74553e-06
3.07097e-06
1.76122e-06
3.09186e-06
1.7742e-06
3.11131e-06
1.78429e-06
3.1293e-06
1.79126e-06
3.14581e-06
1.79485e-06
3.16079e-06
1.7948e-06
3.17419e-06
1.79081e-06
3.18595e-06
1.78255e-06
3.19598e-06
1.76969e-06
3.20422e-06
1.75186e-06
3.21055e-06
1.72867e-06
3.21489e-06
1.6997e-06
3.21711e-06