/*--------------------------------*- C++ -*----------------------------------*\
  =========                 |
  \\      /  F ield         | OpenFOAM: The Open Source CFD Toolbox
   \\    /   O peration     | Website:  https://openfoam.org
    \\  /    A nd           | Version:  10
     \\/     M anipulation  |
\*---------------------------------------------------------------------------*/
FoamFile
{
    format      ascii;
    class       volScalarField;
    location    "2000";
    object      omega;
}
// * * * * * * * * * * * * * * * * * * * * * * * * * * * * * * * * * * * * * //

dimensions      [0 0 -1 0 0 0 0];

internalField   nonuniform List<scalar> 
17808
(
6371.88
2658.87
1528.94
1053.63
797.139
638.283
530.656
453.08
394.581
348.924
312.315
282.313
257.28
236.073
217.873
202.078
188.237
176.001
165.104
155.335
146.522
138.525
131.235
124.559
118.42
112.753
107.5
102.613
98.048
93.7698
89.748
85.958
82.3794
78.9955
75.7917
72.7555
69.8755
67.1413
64.5434
62.0728
59.7213
57.4812
55.3453
53.3069
51.3596
49.4977
47.7155
46.008
44.3703
42.7982
41.2877
39.8351
38.4372
37.0911
35.7942
34.5439
33.3383
32.1754
31.0534
29.9711
28.9272
27.921
26.9525
26.0222
25.1306
24.278
23.4641
22.6882
21.9488
21.2445
20.5736
19.9343
19.3249
18.7436
18.1887
17.6586
17.1513
16.6646
16.1967
15.7461
15.3112
14.8907
14.4834
14.0881
13.7037
13.3294
12.9642
12.6074
12.2582
11.9162
11.5808
11.2512
6372.05
2657.7
1528.54
1053.8
797.388
638.513
530.847
453.232
394.698
349.012
312.379
282.357
257.307
236.085
217.873
202.068
188.217
175.974
165.071
155.296
146.479
138.481
131.187
124.508
118.366
112.696
107.441
102.551
97.9851
93.7062
89.6846
85.8952
82.3177
78.9349
75.7323
72.6972
69.8183
67.0852
64.4883
62.0187
59.6683
57.4294
55.2948
53.2578
51.3121
49.4518
47.6713
45.9655
44.3296
42.7592
41.2505
39.7997
38.4037
37.0593
35.7641
34.5155
33.3116
32.1502
31.0299
29.9491
28.9067
27.902
26.9349
26.0058
25.1153
24.2636
23.4506
22.6754
21.9368
21.2333
20.5631
19.9245
19.3158
18.7352
18.181
17.6515
17.145
16.6591
16.1919
15.7418
15.3074
14.8872
14.48
14.0846
13.7
13.3252
12.9594
12.6017
12.2516
11.9084
11.5717
11.2409
6373.2
2657.13
1528.15
1053.65
797.354
638.517
530.864
453.25
394.713
349.023
312.384
282.356
257.299
236.071
217.853
202.042
188.186
175.938
165.031
155.252
146.433
138.435
131.142
124.462
118.318
112.645
107.387
102.496
97.9287
93.6494
89.6281
85.8396
82.2632
78.8817
75.6805
72.6467
69.769
67.037
64.4412
61.9728
59.6236
57.386
55.2527
53.2172
51.273
49.4143
47.6355
45.9315
44.2974
42.7289
41.222
39.773
38.3788
37.0362
35.7427
34.4959
33.2936
32.1339
31.0151
29.9359
28.8949
27.8917
26.9258
25.9978
25.1082
24.2573
23.4449
22.6703
21.9321
21.229
20.5592
19.9211
19.3128
18.7327
18.1789
17.6499
17.1438
16.6585
16.1919
15.7423
15.3083
14.8884
14.4813
14.0859
13.701
13.3258
12.9594
12.601
12.25
11.9057
11.5679
11.236
6374.09
2656.82
1527.79
1053.39
797.211
638.43
530.802
453.202
394.671
348.985
312.347
282.32
257.262
236.032
217.812
201.999
188.141
175.891
164.982
155.202
146.382
138.386
131.096
124.416
118.271
112.596
107.337
102.444
97.8759
93.5964
89.5755
85.788
82.213
78.833
75.6332
72.6009
69.7245
66.9938
64.3993
61.9322
59.5844
57.3481
55.2164
53.1824
51.2399
49.3829
47.6059
45.9037
44.2716
42.705
41.2
39.753
38.3606
37.0199
35.7282
34.4831
33.2825
32.1245
31.0074
29.9297
28.8903
27.8884
26.9238
25.9968
25.108
24.2576
23.4457
22.6714
21.9335
21.2306
20.5611
19.9232
19.3151
18.7352
18.1817
17.6529
17.1471
16.6623
16.1961
15.7469
15.3132
14.8935
14.4865
14.091
13.706
13.3304
12.9634
12.6043
12.2525
11.9073
11.5684
11.2354
6374.79
2656.55
1527.33
1053
796.963
638.26
530.676
453.102
394.588
348.912
312.281
282.258
257.203
235.976
217.756
201.943
188.084
175.835
164.927
155.148
146.329
138.334
131.047
124.371
118.226
112.551
107.29
102.396
97.8271
93.5477
89.5274
85.741
82.1674
78.789
75.5909
72.5602
69.6854
66.9561
64.3631
61.8974
59.5509
57.3162
55.186
53.1537
51.213
49.3578
47.5827
45.8824
44.2522
42.6876
41.1846
39.7396
38.3491
37.0104
35.7205
34.4773
33.2785
32.1221
31.0066
29.9305
28.8925
27.892
26.9285
26.0025
25.1143
24.2645
23.4528
22.6786
21.9408
21.238
20.5685
19.9306
19.3226
18.7427
18.1892
17.6605
17.1548
16.6701
16.2042
15.7554
15.3219
14.9024
14.4955
14.0999
13.7147
13.3388
12.9713
12.6116
12.2589
11.9129
11.573
11.2391
6375.39
2656.53
1526.88
1052.56
796.651
638.031
530.501
452.961
394.471
348.811
312.192
282.177
257.128
235.904
217.687
201.877
188.021
175.774
164.868
155.091
146.273
138.28
130.997
124.326
118.184
112.508
107.247
102.352
97.7828
93.5036
89.4841
85.6989
82.1269
78.7502
75.5539
72.5249
69.6517
66.9241
64.3326
61.8684
59.5235
57.2904
55.1619
53.1313
51.1923
49.3391
47.5659
45.8676
44.2394
42.6769
41.1759
39.7329
38.3444
37.0076
35.7197
34.4783
33.2812
32.1266
31.0127
29.9381
28.9016
27.9023
26.94
26.0148
25.1272
24.2776
23.466
22.6918
21.9539
21.2509
20.5812
19.9432
19.335
18.7549
18.2013
17.6724
17.1666
16.6819
16.2162
15.7675
15.3342
14.9148
14.508
14.1124
13.727
13.3508
12.9829
12.6226
12.2693
11.9224
11.5817
11.2468
6375.81
2656.81
1526.49
1052.13
796.316
637.774
530.298
452.796
394.332
348.691
312.086
282.081
257.04
235.822
217.611
201.805
187.953
175.71
164.806
155.032
146.218
138.227
130.948
124.282
118.144
112.47
107.208
102.313
97.7435
93.4646
89.446
85.6621
82.0917
78.7169
75.5224
72.4953
69.6239
66.898
64.308
61.8455
59.5022
57.2707
55.1439
53.1152
51.1781
49.3267
47.5555
45.8593
44.2332
42.6727
41.1738
39.7328
38.3464
37.0115
35.7255
34.4859
33.2907
32.1377
31.0254
29.9523
28.9172
27.9192
26.9579
26.0335
25.1463
24.2969
23.4853
22.7109
21.9726
21.2693
20.5992
19.9608
19.3522
18.7718
18.2178
17.6886
17.1824
16.6975
16.2318
15.7832
15.35
14.9306
14.5238
14.1281
13.7426
13.3661
12.9979
12.6372
12.2833
11.9357
11.5942
11.2586
6376.04
2657.32
1526.18
1051.72
795.976
637.501
530.078
452.615
394.178
348.558
311.969
281.976
256.945
235.735
217.53
201.73
187.883
175.644
164.745
154.974
146.163
138.176
130.901
124.24
118.107
112.435
107.174
102.279
97.7095
93.4311
89.4134
85.6309
82.0622
78.6892
75.4967
72.4715
69.602
66.8778
64.2896
61.8287
59.4871
57.2574
55.1323
53.1054
51.1702
49.3208
47.5516
45.8574
44.2334
42.675
41.1781
39.7392
38.3548
37.0219
35.7378
34.5001
33.3066
32.1553
31.0446
29.973
28.9392
27.9424
26.9821
26.0584
25.1716
24.3222
23.5104
22.7356
21.9968
21.2929
20.6223
19.9832
19.3741
18.7931
18.2386
17.7088
17.2021
16.7168
16.2509
15.8022
15.369
14.9496
14.5427
14.147
13.7614
13.3847
13.0162
12.6551
12.3007
11.9526
11.6104
11.2741
6376.09
2658.03
1525.94
1051.35
795.639
637.22
529.846
452.422
394.015
348.417
311.845
281.867
256.846
235.645
217.448
201.654
187.812
175.578
164.684
154.918
146.111
138.128
130.857
124.202
118.073
112.405
107.145
102.25
97.6812
93.4034
89.3867
85.6056
82.0386
78.6675
75.477
72.4537
69.5861
66.8637
64.2773
61.8181
59.4782
57.2502
55.1269
53.1018
51.1685
49.3211
47.5539
45.8618
44.2398
42.6835
41.1888
39.7519
38.3695
37.0386
35.7564
34.5205
33.3288
32.1791
31.07
29.9998
28.9674
27.9717
27.0123
26.0892
25.2027
24.3533
23.5411
22.7657
22.0263
21.3216
20.6502
20.0104
19.4004
18.8187
18.2634
17.7329
17.2255
16.7397
16.2733
15.8244
15.391
14.9716
14.5646
14.1688
13.7831
13.4063
13.0375
12.6761
12.3214
11.9728
11.6302
11.2933
6375.97
2658.9
1525.77
1051
795.311
636.938
529.61
452.223
393.846
348.272
311.718
281.754
256.745
235.554
217.364
201.577
187.742
175.514
164.625
154.864
146.062
138.084
130.818
124.168
118.045
112.38
107.122
102.227
97.6589
93.3817
89.366
85.5864
82.0211
78.6519
75.4633
72.442
69.5762
66.8557
64.271
61.8136
59.4754
57.2491
55.1277
53.1044
51.173
49.3275
47.5624
45.8723
44.2524
42.6981
41.2055
39.7706
38.3903
37.0613
35.781
34.5469
33.3569
32.2089
31.1013
30.0325
29.0013
28.0067
27.0482
26.1256
25.2393
24.3898
23.5771
22.801
22.0608
21.3552
20.6828
20.0419
19.431
18.8483
18.2921
17.7607
17.2525
16.7658
16.2989
15.8496
15.4159
14.9963
14.5892
14.1933
13.8075
13.4306
13.0617
12.7001
12.3451
11.9962
11.6532
11.316
6375.69
2659.92
1525.65
1050.69
794.996
636.66
529.373
452.022
393.674
348.123
311.589
281.64
256.643
235.462
217.282
201.503
187.674
175.452
164.569
154.814
146.017
138.044
130.784
124.139
118.021
112.36
107.104
102.211
97.6427
93.3663
89.3517
85.5734
82.0098
78.6424
75.4558
72.4364
69.5725
66.8538
64.2708
61.8151
59.4787
57.2541
55.1344
53.1129
51.1834
49.3399
47.5767
45.8886
44.2708
42.7186
41.2279
39.7951
38.4167
37.0897
35.8112
34.5789
33.3906
32.2442
31.138
30.0706
29.0407
28.0472
27.0895
26.1674
25.2813
24.4315
23.6182
22.8414
22.1001
21.3934
20.7198
20.0778
19.4657
18.8818
18.3245
17.792
17.2827
16.7951
16.3275
15.8776
15.4435
15.0236
14.6163
14.2203
13.8343
13.4574
13.0884
12.7267
12.3716
12.0226
11.6793
11.3418
6375.27
2661.08
1525.6
1050.4
794.695
636.388
529.138
451.82
393.502
347.975
311.459
281.526
256.543
235.373
217.202
201.431
187.61
175.395
164.518
154.768
145.978
138.01
130.755
124.116
118.003
112.345
107.091
102.2
97.6327
93.3572
89.3437
85.5667
82.0047
78.6391
75.4543
72.4368
69.5747
66.8578
64.2765
61.8225
59.4877
57.2648
55.1468
53.1271
51.1995
49.3578
47.5966
45.9105
44.2947
42.7445
41.2558
39.825
38.4485
37.1233
35.8467
34.6162
33.4295
32.2847
31.18
30.1139
29.0852
28.0927
27.1358
26.2142
25.3282
24.4781
23.6642
22.8863
22.1439
21.4359
20.761
20.1176
19.5042
18.9189
18.3603
17.8266
17.3162
16.8274
16.3588
15.9082
15.4736
15.0532
14.6457
14.2495
13.8635
13.4865
13.1175
12.7558
12.4007
12.0517
11.7083
11.3707
6374.72
2662.37
1525.61
1050.15
794.41
636.125
528.907
451.621
393.331
347.827
311.331
281.414
256.444
235.286
217.125
201.362
187.549
175.341
164.471
154.727
145.943
137.982
130.733
124.099
117.99
112.336
107.085
102.195
97.6291
93.3544
89.342
85.5664
82.0059
78.642
75.4589
72.4431
69.5828
66.8676
64.288
61.8356
59.5024
57.2811
55.1648
53.1468
51.2209
49.3811
47.6218
45.9376
44.3237
42.7755
41.2888
39.8599
38.4853
37.162
35.8872
34.6583
33.4733
32.33
31.2267
30.162
29.1344
28.1429
27.1868
26.2657
25.3797
24.5293
23.7146
22.9357
22.192
21.4826
20.8062
20.1613
19.5462
18.9595
18.3994
17.8643
17.3525
16.8626
16.3928
15.9413
15.506
15.0852
14.6772
14.2808
13.8947
13.5177
13.1488
12.7873
12.4323
12.0833
11.74
11.4024
6374.05
2663.78
1525.69
1049.93
794.144
635.872
528.682
451.426
393.162
347.682
311.206
281.305
256.349
235.202
217.051
201.298
187.493
175.292
164.429
154.692
145.914
137.959
130.717
124.089
117.984
112.334
107.085
102.196
97.6316
93.358
89.3466
85.5722
82.0131
78.6508
75.4694
72.4553
69.5966
66.883
64.3049
61.854
59.5224
57.3027
55.1879
53.1716
51.2474
49.4094
47.6519
45.9696
44.3575
42.8112
41.3264
39.8994
38.5266
37.2051
35.932
34.7049
33.5214
32.3797
31.2778
30.2143
29.1879
28.1974
27.242
26.3214
25.4355
24.5846
23.7692
22.9892
22.2441
21.5331
20.855
20.2084
19.5917
19.0033
18.4416
17.9049
17.3917
16.9003
16.4293
15.9768
15.5406
15.1191
14.7108
14.3141
13.9278
13.5509
13.1822
12.8209
12.4662
12.1176
11.7744
11.4369
6373.26
2665.3
1525.82
1049.74
793.898
635.63
528.464
451.236
392.998
347.54
311.084
281.199
256.257
235.123
216.983
201.239
187.442
175.249
164.393
154.663
145.891
137.943
130.707
124.084
117.984
112.337
107.091
102.204
97.6403
93.3677
89.3573
85.5841
82.0263
78.6654
75.4856
72.473
69.6159
66.9037
64.3271
61.8776
59.5474
57.3291
55.2159
53.2011
51.2785
49.4422
47.6865
46.0059
44.3957
42.8512
41.3683
39.943
38.5721
37.2523
35.9809
34.7554
33.5735
32.4332
31.3327
30.2705
29.2452
28.2556
27.301
26.3808
25.495
24.6438
23.8276
23.0464
22.2998
21.5872
20.9073
20.2589
19.6403
19.0501
18.4866
17.9482
17.4333
16.9405
16.4681
16.0144
15.5772
15.155
14.7461
14.3491
13.9627
13.5859
13.2175
12.8567
12.5028
12.1545
11.8116
11.474
6372.37
2666.93
1526.02
1049.59
793.673
635.403
528.257
451.053
392.84
347.404
310.966
281.099
256.171
235.048
216.919
201.184
187.396
175.211
164.362
154.639
145.875
137.933
130.704
124.086
117.99
112.346
107.102
102.217
97.6549
93.3833
89.3739
85.6017
82.0452
78.6856
75.5071
72.496
69.6402
66.9294
64.3541
61.9059
59.577
57.3601
55.2482
53.2349
51.3139
49.4792
47.7251
46.0463
44.4378
42.8951
41.4139
39.9904
38.6211
37.3031
36.0333
34.8094
33.629
32.4902
31.3911
30.3301
29.3059
28.3173
27.3634
26.4437
25.558
24.7064
23.8894
23.107
22.3589
21.6445
20.9627
20.3123
19.6918
19.0996
18.5342
17.9939
17.4774
16.9829
16.509
16.054
15.6157
15.1926
14.7831
14.3857
13.9993
13.6227
13.2548
12.8952
12.543
12.1952
11.8523
11.5142
6371.39
2668.66
1526.28
1049.47
793.472
635.191
528.06
450.879
392.688
347.274
310.855
281.003
256.089
234.979
216.86
201.136
187.356
175.179
164.337
154.622
145.864
137.929
130.706
124.094
118.002
112.361
107.119
102.236
97.6752
93.4046
89.3961
85.6249
82.0694
78.711
75.5338
72.5239
69.6693
66.9597
64.3856
61.9386
59.6108
57.3951
55.2846
53.2726
51.3531
49.5198
47.7673
46.0901
44.4833
42.9422
41.4627
40.0409
38.6733
37.3569
36.0887
34.8664
33.6875
32.55
31.4522
30.3925
29.3694
28.3817
27.4286
26.5094
25.6239
24.772
23.9542
23.1706
22.4209
21.7047
21.021
20.3685
19.7458
19.1516
18.5841
18.042
17.5236
17.0273
16.5519
16.0954
15.6559
15.2319
14.8216
14.4239
14.0374
13.6611
13.2941
12.9366
6370.31
2670.5
1526.6
1049.4
793.297
634.997
527.876
450.714
392.545
347.15
310.749
280.913
256.014
234.916
216.808
201.092
187.322
175.153
164.319
154.61
145.86
137.931
130.715
124.108
118.019
112.381
107.142
102.26
97.7008
93.4311
89.4235
85.6532
82.0986
78.7413
75.5651
72.5563
69.7028
66.9942
64.4211
61.9751
59.6484
57.4338
55.3244
53.3137
51.3955
49.5637
47.8126
46.137
44.5317
42.9923
41.5143
40.0941
38.7281
37.4132
36.1466
34.9258
33.7483
32.6123
31.5158
30.4573
29.4353
28.4486
27.4963
26.5776
25.6922
24.8401
24.0216
23.2368
22.4855
21.7675
21.0817
20.4271
19.8023
19.2058
18.6363
18.0921
17.5717
17.0737
16.5965
16.1385
15.6977
15.2726
14.8616
14.4635
14.077
13.7011
13.3344
12.9771
6369.14
2672.43
1526.98
1049.37
793.15
634.822
527.705
450.56
392.41
347.034
310.651
280.83
255.944
234.858
216.761
201.055
187.293
175.132
164.306
154.605
145.861
137.94
130.729
124.126
118.041
112.406
107.169
102.29
97.7312
93.4625
89.4557
85.6862
82.1324
78.776
75.6007
72.5927
69.7402
67.0324
64.4602
62.015
59.6892
57.4755
55.3672
53.3577
51.4407
49.6102
47.8606
46.1864
44.5826
43.0446
41.5682
40.1495
38.785
37.4716
36.2065
34.9871
33.8111
32.6764
31.5812
30.5239
29.503
28.5173
27.5658
26.6477
25.7625
24.9103
24.0911
23.3052
22.5524
21.8325
21.1446
20.4878
19.8608
19.2621
18.6903
18.144
17.6216
17.1216
16.6427
16.1831
15.7409
15.3147
14.903
14.5046
14.1184
13.7435
13.3767
13.0188
6367.89
2674.46
1527.42
1049.38
793.032
634.668
527.55
450.417
392.285
346.927
310.559
280.754
255.881
234.807
216.72
201.024
187.271
175.118
164.299
154.605
145.868
137.953
130.748
124.15
118.067
112.435
107.201
102.323
97.7662
93.4984
89.4923
85.7234
82.1704
78.8146
75.64
72.6328
69.7809
67.0738
64.5022
62.0578
59.7327
57.5199
55.4125
53.404
51.4881
49.6589
47.9106
46.2378
44.6354
43.0988
41.6238
40.2065
38.8434
37.5315
36.2678
35.0498
33.8752
32.7418
31.6479
30.5918
29.572
28.5873
27.6366
26.7192
25.8344
24.9821
24.1623
23.3753
22.6211
21.8994
21.2094
20.5504
19.9211
19.3201
18.746
18.1975
17.673
17.1711
16.6903
16.229
15.7853
15.3579
14.9455
14.547
14.1622
6366.57
2676.58
1527.92
1049.44
792.945
634.536
527.412
450.288
392.17
346.828
310.476
280.685
255.825
234.762
216.686
200.999
187.254
175.109
164.297
154.61
145.88
137.972
130.772
124.177
118.098
112.469
107.237
102.361
97.8051
93.5382
89.5327
85.7644
82.2119
78.8567
75.6827
72.676
69.8247
67.1181
64.547
62.103
59.7785
57.5663
55.4597
53.4521
51.5373
49.7092
47.9621
46.2905
44.6894
43.1542
41.6806
40.2647
38.903
37.5924
36.33
35.1134
33.9401
32.8081
31.7154
30.6605
29.6419
28.6582
27.7084
26.7916
25.9072
25.0549
24.2348
23.4468
22.6912
21.9677
21.2758
20.6145
19.9829
19.3795
18.8032
18.2524
17.7257
17.2218
16.7391
16.2758
15.8305
15.4018
14.9884
14.5891
14.2035
6365.17
2678.79
1528.48
1049.54
792.89
634.428
527.292
450.174
392.068
346.74
310.402
280.624
255.776
234.724
216.657
200.979
187.243
175.105
164.301
154.62
145.897
137.994
130.8
124.209
118.133
112.506
107.277
102.402
97.8476
93.5816
89.5768
85.809
82.257
78.9022
75.7285
72.7222
69.8711
67.1647
64.5938
62.1501
59.8259
57.6142
55.5082
53.5014
51.5876
49.7605
48.0145
46.3441
44.7442
43.2102
41.7378
40.3232
38.9629
37.6536
36.3927
35.1774
34.0054
32.8746
31.7832
30.7295
29.712
28.7294
27.7805
26.8645
25.9806
25.1284
24.308
23.5193
22.7624
22.0372
21.3433
20.6798
20.0459
19.4402
18.8615
18.3084
17.7795
17.2735
16.7886
16.3233
15.8762
15.4459
15.0312
14.6308
14.2443
6363.71
2681.08
1529.11
1049.68
792.871
634.347
527.192
450.075
391.977
346.661
310.336
280.571
255.734
234.693
216.635
200.966
187.237
175.107
164.309
154.635
145.917
138.021
130.831
124.243
118.17
112.546
107.319
102.447
97.8935
93.6284
89.6242
85.8568
82.3051
78.9505
75.777
72.7707
69.9196
67.2132
64.6423
62.1986
59.8746
57.6633
55.5578
53.5517
51.6386
49.8125
48.0675
46.3981
44.7994
43.2665
41.7952
40.3818
39.0226
37.7147
36.455
35.241
34.0704
32.941
31.8509
30.7984
29.7821
28.8005
27.8526
26.9373
26.054
25.2021
24.3815
23.5922
22.8342
22.1074
21.4116
20.746
20.1098
19.5018
18.9207
18.3652
17.8341
17.3257
16.8385
16.3711
15.922
15.4901
15.0739
14.6723
14.2847
6362.19
2683.46
1529.79
1049.87
792.887
634.292
527.113
449.992
391.901
346.594
310.28
280.526
255.699
234.668
216.619
200.958
187.237
175.113
164.322
154.654
145.942
138.051
130.865
124.281
118.211
112.59
107.365
102.494
97.9425
93.6782
89.6745
85.9074
82.3558
79.0012
75.8277
72.8212
69.9698
67.2631
64.692
62.2482
59.9242
57.713
55.608
53.6025
51.6902
49.8649
48.1208
46.4524
44.8546
43.3227
41.8524
40.44
39.082
37.7752
36.5167
35.304
34.1347
33.0066
31.9178
30.8667
29.8516
28.8711
27.9242
27.0098
26.1271
25.2756
24.4549
23.6651
22.9061
22.178
21.4804
20.8128
20.1743
19.5639
18.9804
18.4226
17.889
17.3781
16.8885
16.4188
15.9678
15.534
15.1164
14.7135
14.3247
6360.61
2685.92
1530.53
1050.11
792.94
634.267
527.057
449.927
391.838
346.539
310.234
280.489
255.672
234.649
216.609
200.955
187.241
175.125
164.34
154.677
145.97
138.083
130.902
124.321
118.254
112.636
107.414
102.545
97.9942
93.7307
89.7275
85.9606
82.4089
79.0542
75.8802
72.8733
70.0214
67.3142
64.7426
62.2984
59.9743
57.7633
55.6586
53.6536
51.742
49.9176
48.1743
46.5068
44.9098
43.3787
41.9093
40.4978
39.1407
37.8349
36.5775
35.3659
34.1978
33.071
31.9836
30.9337
29.9199
28.9407
27.9949
27.0815
26.1995
25.3484
24.5279
23.7377
22.9779
22.2485
21.5492
20.8796
20.2389
19.6263
19.0404
18.4799
17.9436
17.4301
16.9381
16.4662
16.0131
15.5776
15.1583
14.7541
14.3642
6358.98
2688.45
1531.33
1050.4
793.031
634.271
527.023
449.881
391.79
346.496
310.198
280.461
255.652
234.638
216.605
200.958
187.251
175.14
164.361
154.704
146.002
138.119
130.941
124.364
118.3
112.684
107.464
102.598
98.0482
93.7856
89.7828
86.0159
82.4641
79.1089
75.9344
72.9268
70.0741
67.3661
64.7937
62.3491
60.0247
57.8137
55.7094
53.705
51.7942
49.9705
48.2281
46.5612
44.965
43.4346
41.9659
40.5551
39.1988
37.8938
36.6374
35.4268
34.2598
33.1341
32.0479
30.9993
29.9867
29.0087
28.0641
27.1518
26.2707
25.4202
24.5998
23.8094
23.049
22.3184
21.6176
20.9462
20.3033
19.6881
19.0995
18.5364
17.9975
17.4815
16.9871
16.513
16.0579
15.6205
15.1996
14.794
14.403
6357.31
2691.06
1532.19
1050.74
793.161
634.306
527.015
449.854
391.759
346.466
310.173
280.443
255.641
234.633
216.607
200.967
187.265
175.16
164.386
154.734
146.036
138.158
130.983
124.408
118.348
112.735
107.517
102.652
98.1044
93.8426
89.8401
86.0733
82.5211
79.1653
75.99
72.9813
70.1276
67.4185
64.8452
62.3999
60.0753
57.8644
55.7604
53.7567
51.8467
50.0238
48.2821
46.6159
45.0202
43.4903
42.0221
40.6119
39.2562
37.9519
36.6962
35.4865
34.3204
33.1957
32.1106
31.0631
30.0517
29.0749
28.1314
27.2201
26.3399
25.4902
24.6703
23.8799
23.1188
22.3871
21.6847
21.0113
20.3661
19.7485
19.1574
18.5918
18.0503
17.5319
17.0352
16.5589
16.1018
15.6626
15.2401
14.8331
14.4408
6355.6
2693.74
1533.1
1051.12
793.33
634.372
527.032
449.848
391.743
346.449
310.159
280.433
255.637
234.635
216.615
200.98
187.284
175.184
164.415
154.767
146.074
138.199
131.027
124.455
118.397
112.787
107.572
102.709
98.1622
93.9013
89.8991
86.1321
82.5794
79.2228
76.0463
73.0364
70.1813
67.4709
64.8966
62.4506
60.1257
57.915
55.8116
53.8087
51.8996
50.0776
48.3366
46.6709
45.0756
43.5461
42.0782
40.6683
39.3129
38.009
36.7538
35.5447
34.3793
33.2555
32.1712
31.1246
30.1142
29.1384
28.196
27.2856
26.4063
25.5572
24.7377
23.9473
23.1859
22.4533
21.7495
21.0743
20.4271
19.8072
19.2138
18.6458
18.1019
17.5812
17.0822
16.6038
16.1446
15.7036
15.2795
14.8711
14.4777
6353.87
2696.49
1534.07
1051.55
793.538
634.471
527.074
449.862
391.745
346.446
310.157
280.433
255.641
234.644
216.629
200.999
187.307
175.212
164.448
154.804
146.113
138.241
131.072
124.503
118.447
112.84
107.627
102.766
98.2211
93.9611
89.9592
86.1919
82.6385
79.2808
76.1029
73.0914
70.2346
67.5227
64.9472
62.5005
60.1755
57.9652
55.8627
53.8609
51.9528
50.1317
48.3915
46.7263
45.1311
43.6014
42.1333
40.7233
39.3679
38.0641
36.8092
35.6005
34.4356
33.3123
32.2288
31.183
30.1735
29.1985
28.2569
27.3474
26.4689
25.6205
24.8014
24.0112
23.2496
22.5164
21.8116
21.1349
20.4858
19.864
19.2684
18.6981
18.152
17.629
17.1278
16.6473
16.1862
15.7435
15.3178
14.9079
14.5132
6352.11
2699.3
1535.08
1052.03
793.786
634.603
527.144
449.898
391.764
346.458
310.165
280.443
255.653
234.659
216.648
201.022
187.335
175.244
164.483
154.842
146.155
138.285
131.118
124.551
118.498
112.893
107.683
102.824
98.2805
94.0213
90.0196
86.2519
82.6976
79.3385
76.1588
73.1453
70.2866
67.5731
64.9964
62.5491
60.2242
58.0147
55.9134
53.9131
52.0064
50.1864
48.4463
46.7806
45.1848
43.6546
42.1861
40.7757
39.4202
38.1164
36.8615
35.653
34.4885
33.3657
32.2827
31.2376
30.2288
29.2547
28.3139
27.4051
26.5274
25.6796
24.861
24.0711
23.3095
22.576
21.8704
21.1926
20.5421
19.9184
19.3208
18.7484
18.2002
17.675
17.1718
16.6893
16.2264
15.7818
15.3545
14.9433
14.5474
6350.33
2702.17
1536.15
1052.55
794.072
634.766
527.239
449.956
391.801
346.483
310.186
280.462
255.673
234.681
216.672
201.049
187.366
175.278
164.52
154.882
146.197
138.329
131.164
124.599
118.549
112.947
107.739
102.882
98.3396
94.0812
90.0796
86.3113
82.7558
79.3949
76.2132
73.1974
70.3365
67.6212
65.0433
62.5958
60.2716
58.0635
55.9641
53.9657
52.0602
50.2399
48.499
46.8325
45.236
43.7051
42.236
40.8252
39.4693
38.1653
36.9104
35.702
34.5377
33.4153
32.3327
31.2882
30.28
29.3066
28.3665
27.4585
26.5815
25.7344
24.9164
24.1269
23.3655
22.6318
21.9257
21.247
20.5953
19.9702
19.3709
18.7966
18.2464
17.7192
17.214
16.7296
16.2648
15.8186
15.3897
14.9771
14.58
6348.53
2705.1
1537.26
1053.12
794.395
634.961
527.361
450.035
391.855
346.523
310.217
280.49
255.7
234.708
216.701
201.081
187.399
175.314
164.559
154.923
146.24
138.373
131.21
124.647
118.599
112.999
107.793
102.939
98.3978
94.14
90.1384
86.3693
82.8122
79.4493
76.2651
73.2468
70.3836
67.6665
65.0879
62.6407
60.3179
58.1121
56.0152
54.0181
52.1122
50.291
48.5491
46.8818
45.2843
43.7526
42.2829
40.8715
39.5152
38.2108
36.9557
35.7473
34.5831
33.4608
32.3786
31.3346
30.3269
29.3541
28.4148
27.5075
26.6313
25.7849
24.9675
24.1785
23.4174
22.6837
21.9773
21.2979
20.6453
20.0189
19.4181
18.8422
18.2902
17.7612
17.2541
16.7679
16.3014
15.8535
15.4232
15.0091
14.6108
6346.74
2708.09
1538.42
1053.72
794.754
635.186
527.508
450.135
391.925
346.576
310.26
280.527
255.733
234.741
216.734
201.115
187.436
175.352
164.599
154.965
146.283
138.417
131.254
124.693
118.647
113.05
107.847
102.994
98.4544
94.1972
90.1954
86.4252
82.8663
79.5009
76.314
73.2929
70.4274
67.709
65.1303
62.6844
60.3641
58.1612
56.066
54.0687
52.1617
50.3395
48.5966
46.9282
45.3298
43.7972
42.3267
40.9146
39.5576
38.2529
36.9975
35.7889
34.6246
33.5025
32.4206
31.3769
30.3697
29.3975
28.4588
27.5522
26.6767
25.831
25.0143
24.2259
23.4651
22.7315
22.025
21.3452
20.6918
20.0644
19.4624
18.8851
18.3315
17.8009
17.292
16.8041
16.3359
15.8865
15.4547
15.0393
14.6398
6344.94
2711.12
1539.62
1054.37
795.147
635.44
527.68
450.255
392.013
346.643
310.314
280.572
255.774
234.779
216.772
201.153
187.474
175.392
164.639
155.006
146.325
138.46
131.298
124.738
118.694
113.099
107.898
103.047
98.509
94.2523
90.25
86.4785
82.9174
79.5493
76.3593
73.3356
70.4682
67.7491
65.1713
62.7277
60.4106
58.2101
56.1151
54.1168
52.2088
50.3855
48.6415
46.972
45.3725
43.8389
42.3674
40.9545
39.597
38.2916
37.0358
35.8269
34.6626
33.5405
32.4587
31.4153
30.4085
29.4367
28.4986
27.5927
26.7178
25.8728
25.0568
24.2689
23.5086
22.7753
22.0687
21.3886
20.7347
20.1065
19.5034
18.9249
18.37
17.8378
17.3275
16.838
16.3683
15.9174
15.4842
15.0676
14.6668
6343.14
2714.19
1540.85
1055.05
795.571
635.723
527.875
450.395
392.117
346.722
310.378
280.626
255.822
234.823
216.813
201.194
187.515
175.433
164.68
155.048
146.367
138.502
131.34
124.782
118.74
113.147
107.948
103.098
98.5613
94.3048
90.3018
86.5286
82.9651
79.594
76.4011
73.3749
70.5061
67.7873
65.2115
62.7712
60.4573
58.2579
56.1621
54.1627
52.2536
50.4291
48.6839
47.0132
45.4126
43.8779
42.4054
40.9916
39.6332
38.3273
37.0709
35.8616
34.697
33.5748
32.4931
31.4498
30.4433
29.472
28.5343
27.629
26.7547
25.9104
25.095
24.3077
23.5478
22.8149
22.1085
21.4282
20.7739
20.145
19.5411
18.9615
18.4054
17.872
17.3604
16.8695
16.3984
15.9461
15.5117
15.094
14.6922
6341.35
2717.3
1542.11
1055.76
796.025
636.031
528.093
450.554
392.236
346.815
310.452
280.688
255.875
234.871
216.858
201.237
187.557
175.474
164.722
155.089
146.408
138.543
131.381
124.824
118.783
113.192
107.995
103.147
98.611
94.3545
90.3505
86.5754
83.0092
79.635
76.4393
73.4111
70.542
67.8246
65.2519
62.8154
60.5035
58.3037
56.2069
54.2065
52.2962
50.4704
48.724
47.052
45.4502
43.9144
42.4408
41.026
39.6667
38.3599
37.103
35.8932
34.7282
33.6058
32.524
31.4808
30.4744
29.5034
28.5661
27.6613
26.7875
25.9438
25.129
24.3423
23.5829
22.8504
22.1441
21.4639
20.8093
20.18
19.5754
18.9949
18.4378
17.9032
17.3904
16.8984
16.4262
15.9729
15.5375
15.1194
6339.57
2720.45
1543.4
1056.49
796.507
636.364
528.333
450.731
392.371
346.92
310.537
280.759
255.936
234.925
216.907
201.283
187.601
175.517
164.764
155.13
146.449
138.583
131.421
124.864
118.825
113.236
108.04
103.194
98.658
94.4012
90.3958
86.6185
83.0494
79.6723
76.4742
73.4449
70.5764
67.8617
65.2927
62.8595
60.5485
58.3477
56.2499
54.2484
52.3369
50.5098
48.762
47.0887
45.4856
43.9485
42.4737
41.0578
39.6975
38.3899
37.1322
35.9218
34.7563
33.6336
32.5515
31.5082
30.502
29.5311
28.5941
27.6896
26.8164
25.9731
25.1589
24.3727
23.6139
22.8817
22.1758
21.4956
20.8409
20.2112
19.6061
19.0248
18.4669
17.9314
17.4175
16.9244
16.4511
15.9967
15.5602
15.1408
6337.79
2723.62
1544.72
1057.26
797.013
636.72
528.592
450.926
392.52
347.038
310.632
280.837
256.003
234.983
216.96
201.331
187.647
175.561
164.806
155.172
146.489
138.623
131.461
124.904
118.866
113.278
108.084
103.238
98.7023
94.4447
90.4377
86.6579
83.0859
79.7062
76.5063
73.4768
70.6102
67.8991
65.3344
62.9031
60.5916
58.3901
56.2913
54.2885
52.3757
50.5473
48.7982
47.1235
45.5189
43.9805
42.5044
41.0873
39.7259
38.4173
37.1587
35.9476
34.7815
33.6583
32.5759
31.5324
30.5261
29.5553
28.6185
27.7143
26.8414
25.9986
25.1848
24.3991
23.6408
22.909
22.2034
21.5234
20.8686
20.2387
19.6331
19.0514
18.4927
17.9563
17.4415
16.9474
16.4731
16.0176
15.58
15.1594
6336.03
2726.83
1546.06
1058.05
797.542
637.098
528.871
451.137
392.685
347.168
310.737
280.924
256.077
235.047
217.017
201.383
187.695
175.606
164.85
155.214
146.53
138.663
131.5
124.943
118.906
113.318
108.125
103.28
98.7439
94.4852
90.4761
86.6937
83.1189
79.7369
76.536
73.5076
70.644
67.9371
65.376
62.9458
60.6335
58.431
56.3311
54.3271
52.413
50.5832
48.8326
47.1564
45.5504
44.0106
42.5331
41.1147
39.7521
38.4424
37.1828
35.9708
34.8039
33.6801
32.5973
31.5535
30.547
29.5761
28.6394
27.7353
26.8627
26.0202
25.2068
24.4216
23.6637
22.9323
22.2269
21.5471
20.8924
20.2624
19.6566
19.0743
18.515
17.978
17.4624
16.9674
16.4921
16.0356
15.5969
15.1753
6334.29
2730.06
1547.41
1058.85
798.091
637.494
529.168
451.365
392.863
347.31
310.853
281.02
256.157
235.117
217.078
201.439
187.746
175.654
164.895
155.257
146.572
138.703
131.539
124.982
118.945
113.358
108.165
103.319
98.7829
94.5226
90.5111
86.7259
83.1486
79.7649
76.5641
73.5379
70.6784
67.9762
65.4173
62.9868
60.6739
58.4706
56.3696
54.3644
52.4489
50.6176
48.8655
47.1878
45.5802
44.0388
42.56
41.1401
39.7762
38.4652
37.2045
35.9915
34.8238
33.6993
32.6159
31.5716
30.5648
29.5938
28.6569
27.7529
26.8804
26.0382
25.2251
24.4402
23.6826
22.9516
22.2466
21.567
20.9124
20.2823
19.6763
19.0937
18.5339
17.9963
17.48
16.9841
16.508
16.0506
15.611
15.1884
6332.55
2733.31
1548.78
1059.68
798.658
637.909
529.482
451.608
393.055
347.464
310.978
281.124
256.246
235.193
217.145
201.499
187.8
175.705
164.942
155.302
146.615
138.745
131.579
125.021
118.983
113.397
108.203
103.357
98.8194
94.5569
90.5428
86.7548
83.1752
79.7907
76.5912
73.5682
70.7133
68.0153
65.458
63.0269
60.7132
58.5089
56.4068
54.4003
52.4834
50.6506
48.8969
47.2176
45.6084
44.0654
42.585
41.1637
39.7983
38.486
37.2241
36.01
34.8413
33.7159
32.6318
31.587
30.5797
29.6083
28.6713
27.7672
26.8947
26.0526
25.2397
24.4551
23.6978
22.9671
22.2624
21.583
20.9285
20.2984
19.6923
19.1094
18.5493
18.0112
17.4942
16.9977
16.5208
16.0626
15.6222
15.1987
6330.84
2736.58
1550.16
1060.52
799.242
638.341
529.812
451.866
393.26
347.631
311.115
281.238
256.342
235.276
217.218
201.563
187.859
175.758
164.992
155.349
146.66
138.787
131.62
125.061
119.022
113.435
108.241
103.393
98.8534
94.5884
90.5713
86.7806
83.1994
79.8149
76.6177
73.5993
70.7496
68.0543
65.4972
63.0657
60.7513
58.546
56.4427
54.4349
52.5165
50.6822
48.9269
47.2459
45.6351
44.0904
42.6083
41.1854
39.8186
38.5049
37.2416
36.0262
34.8565
33.7301
32.6451
31.5996
30.5917
29.6199
28.6826
27.7783
26.9057
26.0636
25.2509
24.4664
23.7093
22.9789
22.2744
21.5952
20.9409
20.3108
19.7046
19.1216
18.5612
18.0226
17.5052
17.0081
16.5305
16.0716
15.6304
15.2061
6329.13
2739.88
1551.55
1061.37
799.84
638.788
530.157
452.139
393.48
347.809
311.262
281.361
256.446
235.366
217.297
201.633
187.922
175.816
165.046
155.399
146.707
138.832
131.663
125.101
119.062
113.473
108.277
103.428
98.8851
94.617