/*--------------------------------*- C++ -*----------------------------------*\
  =========                 |
  \\      /  F ield         | OpenFOAM: The Open Source CFD Toolbox
   \\    /   O peration     | Website:  https://openfoam.org
    \\  /    A nd           | Version:  10
     \\/     M anipulation  |
\*---------------------------------------------------------------------------*/
FoamFile
{
    format      ascii;
    class       volScalarField;
    location    "46000";
    object      Co;
}
// * * * * * * * * * * * * * * * * * * * * * * * * * * * * * * * * * * * * * //

dimensions      [0 0 0 0 0 0 0];

internalField   nonuniform List<scalar> 
17969
(
77.3621
54.0513
52.4352
47.1362
44.7925
46.6916
50.5999
56.8239
79.3068
117.344
178.352
258.357
349.954
447.573
544.529
634.492
712.822
777.038
826.458
862.023
885.518
898.991
904.557
904.041
898.958
890.553
879.768
867.3
853.655
839.196
824.171
808.752
793.054
777.157
761.121
744.987
728.788
712.547
696.286
680.021
663.765
647.528
631.318
615.143
599.008
582.919
566.877
550.888
534.954
519.077
503.261
487.507
471.816
456.192
440.635
425.147
409.729
394.382
379.107
363.905
348.776
333.721
318.74
303.834
289.003
274.248
259.57
244.969
230.445
216.001
201.638
187.358
173.164
159.06
148.971
142.928
137.195
141.829
148.385
154.65
160.647
166.39
171.893
177.168
182.225
187.072
191.718
196.169
200.437
204.532
208.462
212.228
215.827
219.262
222.542
225.677
228.675
231.545
234.296
236.938
78.8699
53.4279
56.3045
54.965
50.8593
44.1797
40.847
43.0575
47.2187
53.6121
74.7258
108.673
161.744
232.23
314.08
403.443
495.061
583.521
664.13
733.658
790.504
834.351
866.055
887.108
899.179
904.006
903.106
897.781
889.125
877.997
865.066
850.84
835.7
819.922
803.706
787.191
770.472
753.62
736.688
719.712
702.72
685.733
668.765
651.828
634.931
618.078
601.276
584.527
567.836
551.205
534.637
518.133
501.696
485.328
469.031
452.806
436.654
420.577
404.575
388.65
372.802
357.03
341.337
325.721
310.183
294.722
279.34
264.036
248.81
233.665
218.599
203.617
188.719
173.91
163.481
157.451
151.723
153.355
160.015
166.373
172.449
178.26
183.818
189.135
194.222
199.087
203.739
208.182
212.423
216.468
220.328
224.011
227.523
230.862
234.035
237.052
239.925
242.662
245.274
247.773
79.8865
51.6134
56.7907
58.864
58.7471
56.9242
53.1487
46.8225
38.7714
36.4021
40.8028
47.377
66.183
96.3642
141.366
202.955
275.235
355.836
440.952
526.083
606.976
680.071
742.913
794.297
834.007
862.768
881.828
892.618
896.606
895.103
889.271
880.111
868.441
854.914
840.048
824.24
807.791
790.911
773.748
756.406
738.958
721.454
703.928
686.403
668.897
651.421
633.985
616.593
599.252
581.965
564.737
547.57
530.468
513.433
496.468
479.576
462.757
446.015
429.35
412.762
396.254
379.825
363.475
347.205
331.014
314.901
298.866
282.91
267.031
251.229
235.507
219.863
204.301
188.824
178.088
172.096
166.396
164.636
171.386
177.82
183.959
189.818
195.41
200.746
205.837
210.693
215.321
219.727
223.917
227.893
231.661
235.227
238.602
241.791
244.804
247.651
250.347
252.902
255.328
257.636
80.4882
48.5874
53.9073
57.0539
58.4366
58.69
57.8102
55.5324
51.3821
44.7492
37.3699
35.9802
40.7159
47.3911
63.1207
89.8059
126.299
179.308
241.91
312.911
389.857
469.39
547.822
621.697
688.103
744.991
791.336
827.012
852.687
869.463
878.617
881.408
878.996
872.459
862.722
850.551
836.58
821.315
805.143
788.35
771.14
753.656
735.997
718.23
700.401
682.542
664.675
646.817
628.98
611.174
593.407
575.686
558.018
540.407
522.859
505.378
487.968
470.632
453.371
436.188
419.084
402.06
385.115
368.25
351.463
334.755
318.124
301.569
285.089
268.683
252.351
236.093
219.91
203.805
192.795
186.872
181.225
176.773
182.502
188.992
195.171
201.055
206.655
211.983
217.049
221.862
226.431
230.762
234.861
238.732
242.377
245.799
249.003
251.997
254.794
257.415
259.881
262.205
264.397
266.469
268.432
270.301
272.086
273.802
81.3195
45.9378
50.6594
53.836
55.5404
56.4471
56.6555
56.0879
54.5384
51.6663
47.0213
40.094
36.951
39.9871
45.1141
51.9495
63.9366
87.5208
116.261
160.684
214.096
275.361
343.201
415.383
488.996
560.882
628.04
687.959
738.915
780.107
811.581
834.018
848.413
855.899
857.558
854.426
847.467
837.512
825.258
811.284
796.05
779.911
763.131
745.901
728.358
710.597
692.687
674.676
656.603
638.493
620.371
602.252
584.153
566.086
548.061
530.089
512.175
494.327
476.548
458.844
441.215
423.664
406.191
388.796
371.478
354.237
337.07
319.975
302.951
285.996
269.108
252.286
235.53
218.842
207.598
201.776
196.209
190.898
193.355
199.877
206.07
211.95
217.528
222.815
227.82
232.553
237.021
241.231
245.19
248.903
252.375
255.608
258.605
261.372
263.918
266.265
268.454
270.501
272.415
274.205
275.883
277.462
278.955
280.379
82.5428
44.3263
48.6393
51.7644
53.5743
54.7692
55.497
55.7604
55.4918
54.5502
52.705
49.6371
44.9576
39.492
38.4452
42.2334
47.4014
54.0798
62.3684
82.4257
107.287
141.415
186.974
239.536
298.647
363.028
430.581
498.631
564.332
625.04
678.651
723.849
760.122
787.683
807.205
819.579
825.784
826.74
823.338
816.413
806.675
794.733
781.093
766.167
750.278
733.675
716.544
699.025
681.222
663.213
645.059
626.808
608.498
590.157
571.812
553.483
535.185
516.931
498.732
480.595
462.526
444.528
426.604
408.753
390.975
373.27
355.635
338.067
320.564
303.121
285.737
268.409
251.135
233.914
222.479
216.795
211.339
206.116
203.925
210.452
216.63
222.473
227.992
233.199
238.101
242.706
247.023
251.058
254.82
258.315
261.552
264.539
267.282
269.786
272.059
274.115
275.998
277.734
279.328
280.788
282.127
283.359
284.5
285.57
84.0036
43.3771
47.5146
50.6366
52.4785
53.7896
54.7606
55.4369
55.8114
55.8403
55.4385
54.4645
52.709
49.8983
45.6947
39.7029
37.5408
40.7553
45.3284
51.2524
58.5888
72.239
93.9721
119.955
159.416
204.826
256.352
313.377
374.509
437.652
500.295
559.934
614.379
661.996
701.867
733.734
757.903
775.005
785.817
791.151
791.765
788.403
781.742
772.379
760.838
747.569
732.949
717.283
700.818
683.746
666.219
648.355
630.247
611.968
593.575
575.114
556.622
538.126
519.648
501.205
482.809
464.468
446.188
427.972
409.821
391.735
373.712
355.748
337.839
319.982
302.172
284.405
266.676
248.983
237.411
231.907
226.593
221.482
216.727
220.674
226.802
232.568
237.986
243.065
247.812
252.236
256.343
260.141
263.64
266.853
269.795
272.483
274.929
277.141
279.122
280.877
282.433
283.819
285.04
286.106
287.035
287.845
288.559
289.201
289.794
85.5919
42.7332
46.8117
49.9208
51.6862
52.9231
53.8686
54.6011
55.1462
55.5025
55.6475
55.536
55.0901
54.1875
52.6478
50.2343
46.6492
41.5341
37.5349
38.0562
41.697
46.5529
52.7149
60.8817
80.1092
102.349
134.834
174.621
219.71
269.983
324.591
382.023
440.27
497.124
550.526
598.785
640.691
675.637
703.545
724.746
739.792
749.33
753.975
754.336
751.003
744.525
735.41
724.123
711.076
696.628
681.078
664.677
647.625
630.086
612.189
594.035
575.704
557.26
538.747
520.207
501.666
483.141
464.646
446.192
427.786
409.428
391.119
372.856
354.635
336.453
318.302
300.177
282.072
263.982
252.336
247.067
241.938
236.963
232.17
230.576
236.494
242.136
247.402
252.298
256.832
261.01
264.841
268.336
271.512
274.39
276.993
279.348
281.473
283.375
285.045
286.469
287.651
288.614
289.374
289.952
290.374
290.669
290.867
290.998
291.093
291.178
291.279
87.2651
42.2387
46.3103
49.3648
50.9555
51.9727
52.6979
53.2349
53.6299
53.9036
54.0573
54.0823
53.9588
53.6471
53.0797
52.1539
50.7195
48.5718
45.4476
41.019
37.1651
37.0477
39.844
43.7429
48.8719
55.306
70.128
89.9838
116.534
151.743
191.347
235.395
283.48
334.615
387.33
439.88
490.462
537.471
579.633
616.07
646.394
670.646
689.14
702.321
710.642
714.555
714.527
711.024
704.511
695.441
684.239
671.296
656.953
641.505
625.199
608.239
590.788
572.978
554.907
536.666
518.309
499.877
481.403
462.915
444.436
425.972
407.525
389.099
370.694
352.306
333.927
315.551
297.171
278.779
267.145
262.181
257.299
252.501
247.818
243.281
245.542
251.006
256.062
260.713
264.969
268.84
272.342
275.491
278.318
280.849
283.109
285.119
286.891
288.423
289.695
290.675
291.356
291.767
291.943
291.917
291.727
291.412
291.012
290.565
290.106
289.665
289.268
288.937
89.0289
41.9136
46.0487
49.0179
50.3879
51.1263
51.5516
51.7848
51.8818
51.8749
51.7806
51.6037
51.3425
50.988
50.5216
49.9084
49.0887
47.9718
46.432
44.298
41.344
38.4353
37.7501
39.1124
41.3076
44.5105
48.869
54.4894
65.3721
83.2792
104.685
136.015
170.867
209.289
251.118
295.798
342.365
389.544
435.907
480.039
520.724
556.979
588.203
614.199
635.064
651.04
662.391
669.399
672.39
671.738
667.846
661.13
652.002
640.852
628.04
613.885
598.665
582.613
565.914
548.725
531.167
513.348
495.331
477.187
458.959
440.662
422.312
403.931
385.534
367.116
348.67
330.192
311.677
293.116
281.605
277.04
272.491
267.953
263.435
258.976
256.154
258.919
263.685
268.025
271.96
275.508
278.684
281.506
284.003
286.193
288.086
289.681
290.971
291.948
292.604
292.931
292.94
292.661
292.138
291.416
290.541
289.561
288.522
287.468
286.436
285.46
284.566
283.775
283.102
282.558
90.8955
41.8198
46.122
48.9703
50.1167
50.58
50.7097
50.6405
50.4343
50.1222
49.7251
49.2551
48.7161
48.1083
47.4277
46.665
45.8024
44.8087
43.7713
43.0488
42.6372
42.3259
42.1878
42.317
42.8431
43.9236
45.7334
48.4501
52.2346
57.2103
64.5241
80.6836
98.9649
125.065
155.81
189.352
225.573
264.189
304.637
346.071
387.464
427.639
465.482
500.05
530.681
557.055
579.091
596.816
610.292
619.66
625.138
627.002
625.576
621.212
614.278
605.136
594.132
581.58
567.774
552.967
537.355
521.12
504.387
487.261
469.821
452.149
434.302
416.338
398.279
380.118
361.854
343.497
325.05
306.507
295.27
291.228
287.137
282.983
278.762
274.487
270.186
268.115
270.024
273.989
277.562
280.755
283.585
286.06
288.179
289.932
291.306
292.296
292.902
293.134
293.005
292.536
291.756
290.704
289.424
287.965
286.381
284.726
283.049
281.4
279.817
278.333
276.975
275.761
274.704
273.81
273.083
272.523
272.128
271.893
92.8735
42.0193
46.6406
49.3904
50.326
50.5345
50.3956
50.3914
50.6429
50.8639
51.0204
51.1207
51.1676
51.1623
51.1054
50.9973
50.8386
50.631
50.3781
50.0873
49.7725
49.4573
49.1748
48.97
48.9041
49.0573
49.5342
50.4685
52.0164
54.3461
57.6184
61.9661
67.4784
80.0376
96.3313
116.368
143.542
172.964
204.499
237.918
272.872
308.846
345.12
380.805
414.98
446.806
475.666
501.184
523.143
541.42
555.965
566.809
574.064
577.91
578.584
576.364
571.554
564.465
555.41
544.679
532.534
519.215
504.937
489.908
474.257
458.093
441.513
424.604
407.393
389.927
372.229
354.341
336.289
318.063
307.329
303.981
300.51
296.9
293.144
289.242
285.207
281.059
278.573
278.42
281.492
284.159
286.442
288.347
289.865
290.984
291.683
291.953
291.797
291.232
290.287
288.999
287.408
285.562
283.511
281.313
279.028
276.716
274.434
272.228
270.141
268.204
266.438
264.86
263.478
262.294
261.308
260.516
259.913
259.49
94.9685
42.5409
47.5624
50.268
51.5971
52.7462
53.5939
54.2628
54.8143
55.2792
55.6744
56.0098
56.2911
56.5216
56.7031
56.8361
56.9209
56.9576
56.9465
56.889
56.7882
56.6509
56.4891
56.3232
56.1825
56.1046
56.1385
56.348
56.816
57.6492
58.9762
60.9419
63.6941
67.364
72.049
79.7853
94.1159
110.023
132.365
158.263
185.904
215.085
245.528
276.817
308.405
339.63
369.798
398.272
424.554
448.265
469.118
486.908
501.514
512.897
521.095
526.213
528.412
527.898
524.91
519.696
512.513
503.609
493.219
481.562
468.816
455.118
440.618
425.504
409.882
393.855
377.468
360.746
343.688
326.283
316.424
314.036
311.418
308.557
305.452
302.103
298.516
294.702
290.672
286.519
285.771
284.995
286.596
287.761
288.496
288.809
288.708
288.183
287.227
285.854
284.095
281.993
279.601
276.976
274.179
271.277
268.338
265.427
262.604
259.917
257.405
255.096
253.007
251.149
249.524
248.131
246.964
246.015
245.275
244.733
97.1872
43.4461
49.1029
52.6685
54.8103
56.2006
57.2431
58.0898
58.8107
59.4418
60.0034
60.5076
60.9616
61.3701
61.7357
62.0598
62.3427
62.5844
62.7843
62.942
63.0573
63.1309
63.165
63.1646
63.1394
63.1055
63.0873
63.1163
63.2315
63.4818
63.9293
64.6547
65.758
67.3562
69.575
72.5355
76.3382
81.0468
91.7648
105.597
121.989
144.757
169.046
194.645
221.281
248.589
276.105
303.303
329.669
354.743
378.119
399.452
418.463
434.943
448.753
459.822
468.149
473.788
476.846
477.468
475.83
472.127
466.558
459.328
450.63
440.64
429.522
417.397
404.356
390.519
375.998
360.926
345.392
329.411
320.909
319.786
318.29
316.428
314.203
311.617
308.677
305.391
301.768
297.819
293.557
289.318
287.572
285.432
283.523
283.007
282.048
280.663
278.868
276.675
274.107
271.214
268.059
264.71
261.24
257.72
254.226
250.823
247.572
244.519
241.699
239.134
236.835
234.806
233.043
231.541
230.287
229.271
228.478
227.896
99.5078
44.7121
51.4822
55.6611
57.9942
59.5193
60.6738
61.6237
62.4452
63.178
63.8446
64.4587
65.0289
65.5609
66.0581
66.5225
66.9552
67.356
67.7243
68.0587
68.3578
68.62
68.844
69.0292
69.1763
69.2881
69.3714
69.4378
69.5062
69.6021
69.7561
70.0052
70.3951
70.9851
71.8503
73.0816
74.7819
77.0584
80.0087
83.7116
89.48
101.365
114.459
132.69
154.092
176.615
199.958
223.763
247.643
271.202
294.053
315.835
336.219
354.916
371.692
386.363
398.802
408.941
416.76
422.29
425.601
426.796
426
423.356
419.008
413.115
405.846
397.334
387.675
376.981
365.359
352.909
339.688
325.752
319.003
319.426
319.347
318.772
317.707
316.155
314.121
311.614
308.643
305.221
301.365
297.09
292.417
287.371
282.602
279.318
275.641
271.605
267.246
263.448
260.117
256.5
252.673
248.712
244.696
240.699
236.796
233.052
229.525
226.257
223.277
220.598
218.224
216.151
214.371
212.87
211.634
210.647
209.893
209.355
209.02
101.921
46.3069
54.0736
58.6265
61.0256
62.5894
63.7759
64.7582
65.6161
66.3909
67.1066
67.7778
68.414
69.0216
69.6046
70.1656
70.7055
71.2245
71.7215
72.1947
72.6419
73.0602
73.4466
73.798
74.1114
74.3847
74.6167
74.8079
74.9621
75.0875
75.1975
75.3122
75.4562
75.6584
75.953
76.3833
77.0056
77.8905
79.1217
80.7927
82.9969
85.8144
89.305
97.6524
108.969
122.344
141.149
160.866
181.198
201.832
222.444
242.711
262.324
280.993
298.455
314.482
328.888
341.528
352.3
361.149
368.057
373.043
376.156
377.466
377.063
375.054
371.563
366.704
360.572
353.259
344.857
335.457
325.126
313.927
309.416
311.65
313.255
314.241
314.614
314.379
313.538
312.098
310.067
307.459
304.29
300.581
296.356
291.642
286.472
280.885
274.922
268.628
262.048
256.103
250.699
245.027
239.083
232.877
226.448
220.497
216.37
212.468
208.843
205.533
202.559
199.924
197.623
195.644
193.971
192.588
191.475
190.615
189.989
189.58
189.372
104.417
48.3359
56.9074
61.4689
63.8171
65.3295
66.4729
67.4221
68.2571
69.02
69.7351
70.4174
71.0769
71.7203
72.3517
72.9737
73.587
74.1914
74.7855
75.3668
75.9322
76.4778
76.9992
77.4916
77.9501
78.3697
78.7461
79.0756
79.3556
79.5853
79.7664
79.9045
80.0096
80.0974
80.1889
80.3081
80.4826
80.7457
81.1412
81.7251
82.5657
83.742
85.3399
87.4429
90.1243
94.5274
104.29
114.929
129.813
146.938
164.518
182.272
199.921
217.196
233.842
249.626
264.343
277.818
289.909
300.509
309.545
316.977
322.794
327.011
329.665
330.811
330.523
328.881
325.96
321.833
316.576
310.259
302.945
294.691
292.554
296.633
300.003
302.673
304.645
305.924
306.496
306.366
305.537
304.017
301.82
298.965
295.473
291.376
286.708
281.51
275.825
269.702
263.189
256.335
249.181
241.728
233.897
225.618
216.882
208.388
201.518
194.642
187.842
182.935
180.144
177.715
175.633
173.88
172.434
171.275
170.382
169.735
169.315
169.106
169.092
106.981
50.5329
59.6651
64.0785
66.2705
67.6551
68.6925
69.5532
70.316
71.022
71.6955
72.3515
73
73.6475
74.2979
74.9534
75.6144
76.2799
76.9478
77.6147
78.2764
78.9275
79.5623
80.1743
80.757
81.3037
81.8079
82.2639
82.6663
83.0112
83.2956
83.5183
83.6806
83.7869
83.8461
83.8718
83.8823
83.9
83.9495
84.0591
84.2643
84.6111
85.1566
85.9691
87.1254
88.705
90.78
93.4074
100.231
109.356
119.657
134.388
149.438
164.562
179.517
194.077
208.035
221.204
233.427
244.57
254.531
263.235
270.632
276.697
281.428
284.842
286.972
287.865
287.569
286.138
283.628
280.092
275.584
270.148
270.227
275.948
280.95
285.232
288.781
291.605
293.671
294.972
295.502
295.258
294.245
292.475
289.962
286.732
282.819
278.263
273.107
267.4
261.196
254.546
247.499
240.092
232.292
224.021
215.251
206.001
196.339
186.36
176.173
167.684
161.142
154.734
152.909
151.504
150.396
149.56
148.974
148.618
148.474
148.528
148.767
149.178
109.583
52.7738
62.1624
66.3036
68.2722
69.4786
70.3657
71.0979
71.7514
72.3666
72.9673
73.5683
74.1794
74.8068
75.4543
76.1232
76.8135
77.5232
78.249
78.9863
79.7292
80.471
81.2039
81.92
82.6109
83.2683
83.8843
84.4513
84.9627
85.4128
85.7969
86.1119
86.3559
86.5291
86.6336
86.6746
86.661
86.6057
86.5262
86.444
86.3832
86.37
86.4352
86.618
86.9671
87.54
88.401
89.6176
91.2526
93.3569
96.5346
104.297
112.557
122.816
135.548
148.275
160.794
172.919
184.481
195.335
205.359
214.457
222.555
229.602
235.57
240.446
244.237
246.961
248.645
249.325
249.038
247.826
245.728
242.78
244.753
251.788
258.149
263.825
268.793
273.038
276.53
279.242
281.154
282.248
282.517
281.967
280.585
278.394
275.425
271.707
267.28
262.191
256.49
250.232
243.471
236.264
228.635
220.533
211.918
202.787
193.169
183.142
172.804
162.269
151.622
140.874
134.605
129.121
128.469
128.068
127.889
127.91
128.11
128.476
129.001
129.679
112.189
55.0135
64.4063
68.1297
69.8134
70.7929
71.4871
72.0528
72.5629
73.0565
73.5566
74.0777
74.6292
75.217
75.8442
76.5117
77.218
77.9602
78.7334
79.5312
80.3459
81.1687
81.9901
82.8001
83.5883
84.3448
85.0601
85.7253
86.3325
86.8752
87.3479
87.7467
88.0692
88.3142
88.4823
88.5756
88.5985
88.5572
88.4613
88.3243
88.1634
87.9996
87.8569
87.7611
87.74
87.8267
88.0614
88.4904
89.1644
90.1356
91.4532
93.1566
95.2718
99.479
106.397
113.589
122.549
133.125
143.477
153.457
162.932
171.791
179.943
187.319
193.868
199.56
204.38
208.327
211.41
213.649
215.068
215.697
215.566
214.703
218.202
226.202
233.607
240.398
246.545
252.014
256.769
260.77
263.981
266.366
267.896
268.596
268.413
267.344
265.426
262.672
259.113
254.789
249.744
244.03
237.701
230.818
223.438
215.571
207.194
198.298
188.896
179.03
168.767
158.204
147.443
136.548
125.531
114.987
109.203
107.171
107.469
107.928
108.529
109.26
110.116
111.094
114.783
57.3847
66.6941
69.7974
71.1787
71.9767
72.4918
72.827
73.0244
73.1813
73.4697
73.891
74.3659
74.8995
75.4943
76.1499
76.8637
77.6312
78.4455
79.2984
80.1799
81.0789
81.9835
82.8815
83.7605
84.6088
85.415
86.1691
86.8624
87.4873
88.0383
88.5111
88.9032
89.2135
89.4423
89.5914
89.6638
89.6642
89.5987
89.4752
89.3043
89.0996
88.8783
88.6605
88.4692
88.3293
88.2662
88.3068
88.4828
88.8292
89.3835
90.1826
91.2606
92.6445
94.3501
96.3789
100.373
106.269
112.254
118.964
127.443
135.589
143.304
150.507
157.132
163.133
168.479
173.152
177.148
180.473
183.14
185.171
186.587
187.412
192.089
200.745
208.904
216.537
223.61
230.078
235.895
241.012
245.381
248.954
251.664
253.54
254.537
254.611
253.78
252.05
249.439
245.977
241.7
236.652
230.883
224.449
217.407
209.804
201.667
193.014
183.869
174.257
164.214
153.799
143.088
132.159
121.061
109.81
98.4143
90.6905
87.7051
88.6206
89.6491
90.7827
92.0181
93.3521
117.326
59.5961
69.2292
72.5976
74.3259
75.4915
76.3741
77.0693
77.6176
78.0363
78.3313
78.5028
78.5478
78.4612
78.2363
77.8656
77.3412
77.0126
77.4296
78.336
79.2829
80.2566
81.2427
82.2265
83.1934
84.1295
85.022
85.8597
86.6328
87.3333
87.9554
88.4948
88.9492
89.3176
89.6009
89.8011
89.9214
89.9661
89.9407
89.8515
89.7062
89.514
89.286
89.035
88.7776
88.5327
88.3211
88.165
88.0872
88.1094
88.254
88.5454
89.0088
89.6676
90.5413
91.6439
92.9804
94.545
96.3191
99.0293
103.804
108.526
113.118
119.334
125.639
131.545
137.008
142.001
146.507
150.521
154.047
157.097
159.688
161.84
167.39
176.45
185.116
193.355
201.126
208.38
215.06
221.109
226.47
231.088
234.886
237.843
239.928
241.1
241.34
240.639
239.004
236.448
233
228.693
223.572
217.69
211.101
203.86
196.018
187.615
178.696
169.3
159.468
149.24
138.668
127.808
116.712
105.417
93.9465
82.3244
73.1548
70.201
71.7044
73.2862
74.9432
76.6772
119.816
61.6648
71.4962
75.1746
77.3038
78.8879
80.1842
81.2838
82.2257
83.0264
83.6917
84.2219
84.6138
84.8617
84.9587
84.8968
84.6672
84.2613
83.6707
82.8874
81.9047
80.7172
80.2196
80.8937
81.9484
82.9717
83.9491
84.8682
85.7184
86.4913
87.1808
87.7828
88.295
88.7172
89.0506
89.2976
89.4619
89.5483
89.562
89.5092
89.3969
89.2326
89.0247
88.7825
88.5171
88.2405
87.9672
87.714
87.4989
87.34
87.2555
87.2627
87.3763
87.6101
87.9779
88.4911
89.157
89.977
90.9457
92.0488
93.2623
94.5529
95.8778
99.0659
102.55
105.828
110.066
115.054
119.739
124.11
128.164
131.905
135.348
138.507
144.675
153.938
162.911
171.561
179.839
187.692
195.059
201.873
208.07
213.582
218.338
222.285
225.37
227.556
228.807
229.099
228.42
226.77
224.16
220.617
216.179
210.896
204.823
198.021
190.548
182.459
173.808
164.646
155.019
144.975
134.559
123.817
112.793
101.524
90.0436
78.3814
66.5647
57.0192
55.1112
57.2105
59.3627
61.5643
122.21
63.4989
73.4569
77.4851
80.0542
82.0966
83.8465
85.3898
86.7627
87.9817
89.053
89.9768
90.7497
91.3659
91.8176
92.0963
92.1926
92.0969
91.8
91.2932
90.5691
89.6218
88.447
87.0427
85.4091
83.5484
82.676
83.2614
84.1892
85.0344
85.7909
86.4546
87.0237
87.4983
87.8801
88.172
88.3783
88.504
88.5547
88.5368
88.4568
88.3221
88.1399
87.9183
87.6656
87.3906
87.1034
86.8147
86.5361
86.2807
86.0632
85.8975
85.7958
85.7694
85.8273
85.9745
86.2137
86.5454
86.9662
87.4669
88.032
88.639
89.2582
89.8515
90.3743
90.7747
92.2531
94.58
96.7851
101.258
105.574
109.736
113.755
117.646
124.218
133.527
142.652
151.554
160.183
168.48
176.381
183.814
190.705
196.98
202.562
207.384
211.382
214.5
216.692
217.919
218.151
217.374
215.585
212.799
209.049
204.383
198.857
192.537
185.488
177.772
169.449
160.577
151.208
141.39
131.17
120.591
109.694
98.5151
87.0886
75.4452
63.6142
51.6234
42.7497
42.8669
45.5593
48.2845
124.504
64.9898
75.0402
79.4688
82.5227
85.0607
87.2971
89.3141
91.1485
92.8166
94.3247
95.6729
96.8578
97.8728
98.71
99.3597
99.8116
100.055
100.08
99.877
99.437
98.7536
97.8222
96.6405
95.2087
93.5295
91.6081
89.4519
87.0701
84.6331
83.8568
84.5847
85.2127
85.7412
86.1725
86.5101
86.7585
86.9231
87.01
87.0255
86.9766
86.8702
86.7135
86.5136
86.2779
86.0139
85.7291
85.4316
85.1288
84.8297
84.5431
84.2777
84.0428
83.8481
83.7004
83.6036
83.5595
83.5671
83.6201
83.7085
83.8184
83.9311
84.0218
84.0599
84.0095
83.8281
83.4674
82.8727
82.119
83.6434
86.0991
90.4857
94.8714
99.2743
106.082
115.321
124.477
133.508
142.363
150.979
159.288
167.215
174.68
181.602
187.898
193.49
198.303
202.269
205.327
207.422
208.511
208.561
207.558
205.507
202.437
198.394
193.436
187.631
181.048
173.754
165.815
157.291
148.235
138.7
128.731
118.371
107.659
96.6299
85.3177
73.7528
61.964
49.979
37.8242
30.6332
33.6989
36.9647
126.681
66.0343
76.1568
81.0367
84.6153
87.6823
90.4381
92.9613
95.2886
97.4366
99.4118
101.214
102.841
104.284
105.536
106.586
107.423
108.034
108.409
108.535
108.405
108.01
107.344
106.405
105.194
103.713
101.968
99.9669
97.7207
95.2415
92.543
89.6396
86.5467
84.3729
84.0047
84.3909
84.6836
84.8887
85.0124
85.0616
85.0431
84.964
84.8313
84.6519
84.4328
84.1807
83.902
83.6032
83.2903
82.9694
82.6461
82.3256
82.0134
81.7144
81.4319
81.1689
80.9273
80.7051
80.496
80.2907
80.0758
79.8321
79.5356
79.1589
78.6698
78.0304
77.1977
76.1228
74.7518
73.0249
72.0909
73.8474
78.467
83.229
90.1579
99.2533
108.358
117.429
126.416
135.254
143.873
152.194
160.133
167.603
174.516
180.785
186.325
191.057
194.906
197.802
199.685
200.512
200.255
198.911
196.502
193.085
188.705
183.439
177.356
170.529
163.021
154.897
146.21
137.012
127.35
117.264
106.792
95.9693
84.8278
73.3974
61.7062
49.7812
37.6484
25.3332
23.8672
27.6634
128.729
66.5559
76.7502
82.1313
86.27
89.8976
93.2016
96.2587
99.1058
101.76
104.229
106.513
108.608
110.508
112.202
113.68
114.928
115.935
116.686
117.17
117.374
117.292
116.915
116.241
115.269
114.004
112.45
110.618
108.518
106.165
103.573
100.76
97.7416
94.5355
91.1588
87.6285
84.0846
82.4758
82.6388
82.723
82.7354
82.6833
82.5737
82.4135
82.2093
81.9677
81.6945
81.3954
81.0757
80.7398
80.3921
80.0356
79.6735
79.3074
78.9379
78.5654
78.1887
77.8036
77.4041
76.9815
76.5224
76.0085
75.4177
74.7253
73.9003
72.906
71.7012
70.2401
68.4714
66.3388
63.7799
61.6584
64.1854
69.2238
76.215
85.1357
94.1447
103.203
112.258
121.249
130.104
138.742
147.076
155.014
162.464
169.33
175.521
180.944
185.512
189.141
191.758
193.305
193.749
193.085
191.322
188.534
184.739
180.028
174.472
168.144
161.109
153.43
145.16
136.351
127.047
117.288
107.111
96.5498
85.6339
74.3924
62.8525
51.0401
38.9805
26.6985
17.392
20.377
130.644
66.4808
76.7717
82.6989
87.4273
91.6411
95.5177
99.1323
102.523
105.707
108.694
111.484
114.073
116.453
118.615
120.547
122.234
123.662
124.816
125.683
126.25
126.505
126.441
126.055
125.344
124.313
122.967
121.317
119.376
117.159
114.682
111.965
109.025
105.883
102.556
99.0642
95.4252
91.6565
87.7748
83.7963
80.9595
80.0993
80.0124
79.8703
79.6795
79.4465
79.177
78.8763
78.5492
78.1996
77.8308
77.4451
77.0441
76.628
76.1958
75.7456
75.2738
74.774
74.2385
73.6568
73.0145
72.2938
71.4751
70.5345
69.4422
68.1636
66.6598
64.8866
62.7937
60.3251
57.4202
54.0122
52.1045
56.9141
63.9556
72.708
81.6126
90.6344
99.7261
108.828
117.87
126.77
135.44
143.785
151.707
159.105
165.879
171.927
177.149
181.448
184.739
186.955
188.053
188.026
186.878
184.701
181.507
177.372
172.371
166.575
160.05
152.857
145.049
136.676
127.78
118.4
108.571
98.3239
87.6877
76.6892
65.3542
53.7073
41.7724
29.5735
17.1346
15.0275
132.43
65.7354
76.1465
82.6607
88.0093
92.8351
97.308
101.503
105.46
109.197
112.725
116.043
119.148
122.032
124.686
127.095
129.245
131.121
132.705
133.982
134.937
135.558
135.834
135.759
135.333
134.556
133.437
131.986
130.217
128.146
125.793
123.178
120.322
117.247
113.972
110.519
106.909
103.158
99.2875
95.313
91.2514
87.118
82.9276
78.8995
76.9071
76.6809
76.4129
76.1084
75.772
75.4073
75.0173
74.6039
74.1678
73.7084
73.2241
72.7114
72.1651
71.5776
70.9394
70.2383
69.4587
68.5825
67.5899
66.456
65.1513
63.6429
61.894
59.8618
57.4972
54.7463
51.5487
47.8374
43.5394
45.9635
53.0727
61.6881
70.505
79.4945
88.6144
97.8094
107.011
116.139
125.104
133.81
142.154
150.031
157.333
163.947
169.765
174.678
178.592
181.433
183.156
183.745
183.203
181.604
178.995
175.44
171.008
165.767
159.781
153.108
145.801
137.906
129.464
120.511
111.08
101.199
90.8962
80.1953
69.1198
57.6926
45.9359
33.8721
21.5239
12.1791
134.097
64.3072
74.8129
81.9474
87.9439
93.4057
98.497
103.295
107.839
112.151
116.24
120.108
123.75
127.159
130.325
133.234
135.871
138.218
140.258
141.973
143.346
144.36
145.004
145.269
145.152
144.655
143.783
142.549
140.967
139.057
136.838
134.333
131.567
128.562
125.342
121.929
118.346
114.614
110.753
106.78
102.714
98.5722
94.369
90.1193
85.837
81.5349
77.2253
74.0275
72.7983
72.4163
72.0033
71.561
71.0899
70.5892
70.0565
69.4877
68.8766
68.2149
67.4919
66.6943
65.8058
64.8078
63.6792
62.3942
60.923
59.2325
57.2859
55.0405
52.4484
49.4572
46.0076
42.033
37.4601
36.0903
43.2942
51.8131
60.5731
69.5503
78.7081
87.9955
97.3473
106.685
115.92
124.955
133.684
141.997
149.778
156.909
163.267
168.739
173.221
176.635
178.935
180.107
180.164
179.15
177.124
174.151
170.296
165.626
160.201
154.077
147.303
139.924
131.977
123.496
114.511
105.047
95.1299
84.7804
74.0196
62.8678
51.3448
39.4708
27.2665
14.7534
15.4323
135.648
62.2234
72.7831
80.5492
87.2001
93.306
99.0269
104.441
109.589
114.494
119.164
123.6
127.799
131.751
135.448
138.875
142.019
144.861
147.383
149.563
151.383
152.822
153.865
154.501
154.723
154.531
153.932
152.936
151.56
149.825
147.752
145.368
142.699
139.769
136.607
133.237
129.683
125.968
122.114
118.142
114.07
109.916
105.696
101.427
97.1225
92.7957
88.4592
84.1246
79.8024
75.5022
71.2328
68.624
67.8534
67.3105
66.7298
66.1068
65.4349
64.7053
63.9068
63.0253
62.0442
60.9441
59.703
58.2944
56.6882
54.8507
52.7443
50.3255
47.5464
44.3545
40.6904
36.4878
31.6735
27.3091
34.4076
42.8676
51.6031
60.594
69.8079
79.1977
88.7016
98.2433
107.735
117.077
126.163
134.877
143.098
150.698
157.549
163.529
168.532
172.479
175.321
177.046
177.668
177.228
175.781
173.391
170.121
166.033
161.187
155.635
149.423
142.591
135.176
127.207
118.712
109.713
100.231
90.2862
79.8947
69.0741
57.8414
46.2139
34.2096
21.8477
15.5093
137.084
59.4348
70.015
78.4129
85.7129
92.4613
98.8154
104.854
110.62
116.136
121.408
126.435
131.211
135.725
139.968
143.929
147.597
150.955
153.983
156.659
158.957
160.855
162.332
163.372
163.966
164.11
163.811
163.079
161.931
160.389
158.478
156.227
153.664
150.817
147.718
144.392
140.868
137.171
133.324
129.35
125.269
121.101
116.862
112.57
108.24
103.885
99.518
95.151
90.7947
86.4587
82.1516
77.8806
73.6517
69.4698
65.3379
62.7803
61.8697
61.0748
60.2052
59.2465
58.1818
56.9912
55.6519
54.1371
52.4162
50.4548
48.2144
45.6511
42.7164
39.3569
35.512
31.1149
26.0914
20.3589
26.2501
34.683
43.4226
52.4521
61.7421
71.2487
80.9123
90.6584
100.399
110.036
119.457
128.545
137.17
145.199
152.498
158.942
164.422
168.859
172.208
174.456
175.619
175.734
174.856
173.044
170.359
166.861
162.605
157.64
152.011
145.753
138.9
131.479
123.514
115.023
106.025
96.5347
86.566
76.1324
65.2473
53.9245
42.1786
30.0257
18.8976
138.463
55.9411
66.482
75.496
83.4219
90.794
97.7704
104.433
110.826
116.971
122.872
128.519
133.897
138.993
143.797
148.307
152.514
156.408
159.967
163.167
165.979
168.372
170.32
171.802
172.803
173.319
173.351
172.911
172.016
170.69
168.96
166.856
164.412
161.658
158.628
155.352
151.861
148.182
144.342
140.365
136.273
132.088
127.828
123.51
119.15
114.763
110.362
105.959
101.565
97.1895
92.8409
88.5263
84.2515
80.0209
75.8371
71.7007
67.6105
63.5628
59.5513
56.1933
54.2351
52.9608
51.5322
49.9221
48.0995
46.0296
43.6729
40.985
37.9168
34.4135
30.4138
25.8494
20.6446
14.7142
18.6866
27.1217
35.8914
44.9822
54.3676
64.0058
73.839
83.7937
93.7819
103.703
113.443
122.878
131.876
140.297
148.003
154.867
160.783
165.673
169.494
172.235
173.912
174.563
174.237
172.992
170.887
167.977
164.316
159.948
154.915
149.251
142.985
136.141
128.739
120.796
112.324
103.336
93.8415
83.8496
73.3696
62.4111
50.9847
39.1025
26.7786
139.837
51.8302
62.2346
71.8095
80.3026
88.2473
95.8068
103.068
110.081
116.867
123.425
129.732
135.751
141.458
146.846
151.918