/*--------------------------------*- C++ -*----------------------------------*\
  =========                 |
  \\      /  F ield         | OpenFOAM: The Open Source CFD Toolbox
   \\    /   O peration     | Website:  https://openfoam.org
    \\  /    A nd           | Version:  10
     \\/     M anipulation  |
\*---------------------------------------------------------------------------*/
FoamFile
{
    format      ascii;
    class       volScalarField;
    location    "46000";
    object      p;
}
// * * * * * * * * * * * * * * * * * * * * * * * * * * * * * * * * * * * * * //

dimensions      [0 2 -2 0 0 0 0];

internalField   nonuniform List<scalar> 
17969
(
-5.93037
-5.92077
-5.91311
-5.90507
-5.89653
-5.88757
-5.87819
-5.86829
-5.85776
-5.84655
-5.83459
-5.82167
-5.80751
-5.79198
-5.775
-5.7566
-5.73683
-5.71573
-5.69355
-5.6706
-5.6468
-5.62205
-5.5964
-5.56986
-5.54247
-5.51422
-5.48507
-5.45501
-5.424
-5.39201
-5.359
-5.32496
-5.28985
-5.25363
-5.21628
-5.17777
-5.13807
-5.09713
-5.05492
-5.01141
-4.96655
-4.92032
-4.87266
-4.82355
-4.77292
-4.72075
-4.66697
-4.61155
-4.55444
-4.49558
-4.43491
-4.37239
-4.30796
-4.24155
-4.17311
-4.10257
-4.02986
-3.95492
-3.87769
-3.79807
-3.71602
-3.63144
-3.54426
-3.45439
-3.36177
-3.2663
-3.1679
-3.06648
-2.96196
-2.85424
-2.74324
-2.62886
-2.511
-2.38959
-2.26631
-2.14465
-2.02632
-1.9112
-1.79916
-1.69015
-1.58419
-1.48122
-1.38117
-1.28396
-1.18953
-1.0978
-1.00871
-0.922194
-0.838196
-0.756664
-0.677501
-0.600587
-0.525856
-0.453261
-0.382733
-0.314213
-0.247649
-0.182991
-0.120187
-0.0591905
-5.92921
-5.91964
-5.91193
-5.90389
-5.89546
-5.88667
-5.87752
-5.86797
-5.85796
-5.84739
-5.83613
-5.82414
-5.8114
-5.79777
-5.78294
-5.76678
-5.74919
-5.73018
-5.70977
-5.68803
-5.66497
-5.6408
-5.61586
-5.59005
-5.56318
-5.53531
-5.5065
-5.47676
-5.44606
-5.41438
-5.3817
-5.34797
-5.31317
-5.27726
-5.24022
-5.20202
-5.16261
-5.12196
-5.08005
-5.03682
-4.99226
-4.94631
-4.89894
-4.8501
-4.79976
-4.74786
-4.69435
-4.6392
-4.58234
-4.52373
-4.46331
-4.40103
-4.33682
-4.27063
-4.20239
-4.13204
-4.0595
-3.98472
-3.90762
-3.82813
-3.74617
-3.66165
-3.57452
-3.48467
-3.39202
-3.29649
-3.198
-3.09645
-2.99174
-2.88379
-2.77251
-2.65779
-2.53954
-2.41767
-2.29388
-2.17167
-2.05276
-1.93703
-1.82434
-1.71468
-1.60806
-1.50443
-1.4037
-1.30582
-1.21071
-1.11831
-1.02856
-0.941377
-0.856715
-0.774519
-0.694735
-0.617279
-0.542015
-0.46885
-0.397749
-0.328668
-0.261553
-0.196354
-0.133018
-0.0714968
-5.92811
-5.91852
-5.91071
-5.9026
-5.89414
-5.88537
-5.87627
-5.8668
-5.85694
-5.84665
-5.83585
-5.82449
-5.81244
-5.79962
-5.78603
-5.77158
-5.75605
-5.73927
-5.72112
-5.70157
-5.68062
-5.6583
-5.63465
-5.60966
-5.58354
-5.55653
-5.52856
-5.49943
-5.46921
-5.43793
-5.40561
-5.37223
-5.33777
-5.30215
-5.2654
-5.22754
-5.18845
-5.14811
-5.1065
-5.06359
-5.01933
-4.97368
-4.92661
-4.87808
-4.82803
-4.77643
-4.72322
-4.66835
-4.61178
-4.55345
-4.49331
-4.43129
-4.36734
-4.30139
-4.23338
-4.16325
-4.09092
-4.01633
-3.93939
-3.86004
-3.7782
-3.69379
-3.60672
-3.5169
-3.42426
-3.3287
-3.23013
-3.12846
-3.02358
-2.91541
-2.80385
-2.6888
-2.57015
-2.44781
-2.32349
-2.2007
-2.08118
-1.96481
-1.85145
-1.74109
-1.63377
-1.52942
-1.42797
-1.32936
-1.23352
-1.14039
-1.04991
-0.96201
-0.876631
-0.793717
-0.713219
-0.635086
-0.559238
-0.485527
-0.413827
-0.34412
-0.276393
-0.210596
-0.146676
-0.0845816
-5.92733
-5.91772
-5.90983
-5.90163
-5.89312
-5.88431
-5.87518
-5.86572
-5.85589
-5.84569
-5.83506
-5.82397
-5.81236
-5.80016
-5.78728
-5.77363
-5.75919
-5.74394
-5.72773
-5.71036
-5.6917
-5.67167
-5.65024
-5.62737
-5.60307
-5.57735
-5.55024
-5.52192
-5.49259
-5.46212
-5.43039
-5.39747
-5.36338
-5.32815
-5.29177
-5.25419
-5.2154
-5.17537
-5.13407
-5.09147
-5.04752
-5.0022
-4.95545
-4.90723
-4.85751
-4.80623
-4.75334
-4.69879
-4.64254
-4.58452
-4.52468
-4.46295
-4.39929
-4.33362
-4.26588
-4.19599
-4.1239
-4.04953
-3.9728
-3.89363
-3.81194
-3.72766
-3.64069
-3.55094
-3.45833
-3.36277
-3.26415
-3.16237
-3.05735
-2.94898
-2.83715
-2.72177
-2.60273
-2.47992
-2.35505
-2.23167
-2.11152
-1.99448
-1.88042
-1.76934
-1.66127
-1.55616
-1.45394
-1.35455
-1.25793
-1.16402
-1.07275
-0.984077
-0.897927
-0.814248
-0.732984
-0.65409
-0.577518
-0.503181
-0.430912
-0.360576
-0.292171
-0.225712
-0.161151
-0.0984331
-0.0375121
0.0216559
0.0791133
0.134902
-5.92686
-5.91723
-5.90927
-5.90103
-5.89248
-5.88364
-5.8745
-5.86504
-5.85524
-5.84509
-5.83456
-5.82362
-5.81225
-5.80039
-5.78799
-5.77501
-5.76135
-5.74693
-5.73169
-5.71564
-5.69871
-5.68069
-5.66144
-5.64084
-5.6188
-5.59526
-5.57017
-5.54353
-5.51534
-5.48569
-5.45481
-5.42276
-5.38941
-5.35474
-5.31878
-5.28157
-5.24312
-5.20343
-5.16246
-5.1202
-5.07659
-5.03161
-4.98521
-4.93735
-4.88798
-4.83705
-4.78452
-4.73033
-4.67443
-4.61675
-4.55725
-4.49586
-4.43252
-4.36716
-4.29972
-4.23013
-4.15831
-4.08419
-4.0077
-3.92875
-3.84725
-3.76313
-3.6763
-3.58666
-3.49412
-3.39858
-3.29994
-3.1981
-3.09296
-2.98441
-2.87234
-2.75664
-2.63721
-2.51393
-2.38852
-2.26453
-2.14372
-2.026
-1.91123
-1.7994
-1.69055
-1.58464
-1.4816
-1.38138
-1.28393
-1.18918
-1.09708
-1.00757
-0.920591
-0.836091
-0.754013
-0.674308
-0.596933
-0.521839
-0.448905
-0.377944
-0.308852
-0.241666
-0.176402
-0.113006
-0.051427
0.00838008
0.0664577
0.122848
-5.92655
-5.9169
-5.90891
-5.90063
-5.89205
-5.88319
-5.87404
-5.86458
-5.8548
-5.84468
-5.8342
-5.82335
-5.81211
-5.80044
-5.78833
-5.77571
-5.76255
-5.7488
-5.73437
-5.71919
-5.70316
-5.68624
-5.66845
-5.64964
-5.62962
-5.60822
-5.58534
-5.56088
-5.53479
-5.50703
-5.47763
-5.4466
-5.41408
-5.3803
-5.34524
-5.30879
-5.27094
-5.23176
-5.19124
-5.14939
-5.1062
-5.06162
-5.01563
-4.96818
-4.91922
-4.8687
-4.81657
-4.76278
-4.70727
-4.64998
-4.59086
-4.52985
-4.46687
-4.40186
-4.33476
-4.26549
-4.19399
-4.12016
-4.04394
-3.96525
-3.88399
-3.80008
-3.71342
-3.62392
-3.53149
-3.43602
-3.3374
-3.23554
-3.13031
-3.02161
-2.90932
-2.79333
-2.67353
-2.54979
-2.42383
-2.29923
-2.17775
-2.05933
-1.94384
-1.83124
-1.72158
-1.61483
-1.51093
-1.40985
-1.31151
-1.21588
-1.12289
-1.03248
-0.944616
-0.859234
-0.776285
-0.695719
-0.617489
-0.541554
-0.467861
-0.396205
-0.326371
-0.258405
-0.192386
-0.128266
-0.065984
-0.0054956
0.0532425
0.110273
-5.92633
-5.91665
-5.90862
-5.90032
-5.89171
-5.88283
-5.87366
-5.86419
-5.8544
-5.84429
-5.83383
-5.82301
-5.81181
-5.80022
-5.78822
-5.77576
-5.76284
-5.74941
-5.73541
-5.72081
-5.70552
-5.68947
-5.67256
-5.65469
-5.63582
-5.61595
-5.59491
-5.57248
-5.54853
-5.52296
-5.4957
-5.46672
-5.43603
-5.40365
-5.36963
-5.3341
-5.29727
-5.25909
-5.21943
-5.17832
-5.13576
-5.09176
-5.04632
-4.99938
-4.95093
-4.9009
-4.84924
-4.79592
-4.74086
-4.68402
-4.62532
-4.56472
-4.50215
-4.43754
-4.37082
-4.30191
-4.23076
-4.15727
-4.08137
-4.00297
-3.92199
-3.83833
-3.7519
-3.66259
-3.57031
-3.47496
-3.37641
-3.27456
-3.16929
-3.06048
-2.94802
-2.83177
-2.71162
-2.58744
-2.46094
-2.33572
-2.21356
-2.09442
-1.9782
-1.86483
-1.75433
-1.64671
-1.54192
-1.43993
-1.34067
-1.2441
-1.15016
-1.05881
-0.969999
-0.883675
-0.799794
-0.718309
-0.639173
-0.562348
-0.487795
-0.415308
-0.344656
-0.27588
-0.209067
-0.144178
-0.0811519
-0.0199415
0.0394967
0.0972052
0.153226
-5.92615
-5.91644
-5.90839
-5.90006
-5.89143
-5.88252
-5.87333
-5.86383
-5.85403
-5.8439
-5.83343
-5.8226
-5.81141
-5.79982
-5.78784
-5.77544
-5.76259
-5.74926
-5.73543
-5.72106
-5.7061
-5.6905
-5.67419
-5.65709
-5.63912
-5.62016
-5.60012
-5.57895
-5.55662
-5.53297
-5.5078
-5.481
-5.4525
-5.42228
-5.39031
-5.35661
-5.32121
-5.28416
-5.24559
-5.20563
-5.1642
-5.12119
-5.0766
-5.03043
-4.98267
-4.93328
-4.88223
-4.82947
-4.77495
-4.71862
-4.66042
-4.60029
-4.53817
-4.474
-4.4077
-4.33921
-4.26845
-4.19535
-4.11981
-4.04175
-3.96109
-3.87773
-3.79157
-3.70251
-3.61044
-3.51525
-3.41682
-3.31504
-3.20978
-3.10092
-2.98832
-2.87186
-2.75139
-2.6268
-2.49979
-2.37396
-2.25111
-2.13125
-2.01427
-1.90011
-1.78876
-1.68025
-1.57455
-1.4716
-1.37138
-1.27382
-1.1789
-1.08655
-0.996731
-0.909403
-0.824523
-0.742047
-0.661936
-0.58416
-0.508666
-0.435241
-0.363683
-0.294052
-0.226419
-0.160729
-0.0969229
-0.0349541
0.0252205
0.0836438
0.140358
0.195403
0.24882
-5.92602
-5.91628
-5.90821
-5.89985
-5.8912
-5.88227
-5.87305
-5.86354
-5.85371
-5.84356
-5.83307
-5.82222
-5.81101
-5.79942
-5.78742
-5.775
-5.76215
-5.74885
-5.73506
-5.72077
-5.70593
-5.69051
-5.67446
-5.65773
-5.64026
-5.62196
-5.60275
-5.58254
-5.56122
-5.5387
-5.51495
-5.48991
-5.46342
-5.43533
-5.40557
-5.37408
-5.34085
-5.30584
-5.26907
-5.23054
-5.19034
-5.1486
-5.1053
-5.06033
-5.01362
-4.96517
-4.91496
-4.86296
-4.80914
-4.75344
-4.69584
-4.63627
-4.57467
-4.511
-4.44519
-4.37716
-4.30685
-4.23417
-4.15904
-4.08138
-4.00111
-3.9181
-3.83227
-3.7435
-3.6517
-3.55674
-3.45849
-3.35684
-3.25165
-3.14279
-3.03012
-2.9135
-2.79278
-2.66782
-2.54033
-2.41391
-2.29039
-2.16976
-2.052
-1.93704
-1.82483
-1.7154
-1.60875
-1.50483
-1.40361
-1.30504
-1.20907
-1.11568
-1.0248
-0.936413
-0.85047
-0.76693
-0.685763
-0.606951
-0.530408
-0.455941
-0.383442
-0.312951
-0.244469
-0.177942
-0.113319
-0.0505536
0.0103961
0.0695722
0.127016
0.182769
0.23687
0.289361
-5.92593
-5.91616
-5.90808
-5.8997
-5.89103
-5.88209
-5.87286
-5.86333
-5.85349
-5.84332
-5.83281
-5.82195
-5.81072
-5.79911
-5.7871
-5.77467
-5.76181
-5.7485
-5.73471
-5.72042
-5.70561
-5.69025
-5.67431
-5.65774
-5.6405
-5.62255
-5.6038
-5.5842
-5.56366
-5.5421
-5.51942
-5.49551
-5.47031
-5.4438
-5.41589
-5.38645
-5.35536
-5.32255
-5.28797
-5.25158
-5.21335
-5.17326
-5.13136
-5.08776
-5.04247
-4.99537
-4.94638
-4.89547
-4.84262
-4.7878
-4.73098
-4.67213
-4.6112
-4.54815
-4.48291
-4.41544
-4.34565
-4.27349
-4.19881
-4.12159
-4.04179
-3.95921
-3.87375
-3.78535
-3.6939
-3.59925
-3.50125
-3.3998
-3.29476
-3.18598
-3.0733
-2.95658
-2.83567
-2.7104
-2.58248
-2.45552
-2.33135
-2.20998
-2.09139
-1.97558
-1.8625
-1.75213
-1.64446
-1.53951
-1.43724
-1.33762
-1.2406
-1.14615
-1.05421
-0.964745
-0.877708
-0.793032
-0.710686
-0.630672
-0.552981
-0.477521
-0.404132
-0.332738
-0.263338
-0.195914
-0.130419
-0.0668049
-0.00503062
0.0549455
0.113164
0.169667
0.224493
0.277683
0.329277
0.379316
-5.92588
-5.91609
-5.90799
-5.89961
-5.89093
-5.88198
-5.87274
-5.8632
-5.85335
-5.84318
-5.83266
-5.82179
-5.81056
-5.79894
-5.78692
-5.77449
-5.76163
-5.74832
-5.73453
-5.72025
-5.70546
-5.69012
-5.67422
-5.65772
-5.64059
-5.6228
-5.60429
-5.58502
-5.56494
-5.54396
-5.52202
-5.49904
-5.47492
-5.44959
-5.42294
-5.3949
-5.36545
-5.33451
-5.30195
-5.26767
-5.23159
-5.19365
-5.15377
-5.11192
-5.06815
-5.02255
-4.97509
-4.92564
-4.87412
-4.82052
-4.7648
-4.70694
-4.64692
-4.58469
-4.52022
-4.45345
-4.38432
-4.31277
-4.23873
-4.16212
-4.08283
-4.00079
-3.9158
-3.82777
-3.73674
-3.6425
-3.54482
-3.44365
-3.33886
-3.23026
-3.11767
-3.00095
-2.87993
-2.75444
-2.62615
-2.49871
-2.37394
-2.25188
-2.1325
-2.01581
-1.90179
-1.79045
-1.6818
-1.57583
-1.47248
-1.37175
-1.27364
-1.17809
-1.08501
-0.994367
-0.906149
-0.820304
-0.736798
-0.655607
-0.576722
-0.500133
-0.425762
-0.35345
-0.283092
-0.214696
-0.14826
-0.0837387
-0.0210858
0.0397407
0.0987815
0.156077
0.211668
0.265596
0.3179
0.36862
0.417798
0.465473
0.511685
0.556472
-5.92587
-5.91605
-5.90796
-5.89957
-5.89089
-5.88194
-5.8727
-5.86317
-5.85332
-5.84314
-5.83263
-5.82176
-5.81053
-5.79891
-5.7869
-5.77448
-5.76163
-5.74832
-5.73455
-5.72029
-5.70552
-5.69022
-5.67436
-5.65791
-5.64085
-5.62315
-5.60477
-5.58567
-5.56583
-5.54518
-5.52367
-5.50125
-5.47783
-5.45335
-5.42771
-5.40084
-5.37266
-5.34307
-5.31197
-5.27931
-5.24505
-5.20907
-5.17123
-5.13146
-5.08968
-5.04586
-5.00004
-4.95222
-4.90231
-4.85021
-4.79591
-4.73938
-4.68059
-4.6195
-4.55607
-4.49027
-4.42204
-4.35132
-4.27806
-4.20217
-4.12355
-4.04212
-3.9578
-3.87048
-3.78001
-3.68627
-3.58902
-3.4882
-3.38378
-3.27546
-3.163
-3.04633
-2.92532
-2.7997
-2.67115
-2.5433
-2.41803
-2.29534
-2.17524
-2.05774
-1.94284
-1.83055
-1.72087
-1.61381
-1.50935
-1.40749
-1.30821
-1.21147
-1.11722
-1.0254
-0.935967
-0.848912
-0.76419
-0.681773
-0.601647
-0.523809
-0.448252
-0.3749
-0.303585
-0.234207
-0.166778
-0.101296
-0.0377184
0.0240022
0.0839069
0.142036
0.19843
0.25313
0.306177
0.357611
0.407473
0.455803
0.502641
0.548027
-5.92589
-5.91605
-5.90796
-5.89958
-5.8909
-5.88196
-5.87273
-5.8632
-5.85336
-5.84319
-5.83269
-5.82183
-5.81061
-5.79901
-5.78701
-5.77461
-5.76177
-5.74849
-5.73475
-5.72052
-5.70578
-5.69052
-5.6747
-5.65831
-5.64132
-5.6237
-5.60541
-5.58644
-5.56674
-5.54628
-5.52501
-5.5029
-5.47989
-5.45592
-5.43092
-5.40482
-5.37755
-5.349
-5.3191
-5.28776
-5.25489
-5.2204
-5.18418
-5.14616
-5.10623
-5.06432
-5.02037
-4.97432
-4.92613
-4.87574
-4.82309
-4.76815
-4.71087
-4.65122
-4.58916
-4.52463
-4.4576
-4.38801
-4.31579
-4.24088
-4.16319
-4.08263
-3.9991
-3.91251
-3.82269
-3.72946
-3.63276
-3.53263
-3.42881
-3.32101
-3.20895
-3.09248
-2.97155
-2.84588
-2.71714
-2.58901
-2.46331
-2.34008
-2.21932
-2.10107
-1.98532
-1.87211
-1.76144
-1.65331
-1.54772
-1.44468
-1.34416
-1.24616
-1.15064
-1.05758
-0.966943
-0.878639
-0.792651
-0.708972
-0.627576
-0.548455
-0.471613
-0.397046
-0.324671
-0.254322
-0.1859
-0.119418
-0.0548723
0.00778029
0.0685847
0.127582
0.184812
0.240316
0.294134
0.346309
0.396879
0.445888
0.493374
0.539379
-5.92594
-5.91607
-5.908
-5.89963
-5.89096
-5.88202
-5.8728
-5.86328
-5.85346
-5.8433
-5.83282
-5.82198
-5.81078
-5.7992
-5.78722
-5.77484
-5.76203
-5.74878
-5.73507
-5.72088
-5.70619
-5.69097
-5.67521
-5.65888
-5.64196
-5.62441
-5.60622
-5.58735
-5.56777
-5.54744
-5.52634
-5.50443
-5.48165
-5.45798
-5.43335
-5.40772
-5.38101
-5.35315
-5.32406
-5.29365
-5.26184
-5.22852
-5.19361
-5.15699
-5.11858
-5.07827
-5.03599
-4.99167
-4.94522
-4.89657
-4.84567
-4.79246
-4.73687
-4.67886
-4.61838
-4.55538
-4.4898
-4.4216
-4.3507
-4.27705
-4.20055
-4.12112
-4.03866
-3.95307
-3.86424
-3.77196
-3.67608
-3.57654
-3.4732
-3.36582
-3.25424
-3.13827
-3.0178
-2.89238
-2.76359
-2.63529
-2.50932
-2.38565
-2.26434
-2.1454
-2.02887
-1.91476
-1.8031
-1.69391
-1.5872
-1.48297
-1.38122
-1.28195
-1.18513
-1.09076
-0.998803
-0.909252
-0.822045
-0.737097
-0.654398
-0.573969
-0.495813
-0.419937
-0.346334
-0.274917
-0.205516
-0.138034
-0.0724839
-0.0088611
0.0528764
0.112773
0.170868
0.227203
0.281819
0.334758
0.386059
0.435766
0.483918
0.530559
-5.926
-5.91611
-5.90806
-5.8997
-5.89104
-5.88211
-5.87291
-5.86341
-5.8536
-5.84346
-5.83299
-5.82218
-5.811
-5.79944
-5.7875
-5.77515
-5.76237
-5.74916
-5.73548
-5.72133
-5.70669
-5.69152
-5.67582
-5.65955
-5.6427
-5.62524
-5.60713
-5.58836
-5.56889
-5.54868
-5.52772
-5.50596
-5.48336
-5.45988
-5.43549
-5.41014
-5.38377
-5.35632
-5.32774
-5.29795
-5.26685
-5.23437
-5.20041
-5.16486
-5.12764
-5.08863
-5.04776
-5.00492
-4.96003
-4.913
-4.86375
-4.81221
-4.75832
-4.70199
-4.64318
-4.58182
-4.51785
-4.45121
-4.38182
-4.30962
-4.23452
-4.15643
-4.07526
-3.99089
-3.9032
-3.81205
-3.71727
-3.61874
-3.5163
-3.40974
-3.29886
-3.18344
-3.06327
-2.93816
-2.80968
-2.68145
-2.55535
-2.4314
-2.30965
-2.19014
-2.07291
-1.95799
-1.84542
-1.73522
-1.62741
-1.52202
-1.41905
-1.31851
-1.22039
-1.1247
-1.03142
-0.940531
-0.852014
-0.76582
-0.681875
-0.600145
-0.520664
-0.443467
-0.368557
-0.295916
-0.22545
-0.156993
-0.0904486
-0.0258268
0.0368737
0.0976934
0.156676
0.213864
0.269296
0.323015
0.375063
0.425482
0.474314
0.521601
0.567386
-5.92607
-5.91615
-5.90813
-5.89978
-5.89114
-5.88223
-5.87304
-5.86355
-5.85376
-5.84364
-5.8332
-5.8224
-5.81125
-5.79972
-5.78781
-5.77549
-5.76275
-5.74957
-5.73594
-5.72183
-5.70724
-5.69213
-5.67648
-5.66028
-5.6435
-5.62611
-5.60809
-5.58941
-5.57004
-5.54996
-5.52911
-5.50749
-5.48504
-5.46173
-5.43752
-5.41236
-5.38622
-5.35905
-5.33078
-5.30136
-5.27072
-5.23879
-5.20549
-5.17071
-5.13436
-5.09635
-5.05657
-5.01492
-4.97132
-4.92566
-4.87787
-4.82784
-4.7755
-4.72076
-4.66356
-4.60382
-4.54147
-4.47643
-4.40862
-4.33797
-4.26439
-4.18778
-4.10804
-4.02505
-3.93869
-3.84882
-3.75529
-3.65793
-3.55658
-3.45104
-3.34109
-3.22651
-3.10708
-2.98254
-2.85448
-2.72649
-2.60045
-2.4764
-2.35439
-2.23448
-2.11669
-2.00108
-1.8877
-1.77657
-1.66775
-1.56125
-1.45711
-1.35534
-1.25596
-1.15896
-1.06436
-0.972136
-0.882286
-0.794791
-0.709596
-0.626622
-0.545855
-0.467356
-0.391157
-0.317246
-0.24559
-0.176091
-0.108589
-0.0429894
0.0206949
0.0824593
0.142345
0.200396
0.256656
0.311166
0.363969
0.415108
0.464626
0.512565
0.55897
-5.92614
-5.9162
-5.90821
-5.89987
-5.89124
-5.88234
-5.87317
-5.8637
-5.85392
-5.84383
-5.8334
-5.82263
-5.8115
-5.8
-5.78812
-5.77583
-5.76313
-5.74999
-5.7364
-5.72234
-5.7078
-5.69274
-5.67716
-5.66102
-5.64431
-5.627
-5.60906
-5.59047
-5.5712
-5.55121
-5.53049
-5.50898
-5.48667
-5.4635
-5.43945
-5.41447
-5.38852
-5.36155
-5.33351
-5.30435
-5.27401
-5.24243
-5.20955
-5.17527
-5.13953
-5.10222
-5.06325
-5.02252
-4.97993
-4.93538
-4.88877
-4.84002
-4.78902
-4.7357
-4.67995
-4.62171
-4.56087
-4.49736
-4.43109
-4.36198
-4.28992
-4.21482
-4.13656
-4.05503
-3.97009
-3.88161
-3.78942
-3.69336
-3.59324
-3.48887
-3.38002
-3.26646
-3.14795
-3.0242
-2.8968
-2.76929
-2.64353
-2.5196
-2.39754
-2.27742
-2.15926
-2.04313
-1.92909
-1.81718
-1.70746
-1.59997
-1.49475
-1.39183
-1.29124
-1.19299
-1.0971
-1.00358
-0.912429
-0.823637
-0.73718
-0.652977
-0.570973
-0.491222
-0.413787
-0.338653
-0.265798
-0.195173
-0.126661
-0.0601235
0.00450548
0.0672121
0.127999
0.186911
0.243993
0.299288
0.352841
0.404696
0.454896
0.503487
0.550512
-5.92621
-5.91623
-5.90828
-5.89995
-5.89133
-5.88245
-5.87329
-5.86384
-5.85408
-5.844
-5.83359
-5.82284
-5.81174
-5.80027
-5.78841
-5.77615
-5.76349
-5.75039
-5.73684
-5.72283
-5.70833
-5.69333
-5.6778
-5.66173
-5.64509
-5.62785
-5.60999
-5.59149
-5.57231
-5.55242
-5.5318
-5.51041
-5.48822
-5.46519
-5.44128
-5.41645
-5.39067
-5.36387
-5.33603
-5.30708
-5.27698
-5.24566
-5.21307
-5.17914
-5.14379
-5.10695
-5.06854
-5.02846
-4.98662
-4.94291
-4.89725
-4.84952
-4.79963
-4.74748
-4.69298
-4.63604
-4.57655
-4.51443
-4.44957
-4.38189
-4.31127
-4.23762
-4.1608
-4.08071
-3.99719
-3.9101
-3.81929
-3.72457
-3.62576
-3.52264
-3.415
-3.30257
-3.18511
-3.06233
-2.93576
-2.80891
-2.68365
-2.56005
-2.43815
-2.318
-2.19967
-2.08322
-1.96871
-1.8562
-1.74575
-1.63742
-1.53126
-1.42731
-1.32561
-1.2262
-1.12911
-1.03435
-0.94195
-0.851903
-0.764212
-0.678805
-0.595615
-0.514685
-0.436081
-0.359822
-0.28586
-0.214106
-0.144504
-0.07698
-0.0114335
0.0521681
0.113828
0.173577
0.231459
0.28752
0.341807
0.394364
0.445237
0.494472
0.542113
0.588203
-5.92626
-5.91626
-5.90833
-5.90002
-5.89141
-5.88254
-5.87339
-5.86395
-5.8542
-5.84414
-5.83376
-5.82303
-5.81194
-5.80049
-5.78866
-5.77644
-5.7638
-5.75074
-5.73723
-5.72326
-5.70881
-5.69386
-5.67839
-5.66238
-5.6458
-5.62863
-5.61085
-5.59243
-5.57334
-5.55355
-5.53303
-5.51174
-5.48967
-5.46676
-5.44298
-5.41829
-5.39266
-5.36603
-5.33835
-5.30959
-5.27969
-5.2486
-5.21625
-5.18258
-5.14753
-5.11104
-5.07301
-5.03339
-4.99207
-4.94897
-4.904
-4.85705
-4.80803
-4.75683
-4.70335
-4.64748
-4.58914
-4.52821
-4.4646
-4.39819
-4.32888
-4.25654
-4.18107
-4.10231
-4.02014
-3.9344
-3.84492
-3.75152
-3.654
-3.55215
-3.44573
-3.33448
-3.21814
-3.09641
-2.97078
-2.84474
-2.72013
-2.59701
-2.47545
-2.35547
-2.23716
-2.12058
-2.0058
-1.89287
-1.78188
-1.67288
-1.56594
-1.46111
-1.35845
-1.25801
-1.15982
-1.06394
-0.970371
-0.879146
-0.790269
-0.703706
-0.619415
-0.537429
-0.457778
-0.380424
-0.305335
-0.232499
-0.161882
-0.0934138
-0.0270014
0.0374295
0.0999115
0.160456
0.219095
0.275874
0.330841
0.384042
0.435525
0.485352
0.533584
0.580266
-5.9263
-5.91626
-5.90837
-5.90006
-5.89146
-5.8826
-5.87346
-5.86403
-5.8543
-5.84425
-5.83388
-5.82316
-5.8121
-5.80067
-5.78886
-5.77666
-5.76405
-5.75102
-5.73755
-5.72362
-5.70921
-5.69431
-5.67889
-5.66294
-5.64642
-5.62932
-5.61161
-5.59327
-5.57426
-5.55456
-5.53413
-5.51295
-5.49098
-5.46819
-5.44453
-5.41997
-5.39447
-5.36799
-5.34048
-5.31188
-5.28216
-5.25126
-5.21912
-5.18568
-5.15088
-5.11466
-5.07695
-5.03767
-4.99674
-4.95408
-4.90961
-4.86323
-4.81486
-4.76437
-4.71169
-4.6567
-4.59929
-4.53935
-4.47678
-4.41147
-4.34328
-4.27211
-4.19782
-4.12028
-4.03933
-3.95482
-3.86658
-3.77441
-3.67812
-3.57749
-3.47226
-3.36218
-3.24697
-3.1263
-3.00166
-2.8765
-2.75262
-2.63011
-2.509
-2.38935
-2.27122
-2.15468
-2.03979
-1.92663
-1.81527
-1.70578
-1.59823
-1.49269
-1.38923
-1.2879
-1.18877
-1.09188
-0.99727
-0.904974
-0.815009
-0.727374
-0.642066
-0.559074
-0.478378
-0.399991
-0.32393
-0.250151
-0.178608
-0.109248
-0.0420005
0.0232133
0.0864477
0.147722
0.207054
0.264485
0.320063
0.373852
0.425932
0.476368
0.525198
0.57245
-5.92632
-5.91625
-5.90838
-5.90008
-5.89148
-5.88262
-5.87349
-5.86407
-5.85435
-5.84431
-5.83394
-5.82324
-5.81219
-5.80078
-5.78899
-5.77682
-5.76423
-5.75123
-5.73779
-5.72389
-5.70952
-5.69467
-5.6793
-5.66339
-5.64693
-5.6299
-5.61225
-5.59398
-5.57505
-5.55543
-5.5351
-5.51401
-5.49214
-5.46945
-5.44591
-5.42147
-5.3961
-5.36975
-5.34238
-5.31394
-5.28438
-5.25365
-5.2217
-5.18846
-5.15388
-5.1179
-5.08045
-5.04145
-5.00084
-4.95853
-4.91445
-4.86851
-4.82061
-4.77067
-4.71859
-4.66426
-4.60758
-4.54844
-4.48671
-4.4223
-4.35506
-4.28488
-4.21161
-4.13512
-4.05525
-3.97184
-3.88471
-3.79366
-3.69849
-3.59898
-3.49487
-3.38589
-3.27175
-3.15212
-3.02847
-2.90419
-2.78109
-2.65924
-2.53867
-2.41943
-2.3016
-2.18522
-2.07037
-1.95712
-1.84555
-1.73574
-1.62774
-1.52166
-1.41756
-1.31551
-1.21558
-1.11783
-1.02232
-0.929088
-0.83817
-0.749576
-0.66331
-0.579368
-0.497758
-0.418484
-0.341524
-0.266839
-0.194405
-0.124194
-0.0561468
0.00981249
0.0737464
0.13569
0.195669
0.25372
0.309908
0.364302
0.41696
0.467923
0.517231
0.564933
-5.92632
-5.91621
-5.90837
-5.90006
-5.89146
-5.88261
-5.87348
-5.86406
-5.85434
-5.84431
-5.83395
-5.82326
-5.81222
-5.80082
-5.78905
-5.77689
-5.76432
-5.75134
-5.73793
-5.72406
-5.70973
-5.69491
-5.67958
-5.66373
-5.64732
-5.63034
-5.61276
-5.59455
-5.57569
-5.55615
-5.5359
-5.5149
-5.49312
-5.47054
-5.4471
-5.42277
-5.39752
-5.37129
-5.34405
-5.31575
-5.28634
-5.25577
-5.22398
-5.19093
-5.15654
-5.12077
-5.08354
-5.04479
-5.00444
-4.96243
-4.91867
-4.87308
-4.82557
-4.77606
-4.72444
-4.67063
-4.61451
-4.55598
-4.49492
-4.43122
-4.36475
-4.29538
-4.22297
-4.14736
-4.06841
-3.98595
-3.89978
-3.80972
-3.71555
-3.61704
-3.51393
-3.40596
-3.29281
-3.17417
-3.05145
-2.92803
-2.8057
-2.68451
-2.56452
-2.44575
-2.32828
-2.21216
-2.09745
-1.98423
-1.87258
-1.76257
-1.65428
-1.54781
-1.44321
-1.34059
-1.24001
-1.14154
-1.04527
-0.951246
-0.859509
-0.770087
-0.682995
-0.598238
-0.515814
-0.435718
-0.357933
-0.282442
-0.209227
-0.13825
-0.0694572
-0.00278398
0.061825
0.124406
0.184996
0.243644
0.30041
0.355343
0.408485
0.459895
0.509636
0.557757
-5.92629
-5.91614
-5.90831
-5.90001
-5.89141
-5.88255
-5.87342
-5.864
-5.85428
-5.84425
-5.8339
-5.82321
-5.81218
-5.80079
-5.78902
-5.77687
-5.76432
-5.75136
-5.73797
-5.72413
-5.70982
-5.69503
-5.67974
-5.66393
-5.64757
-5.63064
-5.61311
-5.59497
-5.57617
-5.5567
-5.53652
-5.51561
-5.49392
-5.47142
-5.44808
-5.42386
-5.39871
-5.3726
-5.34548
-5.31731
-5.28803
-5.25761
-5.22597
-5.19308
-5.15887
-5.12328
-5.08625
-5.04771
-5.00759
-4.96583
-4.92234
-4.87704
-4.82986
-4.78069
-4.72946
-4.67606
-4.62039
-4.56235
-4.50182
-4.43868
-4.37282
-4.30409
-4.23237
-4.15749
-4.0793
-3.99762
-3.91227
-3.82306
-3.72975
-3.63212
-3.5299
-3.42282
-3.31056
-3.1928
-3.07094
-2.94832
-2.82673
-2.70619
-2.58677
-2.46849
-2.35142
-2.2356
-2.12111
-2.008
-1.89636
-1.78627
-1.6778
-1.57105
-1.46609
-1.36302
-1.26192
-1.16288
-1.06598
-0.971292
-0.878861
-0.788729
-0.700921
-0.615453
-0.532326
-0.451537
-0.37307
-0.296902
-0.223006
-0.151347
-0.0818848
-0.0145724
0.0506383
0.113795
0.174947
0.234142
0.29143
0.346855
0.400468
0.452317
0.502447
0.550924
-5.92623
-5.91605
-5.90823
-5.89992
-5.89132
-5.88245
-5.87332
-5.86389
-5.85417
-5.84414
-5.83378
-5.82309
-5.81206
-5.80067
-5.78891
-5.77677
-5.76423
-5.75128
-5.7379
-5.72408
-5.7098
-5.69503
-5.67977
-5.66399
-5.64767
-5.63079
-5.61331
-5.59522
-5.57648
-5.55708
-5.53697
-5.51612
-5.49451
-5.4721
-5.44885
-5.42472
-5.39967
-5.37367
-5.34666
-5.31861
-5.28945
-5.25916
-5.22766
-5.19491
-5.16086
-5.12544
-5.08858
-5.05023
-5.01032
-4.96877
-4.92551
-4.88047
-4.83355
-4.78468
-4.73376
-4.6807
-4.6254
-4.56775
-4.50765
-4.44497
-4.37959
-4.31139
-4.24021
-4.16592
-4.08834
-4.00731
-3.92264
-3.83412
-3.74154
-3.64465
-3.5432
-3.43689
-3.32541
-3.20844
-3.08734
-2.96545
-2.84452
-2.7246
-2.60572
-2.48792
-2.37125
-2.25576
-2.14152
-2.02857
-1.91701
-1.80691
-1.69835
-1.59142
-1.4862
-1.3828
-1.28131
-1.18182
-1.08441
-0.989181
-0.896179
-0.805457
-0.71705
-0.63098
-0.547254
-0.465871
-0.386818
-0.310073
-0.235609
-0.163391
-0.0933797
-0.0255316
0.0401993
0.103861
0.165501
0.225171
0.282919
0.338799
0.392852
0.445117
0.495643
0.54447
-5.92616
-5.91593
-5.90812
-5.8998
-5.89118
-5.88231
-5.87316
-5.86373
-5.854
-5.84396
-5.8336
-5.8229
-5.81186
-5.80047
-5.78871
-5.77657
-5.76403
-5.75109
-5.73772
-5.72391
-5.70965
-5.69491
-5.67967
-5.66392
-5.64763
-5.63078
-5.61335
-5.59531
-5.57662
-5.55727
-5.53722
-5.51645
-5.49491
-5.47257
-5.4494
-5.42535
-5.4004
-5.37449
-5.34758
-5.31963
-5.29059
-5.26042
-5.22905
-5.19643
-5.16252
-5.12724
-5.09055
-5.05237
-5.01263
-4.97127
-4.92822
-4.88339
-4.8367
-4.78808
-4.73743
-4.68465
-4.62966
-4.57234
-4.51258
-4.45028
-4.3853
-4.31751
-4.24679
-4.17296
-4.09589
-4.01538
-3.93126
-3.84331
-3.75132
-3.65505
-3.55423
-3.44858
-3.33777
-3.22147
-3.10105
-2.97979
-2.85946
-2.74009
-2.62171
-2.50436
-2.38808
-2.27292
-2.15893
-2.04619
-1.93474
-1.82468
-1.71609
-1.60906
-1.50367
-1.40003
-1.29824
-1.1984
-1.10061
-1.00494
-0.911486
-0.820292
-0.731403
-0.644844
-0.56063
-0.47876
-0.399224
-0.322001
-0.247066
-0.174383
-0.103916
-0.0356206
0.0305469
0.0946339
0.156689
0.216761
0.274901
0.331158
0.385584
0.438229
0.489128
0.538312
-5.92606
-5.9158
-5.90798
-5.89965
-5.89101
-5.88213
-5.87297
-5.86352
-5.85378
-5.84372
-5.83335
-5.82264
-5.8116
-5.80019
-5.78843
-5.77628
-5.76374
-5.7508
-5.73744
-5.72364
-5.70938
-5.69466
-5.67944
-5.66371
-5.64745
-5.63063
-5.61323
-5.59523
-5.57659
-5.55729
-5.53729
-5.51657
-5.49509
-5.47282
-5.44972
-5.42575
-5.40088
-5.37506
-5.34824
-5.32039
-5.29145
-5.26138
-5.23013
-5.19763
-5.16385
-5.1287
-5.09215
-5.05412
-5.01454
-4.97335
-4.93047
-4.88583
-4.83935
-4.79094
-4.74052
-4.68798
-4.63324
-4.5762
-4.51673
-4.45474
-4.39008
-4.32265
-4.25228
-4.17885
-4.10217
-4.02209
-3.93842
-3.85094
-3.75944
-3.66367
-3.56337
-3.45826
-3.34801
-3.23228
-3.11243
-2.99172
-2.87191
-2.75303
-2.63509
-2.51815
-2.40223
-2.28738
-2.17365
-2.0611
-1.94979
-1.83981
-1.73123
-1.62415
-1.51865
-1.41485
-1.31285
-1.21275
-1.11466
-1.01868
-0.924868
-0.833314
-0.744048
-0.657108
-0.572509
-0.490254
-0.410334
-0.33273
-0.257416
-0.184359
-0.113521
-0.044861
0.0216656
0.0861053
0.148506
0.208917
0.267388
0.323968
0.378707
0.431656
0.482865
0.532376
-5.92595
-5.91564
-5.90782
-5.89947
-5.89081
-5.88191
-5.87273
-5.86327
-5.8535
-5.84343
-5.83304
-5.82232
-5.81126
-5.79984
-5.78806
-5.77591
-5.76336
-5.75041
-5.73705
-5.72325
-5.709
-5.69428
-5.67908
-5.66336
-5.64712
-5.63033
-5.61296
-5.59499
-5.57638
-5.55712
-5.53717
-5.5165
-5.49508
-5.47287
-5.44983
-5.42593
-5.40113
-5.37538
-5.34864
-5.32088
-5.29203
-5.26206
-5.23091
-5.19852
-5.16485
-5.12982
-5.0934
-5.0555
-5.01606
-4.97502
-4.9323
-4.88783
-4.84152
-4.79329
-4.74306
-4.69074
-4.63622
-4.5794
-4.52018
-4.45844
-4.39406
-4.32691
-4.25685
-4.18373
-4.10739
-4.02766
-3.94434
-3.85724
-3.76614
-3.67078
-3.57091
-3.46624
-3.35645
-3.24119
-3.12181
-3.00157
-2.8822
-2.76373
-2.64619
-2.5296
-2.414
-2.29943
-2.18594
-2.07358
-1.96242
-1.85253
-1.74399
-1.6369
-1.53135
-1.42744
-1.32529
-1.22501
-1.12671
-1.03048
-0.936419
-0.84461
-0.75507
-0.667852
-0.582969
-0.500426
-0.420215
-0.34232
-0.266713
-0.193364
-0.122236
-0.0532862
0.0135278
0.0782524
0.140935
0.201625
0.26037
0.317221
0.372226
0.425435
0.476896
0.526661
-5.92583
-5.91548
-5.90763
-5.89926
-5.89058
-5.88165
-5.87246
-5.86297
-5.85318
-5.84309
-5.83268
-5.82193
-5.81085
-5.79942
-5.78762
-5.77545
-5.76289
-5.74993
-5.73656
-5.72275
-5.7085
-5.69379
-5.67859
-5.66289
-5.64666
-5.62988
-5.61254
-5.59459
-5.57602
-5.55679
-5.53688
-5.51625
-5.49487
-5.47271
-5.44972
-5.42588
-5.40114
-5.37546
-5.3488
-5.32111
-5.29234
-5.26245
-5.23139
-5.1991
-5.16553
-5.13061
-5.0943
-5.05652
-5.01721
-4.97629
-4.93371
-4.88938
-4.84323
-4.79516
-4.7451
-4.69296
-4.63862
-4.582
-4.52299
-4.46147
-4.39732
-4.3304
-4.26059
-4.18773
-4.11166
-4.03222
-3.9492
-3.86241
-3.77162
-3.6766
-3.57708
-3.47277
-3.36335
-3.24848
-3.12949
-3.00963
-2.89063
-2.77251
-2.65529
-2.53901
-2.42369
-2.30937
-2.19609
-2.08391
-1.97288
-1.86309
-1.75461
-1.64753
-1.54196
-1.43799
-1.33576
-1.23536
-1.13693
-1.04055
-0.94635
-0.854356
-0.764624
-0.677209
-0.592125
-0.509378
-0.428958
-0.350851
-0.27503
-0.201464
-0.130115
-0.060945
0.00609134
0.0710392
0.133946
0.194859
0.253828
0.310902
0.366128
0.419557
0.471237
0.521215
-5.9257
-5.91531
-5.90743
-5.89904
-5.89033
-5.88138
-5.87215
-5.86264
-5.85283
-5.8427
-5.83226
-5.82149
-5.81039
-5.79893
-5.78711
-5.77491
-5.76234
-5.74936
-5.73597
-5.72216
-5.7079
-5.69318
-5.67798
-5.66228
-5.64606
-5.6293
-5.61197
-5.59404
-5.57549
-5.55629
-5.5364
-5.51581
-5.49447
-5.47235
-5.44941
-5.42562
-5.40093
-5.37531
-5.34871
-5.32108
-5.29239
-5.26257
-5.23159
-5.19938
-5.1659
-5.13108
-5.09486
-5.05718
-5.01798
-4.97719
-4.93473
-4.89053
-4.8445
-4.79658
-4.74667
-4.69467
-4.6405
-4.58405
-4.52521
-4.46387
-4.39991
-4.3332
-4.26359
-4.19095
-4.1151
-4.03588
-3.95311
-3.86657
-3.77605
-3.6813
-3.58206
-3.47805
-3.36893
-3.25436
-3.13569
-3.01615
-2.89744
-2.77961
-2.66267
-2.54664
-2.43155
-2.31744
-2.20434
-2.09232
-1.98142
-1.87173
-1.76331
-1.65627
-1.5507
-1.44672
-1.34444
-1.244
-1.1455
-1.04906
-0.954749
-0.862641
-0.772808
-0.685282
-0.600078
-0.517204
-0.436652
-0.358406
-0.282441
-0.208725
-0.137222
-0.0678924
-0.000692558
0.0644228
0.1275
0.188588
0.247734
0.304986
0.360394
0.414005
0.465868
0.516028
-5.92557
-5.91514
-5.90722
-5.8988
-5.89007
-5.88108
-5.87182
-5.86228
-5.85243
-5.84228
-5.83181
-5.82101
-5.80987