/*--------------------------------*- C++ -*----------------------------------*\
  =========                 |
  \\      /  F ield         | OpenFOAM: The Open Source CFD Toolbox
   \\    /   O peration     | Website:  https://openfoam.org
    \\  /    A nd           | Version:  10
     \\/     M anipulation  |
\*---------------------------------------------------------------------------*/
FoamFile
{
    format      ascii;
    class       volScalarField;
    location    "61000";
    object      omega;
}
// * * * * * * * * * * * * * * * * * * * * * * * * * * * * * * * * * * * * * //

dimensions      [0 0 -1 0 0 0 0];

internalField   nonuniform List<scalar> 
17922
(
24.8622
24.4931
24.1394
23.8008
23.477
23.1678
22.8732
22.5929
22.3268
22.0749
21.8371
21.6134
21.4038
21.2083
21.0271
20.8602
20.7079
20.5702
20.4476
20.3403
20.2486
20.173
20.1139
20.072
20.0478
20.0422
20.0558
20.0897
20.1445
20.2192
20.3124
20.4235
20.5518
20.6965
20.8572
21.0334
21.2247
21.4306
21.6508
21.8851
22.1331
22.3946
22.6695
22.9576
23.2587
23.5727
23.8995
24.239
24.5912
24.9558
25.3328
25.7221
26.1234
26.5366
26.9614
27.3977
27.845
28.3032
28.7717
29.2504
29.7386
30.236
30.7421
31.2562
31.7777
32.3061
32.8405
33.3803
33.9247
34.4728
35.0238
35.5769
36.1311
36.6857
37.2398
37.7928
38.344
38.8928
39.4389
39.9819
40.5217
41.0584
41.5921
42.1233
42.6526
43.1809
43.7094
44.2394
44.7728
45.3116
45.8582
46.4153
46.9862
24.8624
24.4934
24.1397
23.801
23.4772
23.1681
22.8734
22.5931
22.327
22.0751
21.8373
21.6136
21.404
21.2085
21.0273
20.8604
20.708
20.5704
20.4478
20.3404
20.2488
20.1731
20.1141
20.0722
20.048
20.0423
20.056
20.0899
20.1446
20.2193
20.3125
20.4236
20.5518
20.6965
20.8572
21.0334
21.2246
21.4305
21.6507
21.8849
22.1328
22.3944
22.6692
22.9572
23.2583
23.5722
23.899
24.2385
24.5906
24.9551
25.3321
25.7212
26.1225
26.5355
26.9602
27.3963
27.8435
28.3015
28.7699
29.2483
29.7363
30.2334
30.7391
31.2529
31.7741
32.302
32.836
33.3753
33.9191
34.4666
35.017
35.5693
36.1228
36.6766
37.23
37.7822
38.3326
38.8808
39.4261
39.9685
40.5078
41.044
41.5775
42.1086
42.638
43.1667
43.6959
44.227
44.7618
45.3025
45.8515
46.4117
46.9863
24.8627
24.4937
24.1399
23.8013
23.4775
23.1683
22.8736
22.5933
22.3272
22.0753
21.8375
21.6138
21.4041
21.2087
21.0274
20.8606
20.7082
20.5706
20.448
20.3406
20.2489
20.1733
20.1142
20.0723
20.0481
20.0425
20.0561
20.09
20.1447
20.2194
20.3126
20.4237
20.5518
20.6965
20.8572
21.0333
21.2245
21.4304
21.6505
21.8847
22.1326
22.3941
22.6689
22.9569
23.2579
23.5718
23.8985
24.2379
24.59
24.9545
25.3313
25.7204
26.1215
26.5345
26.9591
27.395
27.842
28.2998
28.768
29.2462
29.7339
30.2308
30.7362
31.2496
31.7704
32.2979
32.8314
33.3701
33.9134
34.4602
35.0099
35.5615
36.1143
36.6674
37.2199
37.7714
38.321
38.8684
39.4131
39.9549
40.4936
41.0295
41.5627
42.0937
42.6233
43.1525
43.6824
44.2147
44.7511
45.2938
45.8455
46.4089
46.9874
24.8629
24.4939
24.1402
23.8015
23.4777
23.1685
22.8739
22.5935
22.3274
22.0755
21.8377
21.614
21.4043
21.2089
21.0276
20.8608
20.7084
20.5708
20.4481
20.3408
20.2491
20.1735
20.1144
20.0725
20.0483
20.0426
20.0562
20.0901
20.1448
20.2195
20.3127
20.4237
20.5519
20.6966
20.8572
21.0333
21.2244
21.4303
21.6504
21.8845
22.1324
22.3938
22.6686
22.9565
23.2575
23.5713
23.898
24.2374
24.5893
24.9538
25.3306
25.7195
26.1206
26.5334
26.9578
27.3936
27.8405
28.2981
28.7661
29.244
29.7315
30.228
30.7331
31.2461
31.7665
32.2936
32.8266
33.3648
33.9074
34.4536
35.0026
35.5535
36.1055
36.6578
37.2096
37.7602
38.3091
38.8557
39.3997
39.9409
40.4791
41.0146
41.5476
42.0786
42.6085
43.1382
43.669
44.2025
44.7406
45.2855
45.8399
46.4067
46.9893
24.8632
24.4942
24.1404
23.8018
23.4779
23.1688
22.8741
22.5938
22.3277
22.0757
21.8379
21.6142
21.4045
21.2091
21.0278
20.8609
20.7086
20.5709
20.4483
20.341
20.2492
20.1736
20.1146
20.0726
20.0484
20.0427
20.0564
20.0902
20.1449
20.2196
20.3128
20.4238
20.552
20.6966
20.8572
21.0333
21.2244
21.4301
21.6502
21.8843
22.1322
22.3935
22.6683
22.9561
23.257
23.5709
23.8975
24.2368
24.5887
24.9531
25.3298
25.7187
26.1196
26.5323
26.9566
27.3922
27.8389
28.2963
28.7641
29.2418
29.729
30.2252
30.7299
31.2426
31.7625
32.2891
32.8216
33.3592
33.9012
34.4468
34.9951
35.5452
36.0964
36.6479
37.1988
37.7487
38.2968
38.8426
39.386
39.9265
40.4643
40.9994
41.5323
42.0634
42.5935
43.1238
43.6556
44.1905
44.7304
45.2777
45.835
46.4054
46.9923
24.8635
24.4944
24.1407
23.802
23.4782
23.169
22.8743
22.594
22.3279
22.0759
21.8381
21.6144
21.4047
21.2093
21.028
20.8611
20.7088
20.5711
20.4485
20.3411
20.2494
20.1738
20.1147
20.0728
20.0486
20.0429
20.0565
20.0904
20.145
20.2197
20.3129
20.4239
20.552
20.6966
20.8572
21.0332
21.2243
21.43
21.6501
21.8841
22.1319
22.3933
22.6679
22.9558
23.2566
23.5704
23.8969
24.2362
24.588
24.9523
25.3289
25.7177
26.1185
26.5311
26.9553
27.3908
27.8373
28.2945
28.762
29.2394
29.7263
30.2223
30.7266
31.2389
31.7584
32.2845
32.8164
33.3535
33.8948
34.4397
34.9872
35.5366
36.087
36.6377
37.1878
37.7368
38.2841
38.8292
39.3719
39.9118
40.4492
40.984
41.5167
42.0479
42.5784
43.1094
43.6422
44.1786
44.7205
45.2703
45.8307
46.4049
46.9963
24.8637
24.4947
24.1409
23.8022
23.4784
23.1692
22.8745
22.5942
22.3281
22.0761
21.8383
21.6146
21.4049
21.2094
21.0282
20.8613
20.7089
20.5713
20.4487
20.3413
20.2496
20.174
20.1149
20.0729
20.0487
20.043
20.0566
20.0905
20.1452
20.2198
20.313
20.424
20.5521
20.6967
20.8572
21.0332
21.2242
21.4299
21.6499
21.8839
22.1317
22.393
22.6676
22.9554
23.2562
23.5699
23.8964
24.2356
24.5874
24.9516
25.3281
25.7168
26.1175
26.5299
26.9539
27.3893
27.8356
28.2925
28.7598
29.237
29.7236
30.2192
30.7232
31.235
31.7541
32.2797
32.8111
33.3475
33.8882
34.4324
34.9792
35.5277
36.0773
36.6271
37.1764
37.7246
38.2711
38.8155
39.3574
39.8968
40.4337
40.9683
41.5009
42.0322
42.5632
43.095
43.629
44.167
44.711
45.2635
45.8272
46.4053
47.0014
24.864
24.4949
24.1412
23.8025
23.4787
23.1695
22.8748
22.5944
22.3283
22.0764
21.8385
21.6148
21.4051
21.2096
21.0284
20.8615
20.7091
20.5715
20.4488
20.3415
20.2498
20.1741
20.115
20.0731
20.0489
20.0432
20.0568
20.0906
20.1453
20.2199
20.3131
20.424
20.5521
20.6967
20.8572
21.0332
21.2242
21.4298
21.6498
21.8837
22.1314
22.3927
22.6672
22.955
23.2557
23.5694
23.8958
24.235
24.5867
24.9508
25.3272
25.7158
26.1164
26.5287
26.9526
27.3877
27.8338
28.2906
28.7576
29.2345
29.7208
30.216
30.7197
31.2311
31.7496
32.2747
32.8055
33.3413
33.8814
34.4248
34.9708
35.5186
36.0673
36.6162
37.1647
37.712
38.2577
38.8014
39.3427
39.8815
40.418
40.9523
41.4849
42.0165
42.548
43.0806
43.6159
44.1556
44.7019
45.2572
45.8244
46.4067
47.0077
24.8643
24.4952
24.1414
23.8027
23.4789
23.1697
22.875
22.5946
22.3285
22.0766
21.8387
21.615
21.4053
21.2098
21.0286
20.8617
20.7093
20.5717
20.449
20.3417
20.2499
20.1743
20.1152
20.0732
20.049
20.0433
20.0569
20.0908
20.1454
20.22
20.3132
20.4241
20.5522
20.6967
20.8572
21.0331
21.2241
21.4297
21.6496
21.8835
22.1312
22.3924
22.6669
22.9546
23.2553
23.5689
23.8953
24.2343
24.586
24.95
25.3263
25.7148
26.1152
26.5274
26.9511
27.3861
27.832
28.2885
28.7553
29.2319
29.7179
30.2128
30.716
31.2269
31.745
32.2695
32.7997
33.3349
33.8742
34.4169
34.9621
35.5091
36.057
36.605
37.1526
37.6991
38.244
38.7869
39.3275
39.8659
40.4019
40.936
41.4686
42.0005
42.5327
43.0663
43.6029
44.1445
44.6932
45.2515
45.8224
46.409
47.0152
24.8645
24.4955
24.1417
23.803
23.4791
23.1699
22.8752
22.5949
22.3288
22.0768
21.8389
21.6152
21.4055
21.21
21.0288
20.8619
20.7095
20.5719
20.4492
20.3418
20.2501
20.1745
20.1154
20.0734
20.0492
20.0435
20.0571
20.0909
20.1456
20.2201
20.3133
20.4242
20.5522
20.6967
20.8572
21.0331
21.224
21.4296
21.6494
21.8833
22.1309
22.3921
22.6665
22.9542
23.2548
23.5684
23.8947
24.2337
24.5852
24.9492
25.3254
25.7138
26.1141
26.5261
26.9496
27.3844
27.8301
28.2864
28.7529
29.2292
29.7149
30.2094
30.7122
31.2227
31.7402
32.2642
32.7938
33.3283
33.8669
34.4088
34.9532
35.4993
36.0463
36.5935
37.1402
37.6858
38.2299
38.7721
39.3121
39.8499
40.3856
40.9195
41.4522
41.9845
42.5173
43.052
43.5902
44.1338
44.685
45.2465
45.8212
46.4125
47.024
24.8648
24.4957
24.142
23.8033
23.4794
23.1702
22.8755
22.5951
22.329
22.077
21.8392
21.6154
21.4057
21.2102
21.029
20.8621
20.7097
20.5721
20.4494
20.342
20.2503
20.1746
20.1156
20.0736
20.0494
20.0436
20.0572
20.0911
20.1457
20.2202
20.3134
20.4243
20.5523
20.6968
20.8572
21.033
21.2239
21.4295
21.6493
21.8831
22.1307
22.3918
22.6662
22.9537
23.2543
23.5678
23.8941
24.233
24.5845
24.9483
25.3244
25.7127
26.1128
26.5247
26.9481
27.3827
27.8281
28.2842
28.7504
29.2264
29.7117
30.2058
30.7082
31.2182
31.7353
32.2586
32.7876
33.3214
33.8593
34.4004
34.9439
35.4892
36.0353
36.5816
37.1274
37.6722
38.2155
38.7569
39.2963
39.8336
40.369
40.9028
41.4357
41.9684
42.502
43.0379
43.5777
44.1234
44.6774
45.2422
45.821
46.417
47.0342
24.8651
24.496
24.1422
23.8035
23.4796
23.1704
22.8757
22.5953
22.3292
22.0772
21.8394
21.6156
21.406
21.2105
21.0292
20.8623
20.7099
20.5722
20.4496
20.3422
20.2505
20.1748
20.1157
20.0738
20.0495
20.0438
20.0574
20.0912
20.1458
20.2204
20.3135
20.4244
20.5523
20.6968
20.8572
21.033
21.2238
21.4293
21.6491
21.8829
22.1304
22.3914
22.6658
22.9533
23.2538
23.5673
23.8935
24.2323
24.5837
24.9474
25.3235
25.7116
26.1116
26.5233
26.9465
27.3809
27.8261
28.2819
28.7479
29.2235
29.7085
30.2022
30.7041
31.2136
31.7301
32.2529
32.7812
33.3143
33.8514
34.3917
34.9344
35.4787
36.0239
36.5693
37.1143
37.6582
38.2007
38.7414
39.2801
39.817
40.3521
40.8859
41.419
41.9522
42.4867
43.0239
43.5655
44.1135
44.6704
45.2387
45.8217
46.4227
47.0456
24.8654
24.4963
24.1425
23.8038
23.4799
23.1707
22.8759
22.5956
22.3294
22.0775
21.8396
21.6158
21.4062
21.2107
21.0294
20.8625
20.7101
20.5724
20.4498
20.3424
20.2507
20.175
20.1159
20.0739
20.0497
20.044
20.0575
20.0913
20.1459
20.2205
20.3136
20.4244
20.5524
20.6968
20.8572
21.033
21.2238
21.4292
21.6489
21.8826
22.1301
22.3911
22.6654
22.9529
23.2533
23.5667
23.8928
24.2316
24.5829
24.9465
25.3224
25.7104
26.1103
26.5219
26.9449
27.379
27.824
28.2795
28.7452
29.2205
29.7051
30.1984
30.6999
31.2089
31.7248
32.2469
32.7745
33.3069
33.8432
34.3827
34.9245
35.4679
36.0122
36.5567
37.1007
37.6438
38.1855
38.7255
39.2637
39.8001
40.335
40.8688
41.4021
41.9359
42.4714
43.01
43.5536
44.104
44.6639
45.236
45.8234
46.4296
47.0585
24.8657
24.4966
24.1428
23.804
23.4802
23.1709
22.8762
22.5958
22.3297
22.0777
21.8398
21.6161
21.4064
21.2109
21.0296
20.8627
20.7103
20.5726
20.45
20.3426
20.2508
20.1752
20.1161
20.0741
20.0499
20.0441
20.0577
20.0915
20.1461
20.2206
20.3137
20.4245
20.5524
20.6968
20.8572
21.0329
21.2237
21.4291
21.6487
21.8824
22.1298
22.3907
22.665
22.9524
23.2528
23.5661
23.8921
24.2308
24.582
24.9456
25.3214
25.7092
26.109
26.5204
26.9432
27.3771
27.8219
28.2771
28.7424
29.2174
29.7016
30.1945
30.6954
31.2039
31.7192
32.2407
32.7676
33.2992
33.8347
34.3734
34.9143
35.4568
36.0002
36.5437
37.0869
37.6291
38.1699
38.7093
39.2469
39.7829
40.3176
40.8515
41.3852
41.9197
42.4563
42.9964
43.542
44.0951
44.6582
45.2342
45.8262
46.4378
47.0729
24.8659
24.4968
24.143
23.8043
23.4804
23.1712
22.8764
22.5961
22.3299
22.0779
21.8401
21.6163
21.4066
21.2111
21.0298
20.8629
20.7105
20.5728
20.4502
20.3428
20.251
20.1754
20.1163
20.0743
20.05
20.0443
20.0579
20.0916
20.1462
20.2207
20.3138
20.4246
20.5525
20.6969
20.8571
21.0329
21.2236
21.4289
21.6485
21.8822
22.1295
22.3904
22.6646
22.9519
23.2523
23.5655
23.8915
24.2301
24.5812
24.9446
25.3203
25.708
26.1076
26.5188
26.9414
27.3751
27.8196
28.2746
28.7396
29.2142
29.698
30.1904
30.6909
31.1988
31.7135
32.2343
32.7605
33.2913
33.826
34.3637
34.9038
35.4454
35.9878
36.5304
37.0726
37.6139
38.154
38.6927
39.2298
39.7655
40.3
40.834
41.3681
41.9035
42.4412
42.9831
43.5308
44.0867
44.6532
45.2332
45.83
46.4472
47.0888
24.8662
24.4971
24.1433
23.8046
23.4807
23.1714
22.8767
22.5963
22.3301
22.0782
21.8403
21.6165
21.4068
21.2113
21.03
20.8631
20.7107
20.573
20.4504
20.343
20.2512
20.1756
20.1165
20.0745
20.0502
20.0445
20.058
20.0918
20.1464
20.2208
20.3139
20.4247
20.5526
20.6969
20.8571
21.0328
21.2235
21.4288
21.6483
21.8819
22.1292
22.39
22.6642
22.9514
23.2517
23.5649
23.8908
24.2293
24.5803
24.9436
25.3192
25.7067
26.1062
26.5172
26.9396
27.3731
27.8173
28.272
28.7366
29.2109
29.6942
30.1862
30.6861
31.1935
31.7075
32.2277
32.7531
33.2831
33.817
34.3538
34.8929
35.4335
35.975
36.5167
37.058
37.5985
38.1378
38.6758
39.2124
39.7478
40.2822
40.8164
41.3511
41.8873
42.4264
42.97
43.52
44.0788
44.6489
45.2332
45.835
46.458
47.1061
26.5012
26.0682
25.6516
25.2512
24.8665
24.4974
24.1436
23.8048
23.4809
23.1717
22.8769
22.5965
22.3304
22.0784
21.8405
21.6167
21.407
21.2115
21.0302
20.8633
20.7109
20.5732
20.4506
20.3432
20.2514
20.1758
20.1166
20.0746
20.0504
20.0446
20.0582
20.0919
20.1465
20.221
20.314
20.4248
20.5526
20.6969
20.8571
21.0327
21.2234
21.4286
21.6481
21.8817
22.1289
22.3897
22.6637
22.9509
23.2511
23.5642
23.89
24.2285
24.5794
24.9426
25.318
25.7054
26.1047
26.5155
26.9377
27.3709
27.8149
28.2692
28.7336
29.2074
29.6904
30.1818
30.6812
31.188
31.7014
32.2208
32.7455
33.2747
33.8076
34.3435
34.8817
35.4214
35.9619
36.5026
37.043
37.5826
38.1212
38.6585
39.1947
39.7298
40.2642
40.7987
41.3339
41.8711
42.4117
42.9572
43.5097
44.0716
44.6454
45.2341
45.8411
46.4701
47.125
26.5015
26.0685
25.6519
25.2515
24.8668
24.4977
24.1439
23.8051
23.4812
23.172
22.8772
22.5968
22.3306
22.0786
21.8407
21.617
21.4073
21.2117
21.0305
20.8635
20.7111
20.5735
20.4508
20.3434
20.2516
20.1759
20.1168
20.0748
20.0506
20.0448
20.0583
20.0921
20.1466
20.2211
20.3141
20.4248
20.5527
20.6969
20.8571
21.0327
21.2233
21.4285
21.6479
21.8814
22.1286
22.3893
22.6633
22.9504
23.2506
23.5636
23.8893
24.2276
24.5784
24.9415
25.3168
25.7041
26.1032
26.5138
26.9357
27.3687
27.8124
28.2664
28.7304
29.2039
29.6863
30.1773
30.6761
31.1822
31.695
32.2137
32.7376
33.2659
33.798
34.333
34.8701
35.4088
35.9484
36.4881
37.0276
37.5664
38.1042
38.641
39.1767
39.7116
40.2461
40.7808
41.3168
41.8551
42.3972
42.9448
43.4999
44.065
44.6427
45.2361
45.8484
46.4835
47.1454
26.5019
26.0688
25.6522
25.2518
24.8671
24.498
24.1442
23.8054
23.4815
23.1722
22.8775
22.597
22.3309
22.0789
21.841
21.6172
21.4075
21.212
21.0307
20.8637
20.7113
20.5737
20.451
20.3436
20.2518
20.1761
20.117
20.075
20.0508
20.045
20.0585
20.0923
20.1468
20.2212
20.3142
20.4249
20.5527
20.6969
20.8571
21.0326
21.2231
21.4283
21.6477
21.8811
22.1282
22.3889
22.6628
22.9499
23.25
23.5629
23.8885
24.2268
24.5775
24.9404
25.3156
25.7027
26.1016
26.512
26.9337
27.3665
27.8098
28.2635
28.7271
29.2001
29.6821
30.1726
30.6708
31.1763
31.6884
32.2063
32.7294
33.2569
33.788
34.322
34.8582
35.3959
35.9345
36.4733
37.0118
37.5498
38.0869
38.6231
39.1584
39.6931
40.2277
40.7629
41.2997
41.8392
42.3829
42.9327
43.4906
44.0591
44.6409
45.239
45.8569
46.4983
47.1674
27.9041
27.4193
26.9522
26.5022
26.0691
25.6526
25.2521
24.8674
24.4983
24.1445
23.8057
23.4818
23.1725
22.8777
22.5973
22.3311
22.0791
21.8412
21.6174
21.4077
21.2122
21.0309
20.864
20.7115
20.5739
20.4512
20.3438
20.252
20.1763
20.1172
20.0752
20.051
20.0452
20.0587
20.0924
20.1469
20.2213
20.3143
20.425
20.5528
20.6969
20.857
21.0325
21.223
21.4281
21.6475
21.8808
22.1279
22.3885
22.6623
22.9494
23.2494
23.5622
23.8878
24.2259
24.5765
24.9393
25.3143
25.7013
26.1
26.5102
26.9317
27.3641
27.8072
28.2605
28.7237
29.1963
29.6778
30.1677
30.6654
31.1702
31.6815
32.1987
32.7209
33.2475
33.7777
34.3108
34.846
35.3827
35.9202
36.458
36.9957
37.5328
38.0692
38.6049
39.1399
39.6745
40.2092
40.7449
41.2826
41.8234
42.3689
42.9211
43.4819
44.0539
44.6399
45.243
45.8666
46.5146
47.191
27.9045
27.4196
26.9525
26.5025
26.0695
25.6529
25.2524
24.8677
24.4986
24.1447
23.806
23.482
23.1728
22.878
22.5976
22.3314
22.0794
21.8415
21.6177
21.408
21.2124
21.0311
20.8642
20.7118
20.5741
20.4514
20.344
20.2522
20.1765
20.1174
20.0754
20.0511
20.0453
20.0589
20.0926
20.1471
20.2215
20.3144
20.4251
20.5528
20.697
20.857
21.0325
21.2229
21.4279
21.6473
21.8805
22.1275
22.3881
22.6619
22.9488
23.2487
23.5615
23.8869
24.225
24.5754
24.9382
25.313
25.6998
26.0983
26.5083
26.9295
27.3617
27.8044
28.2574
28.7202
29.1923
29.6733
30.1627
30.6597
31.1639
31.6745
32.1908
32.7122
33.2379
33.7671
34.2992
34.8334
35.369
35.9056
36.4424
36.9792
37.5155
38.0513
38.5864
39.1211
39.6556
40.1906
40.7269
41.2655
41.8078
42.3552
42.9098
43.4737
44.0495
44.6399
45.2481
45.8776
46.5322
47.216
27.9049
27.42
26.9528
26.5029
26.0698
25.6532
25.2527
24.868
24.4989
24.145
23.8062
23.4823
23.173
22.8782
22.5978
22.3316
22.0796
21.8417
21.6179
21.4082
21.2126
21.0313
20.8644
20.712
20.5743
20.4516
20.3442
20.2524
20.1768
20.1176
20.0756
20.0513
20.0455
20.059
20.0927
20.1472
20.2216
20.3145
20.4252
20.5528
20.697
20.857
21.0324
21.2228
21.4278
21.647
21.8802
22.1272
22.3876
22.6614
22.9482
23.2481
23.5607
23.8861
24.224
24.5744
24.937
25.3117
25.6983
26.0966
26.5063
26.9273
27.3592
27.8016
28.2542
28.7166
29.1882
29.6687
30.1575
30.6539
31.1573
31.6671
32.1827
32.7031
33.2279
33.7561
34.2872
34.8204
35.355
35.8905
36.4264
36.9623
37.4979
38.033
38.5676
39.102
39.6366
40.1719
40.7089
41.2486
41.7923
42.3419
42.8991
43.4662
44.0458
44.6408
45.2542
45.8898
46.5512
47.2426
27.9053
27.4204
26.9532
26.5032
26.0701
25.6535
25.253
24.8683
24.4992
24.1453
23.8065
23.4826
23.1733
22.8785
22.5981
22.3319
22.0799
21.8419
21.6181
21.4084
21.2129
21.0316
20.8646
20.7122
20.5745
20.4518
20.3444
20.2526
20.177
20.1178
20.0758
20.0515
20.0457
20.0592
20.0929
20.1474
20.2217
20.3146
20.4252
20.5529
20.697
20.8569
21.0323
21.2226
21.4276
21.6468
21.8799
22.1268
22.3872
22.6609
22.9477
23.2474
23.56
23.8853
24.2231
24.5733
24.9357
25.3103
25.6967
26.0948
26.5043
26.925
27.3566
27.7987
28.2509
28.7128
29.184
29.6639
30.1521
30.6478
31.1505
31.6596
32.1742
32.6938
33.2176
33.7449
34.2749
34.807
35.3406
35.8751
36.4101
36.9451
37.4798
38.0143
38.5485
39.0828
39.6174
40.1531
40.6908
41.2317
41.7771
42.3288
42.8888
43.4593
44.0429
44.6425
45.2614
45.9031
46.5715
47.2707
27.9057
27.4207
26.9535
26.5035
26.0704
25.6538
25.2533
24.8686
24.4995
24.1456
23.8068
23.4829
23.1736
22.8788
22.5983
22.3321
22.0801
21.8422
21.6184
21.4087
21.2131
21.0318
20.8649
20.7124
20.5747
20.452
20.3446
20.2529
20.1772
20.118
20.076
20.0517
20.0459
20.0594
20.0931
20.1475
20.2219
20.3147
20.4253
20.5529
20.697
20.8569
21.0322
21.2225
21.4274
21.6465
21.8796
22.1264
22.3867
22.6603
22.9471
23.2467
23.5592
23.8844
24.2221
24.5722
24.9345
25.3089
25.6951
26.093
26.5023
26.9227
27.3539
27.7956
28.2474
28.7089
29.1796
29.659
30.1465
30.6416
31.1435
31.6518
32.1656
32.6842
33.207
33.7333
34.2623
34.7933
35.3259
35.8594
36.3933
36.9275
37.4615
37.9954
38.5292
39.0633
39.598
40.1342
40.6728
41.215
41.7622
42.3162
42.879
43.453
44.0407
44.6452
45.2697
45.9177
46.5932
47.3002
27.906
27.4211
26.9538
26.5039
26.0707
25.6541
25.2536
24.8689
24.4998
24.1459
23.8071
23.4832
23.1739
22.879
22.5986
22.3324
22.0804
21.8424
21.6186
21.4089
21.2133
21.032
20.8651
20.7127
20.575
20.4523
20.3448
20.2531
20.1774
20.1182
20.0762
20.0519
20.0461
20.0596
20.0932
20.1477
20.222
20.3148
20.4254
20.553
20.697
20.8569
21.0321
21.2224
21.4272
21.6463
21.8793
22.1261
22.3863
22.6598
22.9465
23.246
23.5584
23.8835
24.2211
24.571
24.9332
25.3074
25.6934
26.0911
26.5001
26.9202
27.3512
27.7925
28.2439
28.7049
29.1751
29.6539
30.1407
30.6351
31.1363
31.6437
32.1566
32.6743
33.1961
33.7213
34.2492
34.7793
35.3108
35.8432
36.3763
36.9095
37.4428
37.9762
38.5096
39.0436
39.5786
40.1153
40.6549
41.1984
41.7475
42.3039
42.8697
43.4473
44.0394
44.6489
45.2791
45.9335
46.6161
47.3311
27.9064
27.4214
26.9542
26.5042
26.0711
25.6544
25.2539
24.8692
24.5001
24.1462
23.8074
23.4834
23.1741
22.8793
22.5989
22.3327
22.0806
21.8427
21.6189
21.4091
21.2136
21.0323
20.8653
20.7129
20.5752
20.4525
20.3451
20.2533
20.1776
20.1184
20.0764
20.0521
20.0463
20.0597
20.0934
20.1478
20.2221
20.3149
20.4255
20.553
20.697
20.8568
21.032
21.2222
21.427
21.646
21.879
22.1257
22.3858
22.6593
22.9458
23.2453
23.5576
23.8826
24.2201
24.5699
24.9319
25.3059
25.6917
26.0892
26.4979
26.9178
27.3483
27.7893
28.2403
28.7008
29.1704
29.6486
30.1348
30.6284
31.1288
31.6354
32.1474
32.6641
33.1849
33.709
34.2359
34.7648
35.2953
35.8267
36.3588
36.8912
37.4238
37.9566
38.4898
39.0238
39.559
40.0964
40.637
41.182
41.7331
42.292
42.861
43.4424
44.0389
44.6535
45.2895
45.9505
46.6404
47.3633
27.9068
27.4218
26.9545
26.5045
26.0714
25.6547
25.2542
24.8695
24.5004
24.1465
23.8077
23.4837
23.1744
22.8796
22.5991
22.3329
22.0809
21.8429
21.6191
21.4094
21.2138
21.0325
20.8656
20.7131
20.5754
20.4527
20.3453
20.2535
20.1778
20.1187
20.0766
20.0523
20.0465
20.0599
20.0936
20.148
20.2223
20.315
20.4255
20.5531
20.697
20.8568
21.032
21.2221
21.4268
21.6457
21.8787
22.1253
22.3854
22.6587
22.9452
23.2446
23.5568
23.8817
24.219
24.5687
24.9305
25.3044
25.69
26.0872
26.4957
26.9152
27.3454
27.786
28.2365
28.6965
29.1656
29.6432
30.1287
30.6216
31.1211
31.6268
32.1378
32.6536
33.1733
33.6964
34.2222
34.75
35.2794
35.8098
36.341
36.8726
37.4045
37.9369
38.4698
39.0037
39.5394
40.0775
40.6192
41.1658
41.719
42.2806
42.8529
43.4381
44.0392
44.659
45.301
45.9686
46.6658
47.3968
27.9071
27.4221
26.9548
26.5048
26.0717
25.655
25.2545
24.8698
24.5006
24.1468
23.808
23.484
23.1747
22.8799
22.5994
22.3332
22.0811
21.8432
21.6194
21.4096
21.2141
21.0327
20.8658
20.7134
20.5757
20.4529
20.3455
20.2537
20.178
20.1189
20.0768
20.0525
20.0467
20.0601
20.0937
20.1481
20.2224
20.3152
20.4256
20.5531
20.697
20.8567
21.0319
21.2219
21.4266
21.6455
21.8783
22.1249
22.3849
22.6582
22.9446
23.2439
23.556
23.8807
24.2179
24.5675
24.9292
25.3028
25.6882
26.0852
26.4934
26.9126
27.3424
27.7826
28.2327
28.6922
29.1606
29.6376
30.1224
30.6145
31.1132
31.618
32.128
32.6428
33.1615
33.6834
34.2081
34.7348
35.2632
35.7926
36.3228
36.8536
37.3849
37.9168
38.4496
38.9836
39.5196
40.0585
40.6015
41.1498
41.7053
42.2697
42.8453
43.4346
44.0403
44.6655
45.3134
45.9878
46.6924
47.4315
27.9075
27.4225
26.9552
26.5051
26.072
25.6553
25.2548
24.8701
24.5009
24.1471
23.8083
23.4843
23.175
22.8801
22.5997
22.3334
22.0814
21.8434
21.6196
21.4099
21.2143
21.033
20.866
20.7136
20.5759
20.4532
20.3457
20.254
20.1783
20.1191
20.077
20.0527
20.0469
20.0603
20.0939
20.1483
20.2225
20.3153
20.4257
20.5532
20.697
20.8567
21.0318
21.2218
21.4264
21.6452
21.878
22.1245
22.3844
22.6576
22.9439
23.2432
23.5552
23.8798
24.2169
24.5662
24.9278
25.3012
25.6864
26.0831
26.491
26.9099
27.3394
27.7791
28.2287
28.6876
29.1555
29.6318
30.1159
30.6072
31.1051
31.6089
32.118
32.6317
33.1493
33.6701
34.1937
34.7193
35.2466
35.775
36.3043
36.8343
37.365
37.8965
38.4291
38.9633
39.4999
40.0397
40.5839
41.1341
41.6919
42.2592
42.8383
43.4317
44.0422
44.6728
45.3269
46.0081
46.7202
47.4674
27.9078
27.4228
26.9555
26.5054
26.0723
25.6556
25.2551
24.8704
24.5012
24.1474
23.8085
23.4846
23.1752
22.8804
22.5999
22.3337
22.0816
21.8437
21.6199
21.4101
21.2146
21.0332
20.8663
20.7138
20.5761
20.4534
20.346
20.2542
20.1785
20.1193
20.0773
20.0529
20.0471
20.0605
20.0941
20.1485
20.2227
20.3154
20.4258
20.5532
20.697
20.8567
21.0317
21.2216
21.4262
21.6449
21.8777
22.1241
22.3839
22.6571
22.9433
23.2424
23.5543
23.8788
24.2158
24.565
24.9263
25.2996
25.6845
26.081
26.4886
26.9071
27.3362
27.7755
28.2246
28.683
29.1503
29.6258
30.1092
30.5997
31.0967
31.5995
32.1076
32.6202
33.1367
33.6565
34.1789
34.7035
35.2296
35.7571
36.2855
36.8148
37.3449
37.876
38.4085
38.943
39.4801
40.0208
40.5665
41.1186
41.6788
42.2492
42.8319
43.4296
44.0449
44.6811
45.3414
46.0294
46.749
47.5043
27.9082
27.4231
26.9558
26.5057
26.0726
25.6559
25.2554
24.8707
24.5015
24.1476
23.8088
23.4848
23.1755
22.8807
22.6002
22.334
22.0819
21.844
21.6201
21.4104
21.2148
21.0335
20.8665
20.7141
20.5764
20.4536
20.3462
20.2544
20.1787
20.1195
20.0775
20.0532
20.0473
20.0607
20.0943
20.1486
20.2228
20.3155
20.4259
20.5532
20.697
20.8566
21.0316
21.2215
21.426
21.6447
21.8773
22.1237
22.3835
22.6565
22.9426
23.2417
23.5535
23.8778
24.2146
24.5637
24.9249
25.2979
25.6826
26.0788
26.4861
26.9043
27.333
27.7718
28.2204
28.6782
29.1449
29.6197
30.1023
30.5919
31.088
31.5899
32.097
32.6085
33.1239
33.6425
34.1638
34.6872
35.2123
35.7388
36.2663
36.7949
37.3245
37.8553
38.3878
38.9225
39.4603
40.0021
40.5493
41.1034
41.6662
42.2397
42.8261
43.4281
44.0484
44.6902
45.3567
46.0516
46.7787
47.5421
27.9085
27.4234
26.9561
26.506
26.0729
25.6562
25.2557
24.871
24.5018
24.1479
23.8091
23.4851
23.1758
22.8809
22.6005
22.3342
22.0822
21.8442
21.6204
21.4106
21.2151
21.0337
20.8668
20.7143
20.5766
20.4539
20.3464
20.2547
20.1789
20.1198
20.0777
20.0534
20.0475
20.0609
20.0945
20.1488
20.223
20.3156
20.426
20.5533
20.697
20.8566
21.0315
21.2214
21.4258
21.6444
21.877
22.1233
22.383
22.6559
22.942
23.2409
23.5526
23.8769
24.2135
24.5624
24.9234
25.2962
25.6807
26.0766
26.4836
26.9014
27.3297
27.768
28.2161
28.6733
29.1393
29.6135
30.0952
30.584
31.0792
31.5801
32.0861
32.5965
33.1108
33.6283
34.1484
34.6707
35.1947
35.7202
36.2469
36.7747
37.3038
37.8344
38.3669
38.902
39.4405
39.9835
40.5323
41.0885
41.654
42.2306
42.8209
43.4273
44.0527
44.7001
45.3729
46.0747
46.8093
47.5808
27.9088
27.4237
26.9564
26.5063
26.0732
25.6565
25.2559
24.8712
24.5021
24.1482
23.8094
23.4854
23.1761
22.8812
22.6007
22.3345
22.0824
21.8445
21.6206
21.4109
21.2153
21.034
20.867
20.7146
20.5768
20.4541
20.3467
20.2549
20.1792
20.12
20.0779
20.0536
20.0477
20.0611
20.0947
20.149
20.2231
20.3157
20.4261
20.5534
20.697
20.8565
21.0314
21.2212
21.4256
21.6441
21.8767
22.1229
22.3825
22.6554
22.9413
23.2402
23.5517
23.8759
24.2124
24.5611
24.9219
25.2945
25.6788
26.0743
26.481
26.8984
27.3263
27.7642
28.2117
28.6683
29.1336
29.607
30.088
30.5759
31.0701
31.57
32.0749
32.5842
33.0974
33.6137
34.1327
34.6538
35.1768
35.7013
36.2272
36.7543
37.283
37.8133
38.3459
38.8814
39.4207
39.965
40.5155
41.074
41.6421
42.2221
42.8163
43.4272
44.0577
44.7109
45.39
46.0987
46.8408
47.6202
27.9091
27.424
26.9567
26.5066
26.0734
25.6567
25.2562
24.8715
24.5024
24.1485
23.8097
23.4857
23.1763
22.8815
22.601
22.3347
22.0827
21.8447
21.6209
21.4111
21.2156
21.0342
20.8672
20.7148
20.5771
20.4544
20.3469
20.2551
20.1794
20.1202
20.0782
20.0538
20.0479
20.0613
20.0949
20.1491
20.2233
20.3159
20.4261
20.5534
20.6971
20.8565
21.0313
21.2211
21.4254
21.6439
21.8763
22.1225
22.382
22.6548
22.9407
23.2394
23.5509
23.8749
24.2113
24.5598
24.9204
25.2928
25.6768
26.0721
26.4784
26.8954
27.3228
27.7602
28.2072
28.6632
29.1278
29.6004
30.0805
30.5675
31.0608
31.5596
32.0635
32.5717
33.0836
33.5988
34.1166
34.6367
35.1586
35.6821
36.2071
36.7337
37.2619
37.7921
38.3249
38.8609
39.4011
39.9467
40.499
41.0597
41.6307
42.2141
42.8123
43.4278
44.0634
44.7223
45.4078
46.1234
46.8729
47.6603
27.9094
27.4243
26.957
26.5069
26.0737
25.657
25.2565
24.8718
24.5026
24.1488
23.8099
23.4859
23.1766
22.8817
22.6013
22.335
22.0829
21.845
21.6211
21.4114
21.2158
21.0345
20.8675
20.7151
20.5773
20.4546
20.3472
20.2554
20.1797
20.1205
20.0784
20.0541
20.0482
20.0615
20.0951
20.1493
20.2234
20.316
20.4263
20.5535
20.6971
20.8565
21.0313
21.221
21.4252
21.6436
21.876
22.1221
22.3816
22.6543
22.9401
23.2387
23.55
23.8739
24.2101
24.5585
24.9189
25.2911
25.6748
26.0698
26.4757
26.8924
27.3193
27.7562
28.2025
28.6579
29.1218
29.5936
30.0729
30.559
31.0512
31.549
32.0518
32.5589
33.0697
33.5836
34.1003
34.6192
35.1401
35.6627
36.1869
36.7128
37.2407
37.7708
38.3037
38.8403
39.3815
39.9285
40.4827
41.0459
41.6198
42.2067
42.8089
43.429
44.0699
44.7346
45.4264
46.1489
46.9058
47.701
28.4129
27.9097
27.4246
26.9572
26.5072
26.074
25.6573
25.2567
24.872
24.5029
24.149
23.8102
23.4862
23.1769
22.882
22.6015
22.3353
22.0832
21.8452
21.6214
21.4116
21.2161
21.0347
20.8677
20.7153
20.5776
20.4549
20.3474
20.2556
20.1799
20.1207
20.0787
20.0543
20.0484
20.0617
20.0953
20.1495
20.2236
20.3161
20.4264
20.5536
20.6971
20.8565
21.0312
21.2208
21.425
21.6434
21.8757
22.1217
22.3811
22.6538
22.9394
23.238
23.5492
23.8729
24.209
24.5572
24.9174
25.2893
25.6727
26.0674
26.473
26.8892
27.3157
27.752
28.1978
28.6525
29.1156
29.5867
30.0651
30.5502
31.0414
31.5382
32.0398
32.5458
33.0554
33.5682
34.0837
34.6015
35.1213
35.6429
36.1664
36.6918
37.2193
37.7493
38.2826
38.8198
39.3621
39.9105
40.4667
41.0323
41.6093
42.1997
42.806
43.4308
44.077
44.7475
45.4457
46.175
46.9392
47.7422
28.4132
27.9099
27.4248
26.9575
26.5074
26.0742
25.6575
25.257
24.8723
24.5031
24.1493
23.8105
23.4865
23.1771
22.8823
22.6018
22.3355
22.0834
21.8455
21.6216
21.4119
21.2163
21.035
20.868
20.7156
20.5778
20.4551
20.3477
20.2559
20.1802
20.121
20.0789
20.0545
20.0486
20.062
20.0955
20.1497
20.2238
20.3163
20.4265
20.5536
20.6972
20.8565
21.0312
21.2207
21.4249
21.6432
21.8754
22.1214
22.3807
22.6532
22.9388
23.2373
23.5484
23.872
24.2079
24.5559
24.9159
25.2876
25.6707
26.065
26.4703
26.8861
27.312
27.7478
28.193
28.647
29.1094
29.5796
30.057
30.5412
31.0314
31.527
32.0275
32.5323
33.0409
33.5527
34.0671
34.5836
35.1023
35.623
36.1457
36.6706
37.1978
37.7279
38.2614
38.7994
39.3428
39.8928
40.4511
41.0192
41.5993
42.1933
42.8038
43.4334
44.0848
44.7611
45.4656
46.2017
46.9732
47.7838
28.4134
27.9102
27.4251
26.9577
26.5077
26.0745
25.6578
25.2572
24.8725
24.5034
24.1495
23.8107
23.4867
23.1774
22.8825
22.602
22.3358
22.0837
21.8457
21.6219
21.4121
21.2166
21.0352
20.8683
20.7158
20.5781
20.4554
20.3479
20.2562
20.1804
20.1212
20.0792
20.0548
20.0489
20.0622
20.0957
20.1499
20.224
20.3165
20.4266
20.5537
20.6972
20.8565
21.0311
21.2207
21.4247
21.643
21.8752
22.121
22.3803
22.6528
22.9382
23.2366
23.5476
23.871
24.2068
24.5546
24.9144
25.2858
25.6687
26.0626
26.4675
26.8828
27.3083
27.7435
28.188
28.6413
29.1029
29.5723
30.0488
30.5319
31.0209
31.5153
32.0146
32.5185
33.0262
33.5371
34.0505
34.5659
35.0834
35.6031
36.125
36.6493
37.1762
37.7064
38.2404
38.7791
39.3237
39.8754
40.4358
41.0066
41.5898
42.1875
42.8022
43.4365
44.0932
44.7753
45.4861
46.229
47.0075
28.4137
27.9104
27.4253
26.958
26.5079
26.0747
25.658
25.2575
24.8728
24.5036
24.1498
23.811
23.487
23.1776
22.8828
22.6023
22.336
22.084
21.846
21.6221
21.4124
21.2168
21.0355
20.8685
20.7161
20.5784
20.4556
20.3482
20.2564
20.1807
20.1215
20.0794
20.0551
20.0491
20.0625