/*--------------------------------*- C++ -*----------------------------------*\
  =========                 |
  \\      /  F ield         | OpenFOAM: The Open Source CFD Toolbox
   \\    /   O peration     | Website:  https://openfoam.org
    \\  /    A nd           | Version:  10
     \\/     M anipulation  |
\*---------------------------------------------------------------------------*/
FoamFile
{
    format      ascii;
    class       volScalarField;
    location    "56000";
    object      k;
}
// * * * * * * * * * * * * * * * * * * * * * * * * * * * * * * * * * * * * * //

dimensions      [0 2 -2 0 0 0 0];

internalField   nonuniform List<scalar> 
17922
(
0.0790272
0.0791826
0.0793447
0.0795139
0.0796902
0.0798739
0.0800654
0.0802648
0.0804724
0.0806886
0.0809135
0.0811476
0.0813911
0.0816443
0.0819077
0.0821816
0.0824664
0.0827625
0.0830703
0.0833903
0.0837229
0.0840686
0.0844281
0.0848017
0.0851901
0.0855939
0.0860138
0.0864504
0.0869005
0.0873564
0.087814
0.0882731
0.0887338
0.0891958
0.0896594
0.0901244
0.090591
0.0910595
0.0915299
0.0920026
0.0924778
0.0929558
0.0934371
0.0939219
0.0944107
0.0949037
0.0954014
0.095904
0.0964119
0.0969253
0.0974443
0.0979692
0.0984999
0.0990366
0.0995791
0.100127
0.100681
0.101241
0.101805
0.102374
0.102948
0.103526
0.104106
0.10469
0.105276
0.105862
0.10645
0.107036
0.107621
0.108203
0.108782
0.109355
0.109923
0.110484
0.111037
0.111582
0.112117
0.112642
0.113157
0.11366
0.114153
0.114634
0.115105
0.115564
0.116013
0.116452
0.116881
0.117301
0.117712
0.118116
0.118513
0.118903
0.119289
0.0790282
0.0791836
0.0793457
0.0795148
0.0796912
0.0798749
0.0800664
0.0802658
0.0804734
0.0806896
0.0809145
0.0811486
0.081392
0.0816453
0.0819087
0.0821826
0.0824674
0.0827634
0.0830712
0.0833912
0.0837238
0.0840695
0.0844289
0.0848025
0.0851909
0.0855947
0.0860146
0.0864511
0.0869012
0.0873571
0.0878146
0.0882738
0.0887344
0.0891964
0.0896599
0.090125
0.0905916
0.0910601
0.0915305
0.0920033
0.0924785
0.0929567
0.093438
0.093923
0.0944119
0.0949051
0.0954029
0.0959057
0.0964137
0.0969273
0.0974465
0.0979715
0.0985024
0.0990392
0.0995819
0.10013
0.100684
0.101244
0.101808
0.102378
0.102951
0.103529
0.104109
0.104693
0.105278
0.105864
0.106451
0.107037
0.107621
0.108202
0.108779
0.109352
0.109918
0.110478
0.111029
0.111572
0.112105
0.112629
0.113141
0.113643
0.114134
0.114614
0.115082
0.11554
0.115987
0.116424
0.116851
0.117269
0.117678
0.11808
0.118475
0.118863
0.119246
0.0790291
0.0791845
0.0793467
0.0795158
0.0796922
0.0798759
0.0800674
0.0802668
0.0804744
0.0806906
0.0809155
0.0811496
0.081393
0.0816463
0.0819097
0.0821836
0.0824683
0.0827644
0.0830722
0.0833921
0.0837247
0.0840704
0.0844298
0.0848034
0.0851918
0.0855955
0.0860154
0.0864519
0.0869019
0.0873578
0.0878153
0.0882744
0.088735
0.0891971
0.0896606
0.0901256
0.0905922
0.0910607
0.0915312
0.092004
0.0924794
0.0929576
0.0934391
0.0939241
0.0944131
0.0949065
0.0954045
0.0959075
0.0964157
0.0969294
0.0974488
0.097974
0.0985051
0.099042
0.0995849
0.100133
0.100688
0.101247
0.101812
0.102381
0.102954
0.103532
0.104112
0.104695
0.10528
0.105866
0.106452
0.107037
0.10762
0.1082
0.108777
0.109348
0.109913
0.110471
0.111021
0.111562
0.112094
0.112615
0.113126
0.113626
0.114115
0.114593
0.115059
0.115515
0.11596
0.116395
0.11682
0.117236
0.117643
0.118043
0.118436
0.118822
0.119202
0.0790301
0.0791855
0.0793477
0.0795168
0.0796931
0.0798769
0.0800684
0.0802678
0.0804754
0.0806916
0.0809165
0.0811506
0.081394
0.0816473
0.0819107
0.0821845
0.0824693
0.0827653
0.0830731
0.083393
0.0837256
0.0840713
0.0844307
0.0848043
0.0851926
0.0855964
0.0860162
0.0864527
0.0869027
0.0873585
0.087816
0.0882751
0.0887357
0.0891977
0.0896612
0.0901262
0.0905929
0.0910614
0.091532
0.0920048
0.0924802
0.0929585
0.0934401
0.0939253
0.0944145
0.094908
0.0954061
0.0959093
0.0964177
0.0969316
0.0974512
0.0979766
0.0985078
0.0990449
0.0995879
0.100137
0.100691
0.10125
0.101815
0.102384
0.102958
0.103535
0.104115
0.104698
0.105283
0.105868
0.106453
0.107037
0.10762
0.108199
0.108774
0.109344
0.109907
0.110464
0.111012
0.111552
0.112081
0.112601
0.11311
0.113608
0.114095
0.114571
0.115036
0.11549
0.115933
0.116366
0.116789
0.117203
0.117608
0.118006
0.118396
0.11878
0.119158
0.0790311
0.0791865
0.0793487
0.0795178
0.0796941
0.0798779
0.0800694
0.0802688
0.0804764
0.0806926
0.0809175
0.0811516
0.081395
0.0816483
0.0819117
0.0821855
0.0824703
0.0827663
0.0830741
0.083394
0.0837266
0.0840723
0.0844316
0.0848051
0.0851935
0.0855972
0.086017
0.0864535
0.0869034
0.0873593
0.0878168
0.0882758
0.0887364
0.0891984
0.0896618
0.0901269
0.0905936
0.0910621
0.0915327
0.0920056
0.0924811
0.0929595
0.0934412
0.0939265
0.0944159
0.0949095
0.0954078
0.0959112
0.0964198
0.0969339
0.0974536
0.0979792
0.0985106
0.0990479
0.099591
0.10014
0.100694
0.101254
0.101819
0.102388
0.102961
0.103538
0.104118
0.104701
0.105285
0.10587
0.106454
0.107038
0.107619
0.108197
0.108771
0.109339
0.109902
0.110456
0.111003
0.111541
0.112069
0.112587
0.113094
0.11359
0.114075
0.114549
0.115012
0.115464
0.115905
0.116336
0.116757
0.117169
0.117572
0.117967
0.118355
0.118736
0.119112
0.079032
0.0791875
0.0793497
0.0795188
0.0796951
0.0798789
0.0800704
0.0802698
0.0804775
0.0806936
0.0809185
0.0811526
0.0813961
0.0816493
0.0819127
0.0821865
0.0824713
0.0827673
0.0830751
0.083395
0.0837275
0.0840732
0.0844325
0.084806
0.0851944
0.0855981
0.0860178
0.0864543
0.0869042
0.08736
0.0878175
0.0882765
0.0887371
0.089199
0.0896625
0.0901275
0.0905943
0.0910628
0.0915335
0.0920064
0.092482
0.0929605
0.0934424
0.0939278
0.0944173
0.0949111
0.0954096
0.0959131
0.0964219
0.0969362
0.0974562
0.0979819
0.0985135
0.099051
0.0995942
0.100143
0.100698
0.101257
0.101822
0.102391
0.102965
0.103542
0.104121
0.104703
0.105287
0.105871
0.106455
0.107038
0.107618
0.108195
0.108768
0.109335
0.109895
0.110449
0.110994
0.11153
0.112056
0.112572
0.113077
0.113572
0.114055
0.114527
0.114988
0.115437
0.115877
0.116305
0.116724
0.117134
0.117535
0.117928
0.118313
0.118692
0.119064
0.079033
0.0791885
0.0793507
0.0795198
0.0796962
0.07988
0.0800714
0.0802709
0.0804785
0.0806946
0.0809196
0.0811536
0.0813971
0.0816503
0.0819137
0.0821876
0.0824723
0.0827683
0.0830761
0.083396
0.0837285
0.0840741
0.0844335
0.084807
0.0851952
0.0855989
0.0860186
0.0864551
0.086905
0.0873608
0.0878182
0.0882773
0.0887378
0.0891997
0.0896632
0.0901282
0.090595
0.0910636
0.0915343
0.0920073
0.092483
0.0929616
0.0934435
0.0939291
0.0944188
0.0949127
0.0954114
0.0959151
0.0964241
0.0969386
0.0974588
0.0979847
0.0985165
0.0990541
0.0995975
0.100147
0.100701
0.101261
0.101826
0.102395
0.102968
0.103545
0.104124
0.104706
0.105289
0.105873
0.106456
0.107038
0.107617
0.108193
0.108764
0.10933
0.109889
0.110441
0.110984
0.111518
0.112043
0.112557
0.11306
0.113553
0.114034
0.114504
0.114963
0.11541
0.115847
0.116274
0.116691
0.117099
0.117497
0.117888
0.11827
0.118646
0.119015
0.0790341
0.0791895
0.0793517
0.0795209
0.0796972
0.079881
0.0800725
0.0802719
0.0804795
0.0806957
0.0809206
0.0811547
0.0813982
0.0816514
0.0819148
0.0821886
0.0824733
0.0827693
0.0830771
0.083397
0.0837295
0.0840751
0.0844344
0.0848079
0.0851962
0.0855998
0.0860195
0.0864559
0.0869058
0.0873616
0.087819
0.088278
0.0887385
0.0892004
0.0896639
0.090129
0.0905957
0.0910643
0.0915351
0.0920082
0.0924839
0.0929627
0.0934448
0.0939305
0.0944203
0.0949145
0.0954133
0.0959172
0.0964264
0.0969411
0.0974614
0.0979876
0.0985195
0.0990573
0.0996009
0.10015
0.100705
0.101265
0.101829
0.102399
0.102972
0.103548
0.104128
0.104709
0.105291
0.105874
0.106457
0.107038
0.107616
0.108191
0.108761
0.109325
0.109882
0.110433
0.110974
0.111507
0.112029
0.112541
0.113043
0.113533
0.114012
0.11448
0.114937
0.115383
0.115818
0.116242
0.116657
0.117062
0.117458
0.117846
0.118226
0.118599
0.118965
0.0790351
0.0791906
0.0793527
0.0795219
0.0796983
0.0798821
0.0800735
0.080273
0.0804806
0.0806968
0.0809217
0.0811557
0.0813992
0.0816525
0.0819158
0.0821897
0.0824744
0.0827704
0.0830781
0.083398
0.0837305
0.0840761
0.0844354
0.0848088
0.0851971
0.0856007
0.0860204
0.0864568
0.0869066
0.0873624
0.0878198
0.0882788
0.0887392
0.0892012
0.0896646
0.0901297
0.0905965
0.0910651
0.0915359
0.0920091
0.092485
0.0929638
0.093446
0.0939319
0.0944219
0.0949162
0.0954153
0.0959194
0.0964288
0.0969436
0.0974642
0.0979905
0.0985227
0.0990606
0.0996044
0.100154
0.100708
0.101268
0.101833
0.102402
0.102975
0.103552
0.104131
0.104712
0.105294
0.105876
0.106457
0.107037
0.107615
0.108188
0.108757
0.10932
0.109876
0.110424
0.110964
0.111494
0.112015
0.112525
0.113025
0.113513
0.11399
0.114456
0.114911
0.115355
0.115787
0.11621
0.116622
0.117025
0.117419
0.117804
0.118181
0.11855
0.118912
0.0790362
0.0791916
0.0793538
0.079523
0.0796993
0.0798831
0.0800746
0.080274
0.0804817
0.0806978
0.0809228
0.0811568
0.0814003
0.0816535
0.0819169
0.0821907
0.0824754
0.0827714
0.0830791
0.083399
0.0837315
0.0840771
0.0844363
0.0848098
0.085198
0.0856016
0.0860213
0.0864576
0.0869075
0.0873632
0.0878206
0.0882795
0.08874
0.0892019
0.0896654
0.0901304
0.0905972
0.0910659
0.0915368
0.09201
0.092486
0.092965
0.0934473
0.0939334
0.0944235
0.094918
0.0954173
0.0959216
0.0964312
0.0969463
0.097467
0.0979936
0.0985259
0.099064
0.0996079
0.100157
0.100712
0.101272
0.101837
0.102406
0.102979
0.103555
0.104134
0.104714
0.105296
0.105877
0.106458
0.107037
0.107613
0.108185
0.108753
0.109314
0.109868
0.110415
0.110953
0.111482
0.112001
0.112509
0.113007
0.113493
0.113968
0.114432
0.114884
0.115326
0.115756
0.116176
0.116586
0.116987
0.117378
0.11776
0.118134
0.1185
0.118858
0.0790372
0.0791927
0.0793549
0.0795241
0.0797004
0.0798842
0.0800757
0.0802751
0.0804828
0.0806989
0.0809239
0.0811579
0.0814014
0.0816546
0.081918
0.0821918
0.0824765
0.0827725
0.0830802
0.0834
0.0837325
0.0840781
0.0844373
0.0848108
0.085199
0.0856025
0.0860222
0.0864585
0.0869083
0.087364
0.0878214
0.0882803
0.0887407
0.0892027
0.0896661
0.0901312
0.090598
0.0910668
0.0915377
0.092011
0.0924871
0.0929662
0.0934486
0.0939349
0.0944252
0.0949199
0.0954194
0.0959239
0.0964337
0.096949
0.09747
0.0979967
0.0985292
0.0990676
0.0996116
0.100161
0.100716
0.101276
0.101841
0.10241
0.102983
0.103558
0.104137
0.104717
0.105298
0.105879
0.106459
0.107036
0.107611
0.108182
0.108748
0.109308
0.109861
0.110406
0.110942
0.111469
0.111986
0.112492
0.112988
0.113472
0.113945
0.114407
0.114857
0.115296
0.115725
0.116142
0.11655
0.116947
0.117335
0.117714
0.118085
0.118447
0.118802
0.0790383
0.0791938
0.079356
0.0795252
0.0797015
0.0798853
0.0800768
0.0802762
0.0804839
0.0807
0.080925
0.081159
0.0814025
0.0816557
0.0819191
0.0821929
0.0824776
0.0827736
0.0830813
0.0834011
0.0837335
0.0840791
0.0844383
0.0848117
0.0851999
0.0856035
0.0860231
0.0864594
0.0869092
0.0873648
0.0878222
0.0882811
0.0887415
0.0892034
0.0896669
0.090132
0.0905988
0.0910676
0.0915386
0.092012
0.0924882
0.0929674
0.09345
0.0939364
0.0944269
0.0949218
0.0954215
0.0959262
0.0964363
0.0969518
0.097473
0.0979999
0.0985327
0.0990712
0.0996154
0.100165
0.10072
0.10128
0.101845
0.102414
0.102986
0.103562
0.10414
0.104719
0.1053
0.10588
0.106459
0.107036
0.10761
0.108179
0.108744
0.109302
0.109853
0.110396
0.110931
0.111456
0.111971
0.112475
0.112969
0.113451
0.113922
0.114381
0.114829
0.115266
0.115692
0.116107
0.116512
0.116907
0.117292
0.117667
0.118034
0.118393
0.118743
0.0790394
0.0791949
0.0793571
0.0795263
0.0797026
0.0798865
0.0800779
0.0802774
0.080485
0.0807012
0.0809261
0.0811602
0.0814036
0.0816569
0.0819202
0.082194
0.0824787
0.0827747
0.0830824
0.0834022
0.0837346
0.0840802
0.0844394
0.0848127
0.0852009
0.0856044
0.086024
0.0864603
0.0869101
0.0873657
0.087823
0.0882819
0.0887423
0.0892042
0.0896676
0.0901327
0.0905996
0.0910685
0.0915395
0.092013
0.0924893
0.0929687
0.0934515
0.093938
0.0944287
0.0949238
0.0954237
0.0959287
0.0964389
0.0969547
0.0974761
0.0980033
0.0985362
0.0990749
0.0996192
0.100169
0.100724
0.101284
0.101849
0.102418
0.10299
0.103565
0.104143
0.104722
0.105302
0.105881
0.106459
0.107035
0.107608
0.108176
0.108739
0.109296
0.109845
0.110387
0.110919
0.111442
0.111955
0.112458
0.112949
0.113429
0.113898
0.114355
0.1148
0.115235
0.115658
0.116071
0.116473
0.116864
0.117246
0.117619
0.117982
0.118336
0.118681
0.0790406
0.079196
0.0793582
0.0795274
0.0797038
0.0798876
0.0800791
0.0802785
0.0804862
0.0807023
0.0809273
0.0811613
0.0814048
0.081658
0.0819213
0.0821952
0.0824798
0.0827758
0.0830835
0.0834033
0.0837357
0.0840812
0.0844404
0.0848138
0.0852019
0.0856054
0.0860249
0.0864612
0.0869109
0.0873665
0.0878238
0.0882827
0.0887431
0.089205
0.0896684
0.0901336
0.0906005
0.0910694
0.0915405
0.0920141
0.0924905
0.09297
0.0934529
0.0939397
0.0944305
0.0949259
0.095426
0.0959312
0.0964417
0.0969577
0.0974793
0.0980067
0.0985398
0.0990787
0.0996232
0.100173
0.100728
0.101289
0.101853
0.102422
0.102994
0.103569
0.104146
0.104725
0.105304
0.105882
0.106459
0.107034
0.107606
0.108172
0.108734
0.109289
0.109837
0.110377
0.110907
0.111428
0.111939
0.112439
0.112929
0.113406
0.113873
0.114328
0.114771
0.115203
0.115624
0.116033
0.116432
0.116821
0.117199
0.117568
0.117927
0.118276
0.118617
0.0790417
0.0791972
0.0793594
0.0795286
0.079705
0.0798888
0.0800803
0.0802797
0.0804874
0.0807035
0.0809285
0.0811625
0.081406
0.0816592
0.0819225
0.0821963
0.082481
0.0827769
0.0830846
0.0834044
0.0837368
0.0840823
0.0844415
0.0848148
0.0852029
0.0856064
0.0860259
0.0864621
0.0869118
0.0873674
0.0878247
0.0882835
0.0887439
0.0892058
0.0896692
0.0901344
0.0906013
0.0910703
0.0915415
0.0920152
0.0924917
0.0929713
0.0934545
0.0939414
0.0944325
0.094928
0.0954284
0.0959338
0.0964445
0.0969608
0.0974826
0.0980102
0.0985436
0.0990827
0.0996273
0.100177
0.100733
0.101293
0.101857
0.102426
0.102998
0.103573
0.104149
0.104727
0.105306
0.105883
0.106459
0.107033
0.107603
0.108169
0.108729
0.109282
0.109828
0.110366
0.110895
0.111414
0.111923
0.112421
0.112908
0.113383
0.113847
0.1143
0.114741
0.11517
0.115588
0.115995
0.11639
0.116776
0.11715
0.117515
0.117869
0.118214
0.11855
0.0790429
0.0791984
0.0793606
0.0795298
0.0797061
0.07989
0.0800815
0.0802809
0.0804886
0.0807047
0.0809296
0.0811637
0.0814071
0.0816604
0.0819237
0.0821975
0.0824822
0.0827781
0.0830857
0.0834055
0.0837379
0.0840834
0.0844425
0.0848158
0.0852039
0.0856074
0.0860268
0.086463
0.0869127
0.0873683
0.0878255
0.0882843
0.0887447
0.0892066
0.0896701
0.0901352
0.0906022
0.0910712
0.0915425
0.0920163
0.092493
0.0929727
0.093456
0.0939431
0.0944344
0.0949302
0.0954308
0.0959365
0.0964475
0.096964
0.0974861
0.0980139
0.0985475
0.0990867
0.0996316
0.100182
0.100737
0.101297
0.101862
0.10243
0.103002
0.103576
0.104153
0.10473
0.105307
0.105884
0.106459
0.107032
0.107601
0.108165
0.108723
0.109275
0.10982
0.110355
0.110882
0.111399
0.111906
0.112402
0.112887
0.11336
0.113821
0.114271
0.114709
0.115136
0.115551
0.115954
0.116347
0.116728
0.117099
0.117459
0.117809
0.118149
0.118479
0.0784845
0.0786155
0.0787523
0.0788951
0.0790441
0.0791996
0.0793618
0.079531
0.0797074
0.0798912
0.0800827
0.0802821
0.0804898
0.0807059
0.0809309
0.0811649
0.0814084
0.0816616
0.0819249
0.0821987
0.0824833
0.0827793
0.0830869
0.0834066
0.083739
0.0840845
0.0844436
0.0848169
0.085205
0.0856084
0.0860278
0.086464
0.0869136
0.0873692
0.0878264
0.0882852
0.0887455
0.0892074
0.0896709
0.0901361
0.0906031
0.0910722
0.0915435
0.0920175
0.0924942
0.0929742
0.0934577
0.093945
0.0944365
0.0949325
0.0954334
0.0959393
0.0964505
0.0969673
0.0974897
0.0980177
0.0985515
0.099091
0.099636
0.100186
0.100742
0.101302
0.101866
0.102435
0.103006
0.10358
0.104156
0.104732
0.105309
0.105885
0.106459
0.107031
0.107598
0.108161
0.108718
0.109268
0.10981
0.110344
0.110869
0.111384
0.111889
0.112382
0.112865
0.113335
0.113794
0.114242
0.114677
0.115101
0.115512
0.115913
0.116302
0.116679
0.117046
0.117401
0.117746
0.118081
0.118404
0.0784857
0.0786167
0.0787535
0.0788963
0.0790453
0.0792008
0.079363
0.0795322
0.0797086
0.0798924
0.0800839
0.0802834
0.080491
0.0807072
0.0809321
0.0811661
0.0814096
0.0816628
0.0819261
0.0821999
0.0824845
0.0827805
0.0830881
0.0834078
0.0837402
0.0840856
0.0844447
0.084818
0.085206
0.0856094
0.0860288
0.0864649
0.0869146
0.0873701
0.0878272
0.088286
0.0887464
0.0892082
0.0896717
0.0901369
0.090604
0.0910732
0.0915446
0.0920187
0.0924956
0.0929757
0.0934594
0.0939469
0.0944386
0.0949349
0.095436
0.0959422
0.0964537
0.0969707
0.0974934
0.0980217
0.0985557
0.0990954
0.0996405
0.100191
0.100746
0.101307
0.101871
0.102439
0.10301
0.103584
0.104159
0.104735
0.105311
0.105886
0.106459
0.107029
0.107596
0.108157
0.108712
0.10926
0.109801
0.110333
0.110856
0.111369
0.111871
0.112362
0.112842
0.11331
0.113767
0.114211
0.114644
0.115064
0.115472
0.115869
0.116254
0.116628
0.11699
0.11734
0.11768
0.118008
0.118326
0.078487
0.0786179
0.0787547
0.0788975
0.0790465
0.0792021
0.0793643
0.0795335
0.0797099
0.0798937
0.0800852
0.0802846
0.0804923
0.0807084
0.0809334
0.0811674
0.0814108
0.081664
0.0819274
0.0822011
0.0824858
0.0827817
0.0830893
0.083409
0.0837413
0.0840868
0.0844458
0.0848191
0.0852071
0.0856104
0.0860298
0.0864659
0.0869155
0.087371
0.0878281
0.0882869
0.0887472
0.0892091
0.0896726
0.0901378
0.090605
0.0910742
0.0915458
0.0920199
0.092497
0.0929773
0.0934611
0.0939489
0.0944409
0.0949374
0.0954388
0.0959452
0.096457
0.0969743
0.0974972
0.0980258
0.09856
0.0990999
0.0996452
0.100196
0.100751
0.101311
0.101876
0.102444
0.103015
0.103588
0.104162
0.104738
0.105313
0.105887
0.106459
0.107028
0.107593
0.108152
0.108706
0.109253
0.109791
0.110321
0.110842
0.111352
0.111852
0.112341
0.112819
0.113284
0.113738
0.114179
0.114609
0.115026
0.115431
0.115824
0.116205
0.116574
0.116931
0.117276
0.11761
0.117932
0.118243
0.0781284
0.078243
0.0783629
0.0784883
0.0786192
0.078756
0.0788988
0.0790478
0.0792033
0.0793656
0.0795348
0.0797111
0.079895
0.0800865
0.0802859
0.0804936
0.0807097
0.0809346
0.0811687
0.0814121
0.0816653
0.0819286
0.0822024
0.082487
0.0827829
0.0830905
0.0834102
0.0837425
0.0840879
0.084447
0.0848202
0.0852081
0.0856115
0.0860308
0.0864669
0.0869165
0.0873719
0.087829
0.0882878
0.0887481
0.08921
0.0896735
0.0901388
0.0906059
0.0910753
0.0915469
0.0920212
0.0924984
0.0929789
0.093463
0.093951
0.0944432
0.09494
0.0954416
0.0959484
0.0964605
0.096978
0.0975012
0.0980301
0.0985646
0.0991046
0.0996501
0.100201
0.100756
0.101317
0.101881
0.102448
0.103019
0.103592
0.104166
0.104741
0.105315
0.105888
0.106459
0.107026
0.10759
0.108148
0.1087
0.109244
0.109781
0.110309
0.110828
0.111336
0.111833
0.11232
0.112795
0.113257
0.113708
0.114146
0.114572
0.114986
0.115387
0.115776
0.116152
0.116517
0.116869
0.117209
0.117536
0.117852
0.118155
0.0781297
0.0782443
0.0783642
0.0784895
0.0786205
0.0787572
0.0789
0.0790491
0.0792046
0.0793669
0.0795361
0.0797124
0.0798963
0.0800878
0.0802872
0.0804949
0.080711
0.0809359
0.08117
0.0814134
0.0816666
0.0819299
0.0822037
0.0824883
0.0827842
0.0830917
0.0834114
0.0837437
0.0840891
0.0844481
0.0848213
0.0852092
0.0856125
0.0860319
0.0864679
0.0869174
0.0873728
0.0878299
0.0882886
0.0887489
0.0892108
0.0896744
0.0901397
0.090607
0.0910763
0.0915481
0.0920226
0.0924999
0.0929806
0.0934649
0.0939531
0.0944456
0.0949427
0.0954446
0.0959517
0.0964641
0.0969819
0.0975054
0.0980345
0.0985693
0.0991095
0.0996552
0.100206
0.100762
0.101322
0.101886
0.102453
0.103024
0.103596
0.104169
0.104743
0.105317
0.105889
0.106459
0.107025
0.107587
0.108143
0.108693
0.109236
0.109771
0.110297
0.110813
0.111319
0.111814
0.112298
0.112769
0.113229
0.113677
0.114112
0.114535
0.114944
0.115341
0.115726
0.116098
0.116457
0.116803
0.117137
0.117458
0.117767
0.118062
0.078131
0.0782456
0.0783655
0.0784908
0.0786218
0.0787585
0.0789013
0.0790504
0.0792059
0.0793682
0.0795374
0.0797138
0.0798976
0.0800891
0.0802885
0.0804962
0.0807123
0.0809373
0.0811713
0.0814147
0.0816679
0.0819312
0.082205
0.0824896
0.0827854
0.083093
0.0834127
0.0837449
0.0840903
0.0844493
0.0848225
0.0852104
0.0856136
0.0860329
0.0864689
0.0869184
0.0873738
0.0878308
0.0882896
0.0887498
0.0892117
0.0896753
0.0901407
0.090608
0.0910775
0.0915494
0.092024
0.0925015
0.0929824
0.0934669
0.0939554
0.0944482
0.0949455
0.0954478
0.0959551
0.0964678
0.096986
0.0975098
0.0980392
0.0985742
0.0991147
0.0996605
0.100211
0.100767
0.101327
0.101891
0.102458
0.103028
0.1036
0.104173
0.104746
0.105319
0.10589
0.106458
0.107023
0.107583
0.108138
0.108687
0.109227
0.10976
0.110284
0.110798
0.111301
0.111794
0.112274
0.112743
0.1132
0.113645
0.114076
0.114495
0.114901
0.115293
0.115673
0.11604
0.116394
0.116734
0.117062
0.117376
0.117677
0.117964
0.0781324
0.0782469
0.0783668
0.0784921
0.0786231
0.0787598
0.0789026
0.0790517
0.0792073
0.0793695
0.0795387
0.0797151
0.0798989
0.0800905
0.0802899
0.0804976
0.0807137
0.0809386
0.0811727
0.0814161
0.0816693
0.0819325
0.0822063
0.0824909
0.0827867
0.0830943
0.0834139
0.0837462
0.0840915
0.0844505
0.0848236
0.0852115
0.0856147
0.086034
0.0864699
0.0869194
0.0873747
0.0878318
0.0882905
0.0887508
0.0892127
0.0896763
0.0901417
0.0906091
0.0910787
0.0915507
0.0920254
0.0925032
0.0929843
0.093469
0.0939578
0.0944509
0.0949485
0.0954511
0.0959588
0.0964718
0.0969903
0.0975144
0.0980441
0.0985793
0.0991201
0.0996661
0.100217
0.100773
0.101333
0.101897
0.102464
0.103033
0.103604
0.104177
0.104749
0.105321
0.105891
0.106458
0.107021
0.10758
0.108133
0.10868
0.109219
0.109749
0.11027
0.110782
0.111283
0.111772
0.11225
0.112716
0.11317
0.113611
0.114039
0.114453
0.114855
0.115243
0.115618
0.115979
0.116327
0.116661
0.116982
0.117288
0.117581
0.11786
0.0781337
0.0782483
0.0783681
0.0784934
0.0786244
0.0787612
0.078904
0.0790531
0.0792086
0.0793709
0.0795401
0.0797165
0.0799003
0.0800918
0.0802913
0.0804989
0.0807151
0.08094
0.081174
0.0814175
0.0816706
0.0819339
0.0822076
0.0824922
0.0827881
0.0830956
0.0834152
0.0837474
0.0840928
0.0844517
0.0848248
0.0852126
0.0856158
0.0860351
0.086471
0.0869204
0.0873757
0.0878327
0.0882914
0.0887517
0.0892136
0.0896773
0.0901428
0.0906102
0.0910799
0.0915521
0.092027
0.0925049
0.0929863
0.0934713
0.0939603
0.0944537
0.0949517
0.0954546
0.0959626
0.096476
0.0969948
0.0975192
0.0980492
0.0985847
0.0991257
0.0996719
0.100223
0.100779
0.101339
0.101902
0.102469
0.103038
0.103609
0.104181
0.104752
0.105323
0.105892
0.106458
0.10702
0.107577
0.108128
0.108673
0.109209
0.109738
0.110257
0.110765
0.111264
0.11175
0.112225
0.112688
0.113138
0.113575
0.113999
0.114409
0.114806
0.11519
0.115559
0.115914
0.116256
0.116583
0.116897
0.117196
0.11748
0.11775
0.0781351
0.0782496
0.0783695
0.0784948
0.0786257
0.0787625
0.0789053
0.0790544
0.07921
0.0793723
0.0795415
0.0797179
0.0799017
0.0800932
0.0802927
0.0805003
0.0807165
0.0809414
0.0811754
0.0814189
0.081672
0.0819353
0.082209
0.0824936
0.0827894
0.0830969
0.0834165
0.0837487
0.084094
0.0844529
0.084826
0.0852138
0.085617
0.0860362
0.086472
0.0869214
0.0873767
0.0878337
0.0882924
0.0887527
0.0892146
0.0896783
0.0901439
0.0906114
0.0910812
0.0915535
0.0920286
0.0925068
0.0929884
0.0934737
0.093963
0.0944567
0.094955
0.0954582
0.0959666
0.0964804
0.0969996
0.0975243
0.0980546
0.0985904
0.0991316
0.099678
0.100229
0.100785
0.101345
0.101908
0.102475
0.103044
0.103614
0.104185
0.104755
0.105325
0.105893
0.106457
0.107018
0.107573
0.108123
0.108665
0.1092
0.109726
0.110242
0.110748
0.111244
0.111727
0.112199
0.112658
0.113105
0.113538
0.113957
0.114363
0.114755
0.115133
0.115497
0.115846
0.116181
0.116501
0.116807
0.117098
0.117373
0.117634
0.0781364
0.078251
0.0783708
0.0784961
0.0786271
0.0787639
0.0789067
0.0790558
0.0792114
0.0793737
0.0795429
0.0797193
0.0799031
0.0800947
0.0802941
0.0805018
0.0807179
0.0809428
0.0811769
0.0814203
0.0816734
0.0819367
0.0822104
0.082495
0.0827908
0.0830982
0.0834178
0.08375
0.0840953
0.0844542
0.0848272
0.085215
0.0856181
0.0860373
0.0864731
0.0869225
0.0873777
0.0878347
0.0882934
0.0887537
0.0892157
0.0896794
0.090145
0.0906127
0.0910826
0.0915551
0.0920304
0.0925088
0.0929906
0.0934762
0.0939658
0.0944598
0.0949585
0.0954621
0.0959709
0.096485
0.0970046
0.0975297
0.0980603
0.0985964
0.0991378
0.0996844
0.100236
0.100792
0.101351
0.101915
0.102481
0.103049
0.103619
0.104189
0.104759
0.105327
0.105894
0.106457
0.107016
0.10757
0.108117
0.108658
0.10919
0.109714
0.110227
0.110731
0.111223
0.111704
0.112172
0.112627
0.11307
0.113499
0.113914
0.114315
0.114701
0.115073
0.115431
0.115774
0.116102
0.116414
0.116712
0.116994
0.11726
0.11751
0.0781378
0.0782523
0.0783722
0.0784975
0.0786284
0.0787652
0.0789081
0.0790572
0.0792128
0.0793751
0.0795443
0.0797208
0.0799046
0.0800961
0.0802956
0.0805032
0.0807194
0.0809443
0.0811783
0.0814217
0.0816749
0.0819381
0.0822118
0.0824964
0.0827922
0.0830996
0.0834192
0.0837514
0.0840966
0.0844555
0.0848285
0.0852162
0.0856193
0.0860384
0.0864742
0.0869236
0.0873788
0.0878358
0.0882944
0.0887547
0.0892167
0.0896805
0.0901462
0.090614
0.0910841
0.0915567
0.0920322
0.0925109
0.092993
0.0934788
0.0939688
0.0944632
0.0949623
0.0954663
0.0959754
0.0964899
0.0970099
0.0975353
0.0980663
0.0986027
0.0991444
0.0996911
0.100243
0.100798
0.101358
0.101921
0.102487
0.103055
0.103624
0.104193
0.104762
0.10533
0.105895
0.106457
0.107014
0.107566
0.108111
0.10865
0.10918
0.109701
0.110212
0.110712
0.111201
0.111678
0.112143
0.112595
0.113033
0.113457
0.113867
0.114263
0.114644
0.11501
0.115361
0.115697
0.116017
0.116322
0.116611
0.116883
0.11714
0.117379
0.0781392
0.0782537
0.0783735
0.0784988
0.0786298
0.0787666
0.0789095
0.0790586
0.0792142
0.0793765
0.0795458
0.0797222
0.0799061
0.0800976
0.080297
0.0805047
0.0807209
0.0809458
0.0811798
0.0814232
0.0816763
0.0819396
0.0822133
0.0824978
0.0827936
0.083101
0.0834206
0.0837527
0.0840979
0.0844568
0.0848297
0.0852174
0.0856205
0.0860396
0.0864754
0.0869247
0.0873799
0.0878368
0.0882955
0.0887558
0.0892179
0.0896817
0.0901475
0.0906154
0.0910857
0.0915585
0.0920342
0.0925131
0.0929955
0.0934817
0.093972
0.0944668
0.0949662
0.0954706
0.0959802
0.0964951
0.0970155
0.0975413
0.0980726
0.0986093
0.0991513
0.0996982
0.10025
0.100806
0.101365
0.101928
0.102494
0.103061
0.10363
0.104198
0.104766
0.105333
0.105896
0.106457
0.107012
0.107562
0.108106
0.108642
0.109169
0.109687
0.110195
0.110693
0.111178
0.111652
0.112113
0.11256
0.112994
0.113413
0.113818
0.114208
0.114583
0.114943
0.115287
0.115615
0.115928
0.116224
0.116503
0.116766
0.117012
0.117241
0.0781406
0.0782551
0.0783749
0.0785002
0.0786312
0.078768
0.0789109
0.0790601
0.0792157
0.079378
0.0795473
0.0797237
0.0799076
0.0800991
0.0802985
0.0805062
0.0807224
0.0809473
0.0811813
0.0814247
0.0816778
0.0819411
0.0822148
0.0824993
0.082795
0.0831025
0.083422
0.0837541
0.0840993
0.0844581
0.084831
0.0852187
0.0856217
0.0860408
0.0864765
0.0869258
0.087381
0.0878379
0.0882966
0.088757
0.0892191
0.089683
0.0901489
0.0906169
0.0910873
0.0915604
0.0920363
0.0925155
0.0929982
0.0934848
0.0939755
0.0944706
0.0949705
0.0954753
0.0959853
0.0965007
0.0970214
0.0975477
0.0980794
0.0986164
0.0991586
0.0997057
0.100257
0.100813
0.101373
0.101936
0.102501
0.103068
0.103635
0.104203
0.10477
0.105335
0.105898
0.106456
0.10701
0.107558
0.1081
0.108633
0.109158
0.109673
0.110178
0.110672
0.111154
0.111624
0.112081
0.112524
0.112952
0.113367
0.113766
0.11415
0.114519
0.114872
0.115208
0.115529
0.115833
0.11612
0.11639
0.116642
0.116878
0.117095
0.0781419
0.0782564
0.0783763
0.0785016
0.0786326
0.0787694
0.0789123
0.0790615
0.0792171
0.0793795
0.0795488
0.0797252
0.0799091
0.0801006
0.0803001
0.0805077
0.0807239
0.0809488
0.0811828
0.0814262
0.0816794
0.0819426
0.0822163
0.0825008
0.0827965
0.0831039
0.0834234
0.0837555
0.0841007
0.0844594
0.0848324
0.08522
0.085623
0.086042
0.0864777
0.086927
0.0873821
0.0878391
0.0882978
0.0887582
0.0892203
0.0896843
0.0901503
0.0906185
0.0910891
0.0915624
0.0920386
0.0925181
0.0930011
0.093488
0.0939791
0.0944747
0.094975
0.0954803
0.0959908
0.0965066
0.0970278
0.0975544
0.0980865
0.0986239
0.0991664
0.0997137
0.100266
0.100821
0.101381
0.101943
0.102508
0.103075
0.103642
0.104209
0.104775
0.105338
0.105899
0.106456
0.107008
0.107554
0.108093
0.108624
0.109146
0.109659
0.11016
0.110651
0.111129
0.111595
0.112047
0.112485
0.112909
0.113317
0.113711
0.114089
0.114451
0.114796
0.115125
0.115437
0.115732
0.116009
0.116269
0.116511
0.116735
0.116941
0.0781433
0.0782578
0.0783777
0.078503
0.078634
0.0787709
0.0789138
0.079063
0.0792186
0.079381
0.0795503
0.0797267
0.0799106
0.0801021
0.0803016
0.0805093
0.0807254
0.0809504
0.0811844
0.0814278
0.0816809
0.0819441
0.0822178
0.0825023
0.082798
0.0831054
0.0834249
0.083757
0.0841021
0.0844608
0.0848337
0.0852213
0.0856243
0.0860433
0.086479
0.0869282
0.0873833
0.0878403
0.088299
0.0887594
0.0892217
0.0896858
0.0901519
0.0906203
0.0910911
0.0915646
0.0920411
0.0925209
0.0930043
0.0934916
0.0939831
0.0944791
0.0949799
0.0954857
0.0959966
0.0965129
0.0970345
0.0975616
0.0980941
0.0986318
0.0991746
0.0997221
0.100274
0.10083
0.101389
0.101952
0.102516
0.103082
0.103648
0.104214
0.104779
0.105342
0.105901
0.106456
0.107006
0.10755
0.108087
0.108615
0.109134
0.109643
0.110142
0.110628
0.111102
0.111564
0.112011
0.112444
0.112862
0.113265
0.113652
0.114023
0.114378
0.114716
0.115036
0.11534
0.115625
0.115893
0.116142
0.116373
0.116585
0.116778
0.0781447
0.0782592
0.0783791
0.0785044
0.0786354
0.0787723
0.0789152
0.0790644
0.0792201
0.0793825
0.0795518
0.0797283
0.0799122
0.0801037
0.0803032
0.0805109
0.080727
0.0809519
0.081186
0.0814294
0.0816825
0.0819457
0.0822193
0.0825038
0.0827995
0.0831069
0.0834264
0.0837584
0.0841035
0.0844622
0.0848351
0.0852227
0.0856256
0.0860446
0.0864802
0.0869294
0.0873846
0.0878416
0.0883003
0.0887608
0.0892231
0.0896873
0.0901536
0.0906221
0.0910932
0.0915669
0.0920437
0.0925239
0.0930077
0.0934954
0.0939873
0.0944838
0.0949851
0.0954914
0.0960028
0.0965196
0.0970418
0.0975693
0.0981022
0.0986403
0.0991833
0.0997311
0.100283
0.100839
0.101398
0.10196
0.102524
0.10309
0.103655
0.10422
0.104784
0.105345
0.105903
0.106457
0.107005
0.107546
0.10808
0.108605
0.109121
0.109627
0.110122
0.110604
0.111074
0.111531
0.111973
0.112401
0.112813
0.11321
0.11359
0.113954
0.114301
0.11463
0.114942
0.115236
0.115512
0.115769
0.116008
0.116227
0.116427
0.116607
0.0781461
0.0782606
0.0783805
0.0785058
0.0786369
0.0787738
0.0789167
0.0790659