/*--------------------------------*- C++ -*----------------------------------*\
  =========                 |
  \\      /  F ield         | OpenFOAM: The Open Source CFD Toolbox
   \\    /   O peration     | Website:  https://openfoam.org
    \\  /    A nd           | Version:  10
     \\/     M anipulation  |
\*---------------------------------------------------------------------------*/
FoamFile
{
    format      ascii;
    class       volScalarField;
    location    "6000";
    object      nut;
}
// * * * * * * * * * * * * * * * * * * * * * * * * * * * * * * * * * * * * * //

dimensions      [0 2 -1 0 0 0 0];

internalField   nonuniform List<scalar> 
17969
(
1.30577e-11
1.24851e-09
1.31166e-08
9.52254e-08
4.05028e-07
1.09086e-06
2.19332e-06
3.6681e-06
5.43993e-06
7.43602e-06
9.59508e-06
1.18667e-05
1.42088e-05
1.65854e-05
1.89654e-05
2.13213e-05
2.36284e-05
2.58649e-05
2.8011e-05
3.00493e-05
3.19642e-05
3.37422e-05
3.53718e-05
3.68439e-05
3.81513e-05
3.92897e-05
4.0257e-05
4.10541e-05
4.16841e-05
4.21528e-05
4.24676e-05
4.26363e-05
4.2664e-05
4.2548e-05
4.22659e-05
4.17553e-05
4.08756e-05
3.93612e-05
3.6812e-05
2.9613e-05
2.29915e-05
1.9624e-05
1.8314e-05
1.24521e-05
1.31667e-05
1.51233e-05
1.74049e-05
1.82864e-05
1.94127e-05
2.06718e-05
2.1897e-05
2.29692e-05
2.40861e-05
2.29497e-05
2.18945e-05
2.29047e-05
2.48846e-05
2.54334e-05
2.67232e-05
2.95824e-05
2.94401e-05
2.92039e-05
2.90211e-05
2.89577e-05
2.90345e-05
2.92648e-05
2.9643e-05
3.01547e-05
3.07999e-05
3.15881e-05
3.25405e-05
3.36869e-05
3.50469e-05
3.6612e-05
3.8303e-05
4.00333e-05
4.17459e-05
4.33908e-05
4.49405e-05
4.63986e-05
4.77544e-05
4.89983e-05
5.01234e-05
5.11259e-05
5.20055e-05
5.27664e-05
5.34235e-05
5.40087e-05
5.45544e-05
5.50999e-05
5.56897e-05
5.63709e-05
5.71905e-05
5.81917e-05
5.94102e-05
6.08704e-05
6.25817e-05
6.45371e-05
6.67134e-05
6.90731e-05
1.37799e-11
1.32246e-09
1.3953e-08
1.00971e-07
4.2844e-07
1.1517e-06
2.31189e-06
3.8599e-06
5.7146e-06
7.79848e-06
1.00468e-05
1.24064e-05
1.48335e-05
1.72907e-05
1.97457e-05
2.21702e-05
2.45392e-05
2.68304e-05
2.90237e-05
3.11016e-05
3.30482e-05
3.48501e-05
3.64957e-05
3.79759e-05
3.92837e-05
4.0415e-05
4.13683e-05
4.2145e-05
4.27492e-05
4.31879e-05
4.34698e-05
4.3605e-05
4.36016e-05
4.34623e-05
4.31751e-05
4.26975e-05
4.07607e-05
3.67495e-05
3.07035e-05
2.12334e-05
1.21849e-05
7.29882e-06
5.57357e-06
6.11798e-06
9.11732e-06
1.12167e-05
1.08643e-05
1.07629e-05
1.0977e-05
1.15497e-05
1.4174e-05
1.87192e-05
2.29153e-05
2.53404e-05
2.59678e-05
2.60237e-05
2.80678e-05
3.03122e-05
3.07366e-05
3.0828e-05
3.06789e-05
3.03851e-05
3.00805e-05
2.99001e-05
2.99178e-05
3.01531e-05
3.05917e-05
3.12033e-05
3.19723e-05
3.29073e-05
3.40396e-05
3.54084e-05
3.70346e-05
3.82374e-05
3.89494e-05
4.11171e-05
4.45913e-05
4.63248e-05
4.78481e-05
4.92467e-05
5.05287e-05
5.16964e-05
5.27543e-05
5.37121e-05
5.45862e-05
5.53994e-05
5.6181e-05
5.69764e-05
5.78297e-05
5.87847e-05
5.98825e-05
6.11581e-05
6.2637e-05
6.43318e-05
6.62403e-05
6.83445e-05
7.06122e-05
7.30007e-05
7.54616e-05
7.7947e-05
1.39959e-11
1.34798e-09
1.41606e-08
1.02482e-07
4.36863e-07
1.17975e-06
2.37674e-06
3.97769e-06
5.89746e-06
8.05416e-06
1.03793e-05
1.28167e-05
1.53204e-05
1.78512e-05
2.03757e-05
2.2865e-05
2.52935e-05
2.76387e-05
2.98804e-05
3.2001e-05
3.39847e-05
3.58179e-05
3.74888e-05
3.89882e-05
4.0309e-05
4.14472e-05
4.24014e-05
4.31735e-05
4.37685e-05
4.41943e-05
4.44614e-05
4.45822e-05
4.45695e-05
4.40705e-05
4.10607e-05
3.73895e-05
3.32798e-05
2.90893e-05
2.50292e-05
2.12979e-05
1.85244e-05
1.7406e-05
1.64945e-05
1.27096e-05
9.64883e-06
8.89468e-06
9.07511e-06
9.41085e-06
1.04948e-05
1.23809e-05
1.33339e-05
1.42506e-05
1.57402e-05
1.73225e-05
1.87262e-05
1.94573e-05
1.96703e-05
2.0778e-05
2.20367e-05
2.39524e-05
2.97215e-05
3.10492e-05
3.05998e-05
3.04105e-05
3.05096e-05
3.08553e-05
3.14032e-05
3.21181e-05
3.29968e-05
3.4065e-05
3.53683e-05
3.69476e-05
3.8806e-05
4.08796e-05
4.30177e-05
4.50526e-05
4.69108e-05
4.85963e-05
5.01294e-05
5.15281e-05
5.28079e-05
5.39883e-05
5.50935e-05
5.61531e-05
5.72012e-05
5.82749e-05
5.94121e-05
6.06483e-05
6.203e-05
6.35849e-05
6.53299e-05
6.72687e-05
6.93909e-05
7.16734e-05
7.4082e-05
7.65757e-05
7.91101e-05
8.16423e-05
8.41279e-05
8.65368e-05
1.42176e-11
1.37335e-09
1.44143e-08
1.04226e-07
4.45345e-07
1.20562e-06
2.43364e-06
4.07809e-06
6.0507e-06
8.26625e-06
1.06533e-05
1.31537e-05
1.57195e-05
1.83104e-05
2.08923e-05
2.34358e-05
2.59152e-05
2.83082e-05
3.05949e-05
3.27576e-05
3.47808e-05
3.66504e-05
3.83545e-05
3.98828e-05
4.12278e-05
4.23848e-05
4.33524e-05
4.41326e-05
4.4731e-05
4.51567e-05
4.54215e-05
4.55395e-05
4.5526e-05
4.53962e-05
4.51628e-05
4.45735e-05
4.16441e-05
3.78172e-05
3.28152e-05
2.69252e-05
2.07718e-05
1.53279e-05
1.16327e-05
9.99489e-06
9.92592e-06
1.03794e-05
1.06742e-05
1.08407e-05
1.03237e-05
9.93514e-06
9.65078e-06
9.52426e-06
9.81445e-06
1.04949e-05
1.16184e-05
1.33078e-05
1.60467e-05
2.02899e-05
2.63084e-05
2.90935e-05
2.96035e-05
2.9922e-05
3.01211e-05
3.03631e-05
3.07554e-05
3.13268e-05
3.20642e-05
3.29601e-05
3.40344e-05
3.53077e-05
3.68301e-05
3.86305e-05
4.06883e-05
4.29123e-05
4.5133e-05
4.7194e-05
4.90548e-05
5.07368e-05
5.22695e-05
5.36866e-05
5.50253e-05
5.63249e-05
5.76263e-05
5.89707e-05
6.03978e-05
6.19429e-05
6.36323e-05
6.54799e-05
6.74936e-05
6.96837e-05
7.20339e-05
7.45089e-05
7.70688e-05
7.96729e-05
8.22791e-05
8.48477e-05
8.73449e-05
8.9745e-05
9.20312e-05
9.4196e-05
9.62395e-05
9.81682e-05
9.99916e-05
0.000101722
1.42587e-11
1.3816e-09
1.4471e-08
1.04567e-07
4.48314e-07
1.21798e-06
2.46557e-06
4.13985e-06
6.15051e-06
8.40981e-06
1.0844e-05
1.33928e-05
1.60068e-05
1.86448e-05
2.1272e-05
2.38589e-05
2.63801e-05
2.88141e-05
3.11419e-05
3.3347e-05
3.54144e-05
3.73301e-05
3.90804e-05
4.06527e-05
4.2037e-05
4.32272e-05
4.42211e-05
4.50213e-05
4.56342e-05
4.60704e-05
4.63433e-05
4.64685e-05
4.64629e-05
4.6344e-05
4.61282e-05
4.58293e-05
4.54559e-05
4.50088e-05
4.44763e-05
4.38293e-05
4.12489e-05
3.63157e-05
3.07632e-05
2.6019e-05
2.25384e-05
1.93878e-05
1.66662e-05
1.51308e-05
1.43903e-05
1.43e-05
1.45663e-05
1.39535e-05
1.33416e-05
1.35586e-05
1.50124e-05
1.84249e-05
2.5748e-05
2.62381e-05
2.69563e-05
2.77886e-05
2.86024e-05
2.93286e-05
2.99547e-05
3.05553e-05
3.12226e-05
3.20029e-05
3.29165e-05
3.39918e-05
3.52644e-05
3.67649e-05
3.85197e-05
4.0528e-05
4.274e-05
4.50481e-05
4.72868e-05
4.93198e-05
5.1147e-05
5.28212e-05
5.43947e-05
5.59191e-05
5.74451e-05
5.90211e-05
6.06916e-05
6.24911e-05
6.44471e-05
6.65736e-05
6.88693e-05
7.13175e-05
7.38889e-05
7.65441e-05
7.92507e-05
8.19688e-05
8.46575e-05
8.72795e-05
8.98042e-05
9.22095e-05
9.44823e-05
9.66187e-05
9.86212e-05
0.000100498
0.000102262
0.000103926
0.000105504
0.00010701
1.41691e-11
1.37668e-09
1.43834e-08
1.03842e-07
4.46786e-07
1.21857e-06
2.47464e-06
4.16491e-06
6.19825e-06
8.48526e-06
1.09504e-05
1.35317e-05
1.61784e-05
1.8848e-05
2.15051e-05
2.41201e-05
2.66684e-05
2.91302e-05
3.14904e-05
3.37343e-05
3.54854e-05
3.69057e-05
3.83679e-05
3.98438e-05
4.13081e-05
4.27483e-05
4.41767e-05
4.5587e-05
4.64769e-05
4.69291e-05
4.72169e-05
4.73568e-05
4.73667e-05
4.72654e-05
4.70706e-05
4.67986e-05
4.64627e-05
4.60715e-05
4.56279e-05
4.51272e-05
4.45562e-05
4.38933e-05
4.31112e-05
4.21763e-05
4.1065e-05
3.90756e-05
3.82662e-05
3.66257e-05
3.49604e-05
3.33599e-05
3.19201e-05
3.07164e-05
2.96909e-05
2.8811e-05
2.81073e-05
2.72841e-05
2.68586e-05
2.72627e-05
2.7617e-05
2.83045e-05
2.48114e-05
2.84022e-05
3.06024e-05
3.12736e-05
3.20864e-05
3.3035e-05
3.41269e-05
3.53898e-05
3.68557e-05
3.8548e-05
4.04716e-05
4.25999e-05
4.48672e-05
4.71694e-05
4.93662e-05
5.1365e-05
5.31961e-05
5.49353e-05
5.66502e-05
5.84011e-05
6.02413e-05
6.22138e-05
6.43491e-05
6.66615e-05
6.91485e-05
7.17913e-05
7.45569e-05
7.74025e-05
8.02803e-05
8.31428e-05
8.5947e-05
8.86564e-05
9.12426e-05
9.36863e-05
9.59778e-05
9.81159e-05
0.000100107
0.000101961
0.000103693
0.000105319
0.000106855
0.000108316
0.000109713
0.000111059
1.39862e-11
1.36225e-09
1.4188e-08
1.02314e-07
4.41829e-07
1.21007e-06
2.46581e-06
4.1607e-06
6.20363e-06
8.50429e-06
1.09858e-05
1.35849e-05
1.6249e-05
1.89343e-05
2.16035e-05
2.42252e-05
2.67733e-05
2.92266e-05
3.05321e-05
3.15142e-05
3.25298e-05
3.35773e-05
3.4702e-05
3.59225e-05
3.72325e-05
3.86298e-05
4.01106e-05
4.16667e-05
4.32968e-05
4.49877e-05
4.67312e-05
4.81985e-05
4.82305e-05
4.81546e-05
4.7988e-05
4.7747e-05
4.74459e-05
4.70961e-05
4.67046e-05
4.62735e-05
4.57992e-05
4.52724e-05
4.46786e-05
4.40002e-05
4.32196e-05
4.23218e-05
4.1297e-05
4.01457e-05
3.8879e-05
3.7516e-05
3.60886e-05
3.46968e-05
3.34183e-05
3.228e-05
3.13407e-05
3.06624e-05
3.02202e-05
2.79742e-05
2.26636e-05
2.09532e-05
2.55126e-05
3.11092e-05
3.16777e-05
3.24567e-05
3.34034e-05
3.44965e-05
3.57427e-05
3.7162e-05
3.87741e-05
4.0587e-05
4.25886e-05
4.47419e-05
4.69846e-05
4.92321e-05
5.13811e-05
5.33791e-05
5.52795e-05
5.71698e-05
5.9121e-05
6.11896e-05
6.34161e-05
6.58229e-05
6.84123e-05
7.11671e-05
7.40537e-05
7.70267e-05
8.00341e-05
8.30235e-05
8.5946e-05
8.87607e-05
9.14361e-05
9.39519e-05
9.62984e-05
9.84755e-05
0.000100491
0.000102358
0.000104093
0.000105713
0.000107236
0.000108678
0.000110052
0.000111371
0.000112645
0.000113882
0.000115091
1.37495e-11
1.34243e-09
1.39407e-08
1.00402e-07
4.35104e-07
1.19657e-06
2.44661e-06
4.13893e-06
6.18296e-06
8.48808e-06
1.09767e-05
1.35846e-05
1.62583e-05
1.89525e-05
2.16289e-05
2.42547e-05
2.68021e-05
2.87543e-05
2.9501e-05
3.02454e-05
3.10248e-05
3.18218e-05
3.26716e-05
3.35825e-05
3.4562e-05
3.56315e-05
3.68246e-05
3.81795e-05
3.97223e-05
4.1434e-05
4.32445e-05
4.50536e-05
4.68726e-05
4.87862e-05
4.88708e-05
4.86692e-05
4.84093e-05
4.81023e-05
4.7757e-05
4.73784e-05
4.69664e-05
4.65161e-05
4.60177e-05
4.54576e-05
4.482e-05
4.40893e-05
4.32526e-05
4.23037e-05
4.12455e-05
4.00926e-05
3.88735e-05
3.76302e-05
3.64131e-05
3.52754e-05
3.42662e-05
3.34499e-05
3.2872e-05
3.25139e-05
3.23431e-05
3.23409e-05
3.25125e-05
3.289e-05
3.34819e-05
3.42695e-05
3.5235e-05
3.63713e-05
3.76811e-05
3.91692e-05
4.0838e-05
4.26807e-05
4.46768e-05
4.67909e-05
4.89748e-05
5.11707e-05
5.33108e-05
5.53721e-05
5.7419e-05
5.95381e-05
6.17911e-05
6.42161e-05
6.68277e-05
6.96175e-05
7.25561e-05
7.55986e-05
7.8691e-05
8.17763e-05
8.48001e-05
8.77155e-05
9.04858e-05
9.30862e-05
9.5504e-05
9.77376e-05
9.97947e-05
0.000101689
0.000103439
0.000105064
0.000106583
0.000108014
0.000109374
0.000110675
0.000111928
0.000113143
0.000114327
0.00011549
0.000116637
0.00011777
0.000118892
1.3476e-11
1.31895e-09
1.36645e-08
9.82934e-08
4.2747e-07
1.1805e-06
2.42203e-06
4.1079e-06
6.1484e-06
8.45302e-06
1.0944e-05
1.35566e-05
1.6237e-05
1.89396e-05
2.16257e-05
2.42622e-05
2.68215e-05
2.84944e-05
2.92682e-05
3.00668e-05
3.08634e-05
3.16351e-05
3.24023e-05
3.31609e-05
3.39113e-05
3.46718e-05
3.548e-05
3.6386e-05
3.74365e-05
3.86563e-05
4.00434e-05
4.15905e-05
4.32898e-05
4.50823e-05
4.69172e-05
4.88567e-05
4.93474e-05
4.90876e-05
4.87912e-05
4.84636e-05
4.81072e-05
4.77199e-05
4.72951e-05
4.68219e-05
4.62867e-05
4.56743e-05
4.49708e-05
4.41661e-05
4.32577e-05
4.22537e-05
4.11742e-05
4.00521e-05
3.89315e-05
3.78644e-05
3.69053e-05
3.6102e-05
3.54685e-05
3.50167e-05
3.47533e-05
3.46879e-05
3.48231e-05
3.51562e-05
3.5688e-05
3.64175e-05
3.73399e-05
3.8451e-05
3.9747e-05
4.12234e-05
4.28721e-05
4.46796e-05
4.66247e-05
4.86807e-05
5.08168e-05
5.30007e-05
5.51937e-05
5.73894e-05
5.96486e-05
6.20436e-05
6.46131e-05
6.73663e-05
7.02862e-05
7.33345e-05
7.64585e-05
7.95987e-05
8.26954e-05
8.56948e-05
8.85529e-05
9.12382e-05
9.37323e-05
9.60296e-05
9.81351e-05
0.000100062
0.000101829
0.000103458
0.00010497
0.000106385
0.000107721
0.000108993
0.000110214
0.000111395
0.000112542
0.000113663
0.000114767
0.000115861
0.000116946
0.000118024
0.000119096
0.000120163
1.31678e-11
1.29171e-09
1.33502e-08
9.58964e-08
4.18519e-07
1.16086e-06
2.39044e-06
4.06552e-06
6.09761e-06
8.39664e-06
1.0885e-05
1.34979e-05
1.61815e-05
1.88899e-05
2.15842e-05
2.42312e-05
2.68029e-05
2.83048e-05
2.90987e-05
2.99277e-05
3.07439e-05
3.15382e-05
3.23234e-05
3.3089e-05
3.38287e-05
3.45507e-05
3.52766e-05
3.60348e-05
3.68482e-05
3.77266e-05
3.86743e-05
3.97106e-05
4.08784e-05
4.22289e-05
4.3789e-05
4.54781e-05
4.71385e-05
4.88103e-05
4.97997e-05
4.95236e-05
4.92226e-05
4.88962e-05
4.854e-05
4.81463e-05
4.77037e-05
4.71984e-05
4.66164e-05
4.59462e-05
4.51816e-05
4.43245e-05
4.33875e-05
4.23951e-05
4.13839e-05
4.03992e-05
3.94912e-05
3.86997e-05
3.80473e-05
3.75635e-05
3.7262e-05
3.71489e-05
3.72278e-05
3.75012e-05
3.7971e-05
3.86378e-05
3.95001e-05
4.05545e-05
4.17956e-05
4.32162e-05
4.48062e-05
4.65527e-05
4.84401e-05
5.04526e-05
5.25765e-05
5.48004e-05
5.71057e-05
5.94883e-05
6.19899e-05
6.46564e-05
6.74953e-05
7.04845e-05
7.35799e-05
7.67239e-05
7.98541e-05
8.291e-05
8.58396e-05
8.86023e-05
9.11718e-05
9.35353e-05
9.56929e-05
9.76556e-05
9.94405e-05
0.00010107
0.000102566
0.000103952
0.000105247
0.000106469
0.000107634
0.000108754
0.00010984
0.000110898
0.000111934
0.000112956
0.000113972
0.000114986
0.000115998
0.000117011
0.000118025
0.00011904
0.000120057
0.000121076
1.28269e-11
1.26107e-09
1.30032e-08
9.3266e-08
4.08486e-07
1.13815e-06
2.35258e-06
4.01272e-06
6.03168e-06
8.32024e-06
1.08012e-05
1.341e-05
1.60927e-05
1.88035e-05
2.15032e-05
2.41583e-05
2.67405e-05
2.82042e-05
2.90269e-05
2.98958e-05
3.07535e-05
3.1597e-05
3.24366e-05
3.32557e-05
3.40389e-05
3.47824e-05
3.54979e-05
3.62101e-05
3.69431e-05
3.77049e-05
3.84837e-05
3.9266e-05
4.00633e-05
4.09229e-05
4.19062e-05
4.30524e-05
4.43734e-05
4.58206e-05
4.72466e-05
4.86177e-05
5.00175e-05
5.00324e-05
4.97409e-05
4.9422e-05
4.9067e-05
4.86632e-05
4.81983e-05
4.76601e-05
4.70397e-05
4.63338e-05
4.55479e-05
4.46979e-05
4.38106e-05
4.29224e-05
4.20764e-05
4.1298e-05
4.06342e-05
4.01198e-05
3.97755e-05
3.96119e-05
3.96346e-05
3.98472e-05
4.0252e-05
4.08506e-05
4.16426e-05
4.26255e-05
4.37951e-05
4.51453e-05
4.66687e-05
4.83571e-05
5.02027e-05
5.2201e-05
5.43518e-05
5.66588e-05
5.91124e-05
6.16961e-05
6.44206e-05
6.72985e-05
7.03065e-05
7.3398e-05
7.65131e-05
7.95883e-05
8.25639e-05
8.53902e-05
8.803e-05
9.04611e-05
9.2677e-05
9.46815e-05
9.64902e-05
9.81226e-05
9.96007e-05
0.000100948
0.000102187
0.00010334
0.000104423
0.000105453
0.000106443
0.000107402
0.000108338
0.000109258
0.000110166
0.000111069
0.000111975
0.000112887
0.000113806
0.000114733
0.000115669
0.000116613
0.000117567
0.00011853
0.000119504
0.000120488
0.000121481
0.000122485
1.24715e-11
1.22836e-09
1.26337e-08
9.04603e-08
3.97589e-07
1.11297e-06
2.30967e-06
3.95141e-06
5.95313e-06
8.22675e-06
1.06958e-05
1.32965e-05
1.59751e-05
1.8686e-05
2.13899e-05
2.40528e-05
2.66456e-05
2.82772e-05
2.9036e-05
2.98417e-05
3.06574e-05
3.14792e-05
3.23306e-05
3.3201e-05
3.40725e-05
3.49291e-05
3.57614e-05
3.65682e-05
3.73511e-05
3.81052e-05
3.88198e-05
3.9491e-05
4.01356e-05
4.07889e-05
4.1484e-05
4.22343e-05
4.30402e-05
4.39097e-05
4.48727e-05
4.59646e-05
4.7102e-05
4.81852e-05
4.92115e-05
5.0204e-05
5.03558e-05
5.00452e-05
4.96894e-05
4.92771e-05
4.87976e-05
4.82432e-05
4.76137e-05
4.69171e-05
4.61707e-05
4.54013e-05
4.46256e-05
4.38876e-05
4.32319e-05
4.26976e-05
4.23137e-05
4.20986e-05
4.20623e-05
4.22104e-05
4.25463e-05
4.30721e-05
4.37888e-05
4.46958e-05
4.57915e-05
4.70731e-05
4.85376e-05
5.01826e-05
5.20084e-05
5.40191e-05
5.62237e-05
5.86323e-05
6.12334e-05
6.39866e-05
6.68662e-05
6.98532e-05
7.29013e-05
7.59506e-05
7.8938e-05
8.18053e-05
8.4505e-05
8.70049e-05
8.92863e-05
9.13478e-05
9.31965e-05
9.48451e-05
9.63144e-05
9.76277e-05
9.88093e-05
9.98825e-05
0.000100869
0.000101787
0.000102653
0.00010348
0.000104277
0.000105055
0.00010582
0.000106576
0.00010733
0.000108088
0.000108855
0.000109637
0.000110435
0.000111248
0.000112079
0.000112927
0.000113793
0.000114676
0.000115577
0.000116497
0.000117434
0.00011839
1.2112e-11
1.19535e-09
1.22602e-08
8.76103e-08
3.86379e-07
1.08671e-06
2.26434e-06
3.88584e-06
5.86805e-06
8.12415e-06
1.05787e-05
1.31688e-05
1.58415e-05
1.85518e-05
2.12607e-05
2.39345e-05
2.65439e-05
2.88014e-05
2.95455e-05
3.03083e-05
3.10838e-05
3.18311e-05
3.26021e-05
3.34032e-05
3.42232e-05
3.50507e-05
3.58787e-05
3.67077e-05
3.75427e-05
3.83793e-05
3.91951e-05
3.99578e-05
4.06472e-05
4.12732e-05
4.18687e-05
4.24626e-05
4.3062e-05
4.36592e-05
4.42524e-05
4.48569e-05
4.54994e-05
4.62352e-05
4.71084e-05
4.80227e-05
4.8799e-05
4.93921e-05
4.98803e-05
5.02912e-05
5.04149e-05
5.00043e-05
4.95297e-05
4.89927e-05
4.84017e-05
4.7761e-05
4.70932e-05
4.64327e-05
4.58192e-05
4.52919e-05
4.48863e-05
4.4629e-05
4.45376e-05
4.46226e-05
4.48901e-05
4.53442e-05
4.59876e-05
4.68224e-05
4.785e-05
4.90717e-05
5.04891e-05
5.21057e-05
5.39273e-05
5.59634e-05
5.82257e-05
6.07229e-05
6.3432e-05
6.62838e-05
6.92187e-05
7.21941e-05
7.51522e-05
7.80312e-05
8.07729e-05
8.33343e-05
8.56906e-05
8.78266e-05
8.97367e-05
9.14276e-05
9.29132e-05
9.42141e-05
9.53545e-05
9.6359e-05
9.72517e-05
9.80541e-05
9.87854e-05
9.94619e-05
0.000100097
0.000100703
0.000101288
0.000101861
0.000102427
0.000102992
0.000103563
0.000104144
0.000104743
0.000105365
0.000106012
0.000106683
0.00010738
0.000108103
0.000108852
0.000109628
0.000110432
0.000111263
0.000112121
0.000113006
1.17492e-11
1.16179e-09
1.1892e-08
8.48231e-08
3.75301e-07
1.06047e-06
2.21848e-06
3.8185e-06
5.77923e-06
8.01533e-06
1.04527e-05
1.30296e-05
1.56944e-05
1.8403e-05
2.11175e-05
2.38048e-05
2.64359e-05
2.89855e-05
3.04871e-05
3.12074e-05
3.19245e-05
3.26181e-05
3.3316e-05
3.40487e-05
3.48073e-05
3.5573e-05
3.6331e-05
3.70788e-05
3.78269e-05
3.85887e-05
3.93664e-05
4.01459e-05
4.09039e-05
4.16206e-05
4.22859e-05
4.2896e-05
4.34497e-05
4.39504e-05
4.44089e-05
4.4841e-05
4.52657e-05
4.5706e-05
4.61755e-05
4.66578e-05
4.71235e-05
4.75808e-05
4.80302e-05
4.84444e-05
4.87676e-05
4.89992e-05
4.91772e-05
4.93304e-05
4.95133e-05
4.97125e-05
4.94146e-05
4.88728e-05
4.83461e-05
4.78666e-05
4.74727e-05
4.71979e-05
4.7068e-05
4.71009e-05
4.73083e-05
4.7698e-05
4.82759e-05
4.90468e-05
5.00155e-05
5.11869e-05
5.25668e-05
5.41625e-05
5.59829e-05
5.80383e-05
6.03373e-05
6.28806e-05
6.56286e-05
6.84851e-05
7.13661e-05
7.42132e-05
7.69719e-05
7.9586e-05
8.20148e-05
8.4236e-05
8.62338e-05
8.79996e-05
8.95387e-05
9.08658e-05
9.20015e-05
9.29697e-05
9.37951e-05
9.45015e-05
9.5111e-05
9.56429e-05
9.61142e-05
9.65391e-05
9.69298e-05
9.72965e-05
9.76478e-05
9.7991e-05
9.83323e-05
9.8679e-05
9.90378e-05
9.94143e-05
9.98174e-05
0.000100252
0.000100718
0.000101218
0.000101751
0.000102319
0.000102923
0.000103564
0.000104241
0.000104956
0.000105709
0.000106499
1.13703e-11
1.12661e-09
1.14979e-08
8.18482e-08
3.63504e-07
1.03261e-06
2.17003e-06
3.74759e-06
5.6857e-06
7.90024e-06
1.03183e-05
1.28795e-05
1.55334e-05
1.82375e-05
2.09552e-05
2.36546e-05
2.6308e-05
2.88911e-05
3.13831e-05
3.28903e-05
3.36615e-05
3.43629e-05
3.49683e-05
3.55355e-05
3.60966e-05
3.66494e-05
3.71962e-05
3.77458e-05
3.83143e-05
3.89204e-05
3.95706e-05
4.02508e-05
4.09331e-05
4.15942e-05
4.22282e-05
4.28414e-05
4.34379e-05
4.40104e-05
4.45407e-05
4.50039e-05
4.53831e-05
4.56902e-05
4.59644e-05
4.62344e-05
4.6488e-05
4.67001e-05
4.68844e-05
4.71047e-05
4.74052e-05
4.77711e-05
4.8156e-05
4.85564e-05
4.89438e-05
4.92745e-05
4.95962e-05
5.00879e-05
5.07402e-05
5.03559e-05
5.00184e-05
4.97649e-05
4.96276e-05
4.96321e-05
4.97974e-05
5.0137e-05
5.06614e-05
5.1379e-05
5.22977e-05
5.34257e-05
5.47713e-05
5.63437e-05
5.81515e-05
6.02019e-05
6.2496e-05
6.50228e-05
6.77266e-05
7.04885e-05
7.32131e-05
7.58492e-05
7.83489e-05
8.06607e-05
8.27579e-05
8.46272e-05
8.62616e-05
8.76632e-05
8.88457e-05
8.98287e-05
9.06354e-05
9.12899e-05
9.18158e-05
9.22349e-05
9.25669e-05
9.28288e-05
9.30358e-05
9.32006e-05
9.33345e-05
9.3447e-05
9.35466e-05
9.36405e-05
9.37355e-05
9.38417e-05
9.39647e-05
9.41146e-05
9.43e-05
9.45221e-05
9.47823e-05
9.50822e-05
9.54235e-05
9.5808e-05
9.62374e-05
9.67131e-05
9.72363e-05
9.78081e-05
9.8429e-05
9.9099e-05
9.98179e-05
1.09705e-11
1.08917e-09
1.10939e-08
7.88495e-08
3.51513e-07
1.00396e-06
2.11954e-06
3.67269e-06
5.58556e-06
7.77532e-06
1.01703e-05
1.27114e-05
1.53497e-05
1.80439e-05
2.07588e-05
2.34639e-05
2.61326e-05
2.8742e-05
3.12722e-05
3.37065e-05
3.56587e-05
3.65729e-05
3.74038e-05
3.81033e-05
3.86488e-05
3.91033e-05
3.94857e-05
3.97975e-05
4.007e-05
4.03566e-05
4.07012e-05
4.11165e-05
4.15844e-05
4.20724e-05
4.25547e-05
4.30246e-05
4.34926e-05
4.39746e-05
4.44727e-05
4.49627e-05
4.54008e-05
4.57572e-05
4.60436e-05
4.62997e-05
4.65481e-05
4.67804e-05
4.69901e-05
4.71963e-05
4.74368e-05
4.7735e-05
4.80775e-05
4.84302e-05
4.88166e-05
4.93404e-05
5.00496e-05
5.08405e-05
5.16157e-05
5.25694e-05
5.24451e-05
5.22585e-05
5.21556e-05
5.21669e-05
5.2318e-05
5.26292e-05
5.31164e-05
5.37927e-05
5.46693e-05
5.57567e-05
5.70647e-05
5.86018e-05
6.03739e-05
6.23818e-05
6.46173e-05
6.70568e-05
6.96318e-05
7.22274e-05
7.47477e-05
7.71387e-05
7.93475e-05
8.13379e-05
8.30955e-05
8.4616e-05
8.5901e-05
8.69605e-05
8.78124e-05
8.84784e-05
8.89813e-05
8.93439e-05
8.95876e-05
8.97319e-05
8.97941e-05
8.97896e-05
8.9732e-05
8.96331e-05
8.95036e-05
8.93529e-05
8.91895e-05
8.90214e-05
8.88572e-05
8.87068e-05
8.85823e-05
8.8494e-05
8.84438e-05
8.84333e-05
8.8465e-05
8.85414e-05
8.86654e-05
8.88405e-05
8.90691e-05
8.93532e-05
8.96952e-05
9.00971e-05
9.056e-05
9.10848e-05
9.1672e-05
1.05448e-11
1.04871e-09
1.06441e-08
7.55115e-08
3.38139e-07
9.71938e-07
2.0631e-06
3.58901e-06
5.47355e-06
7.63505e-06
1.00029e-05
1.25191e-05
1.5136e-05
1.78135e-05
2.05177e-05
2.32192e-05
2.58924e-05
2.85153e-05
3.10687e-05
3.35363e-05
3.59045e-05
3.81613e-05
4.00631e-05
4.10166e-05
4.18434e-05
4.25134e-05
4.29674e-05
4.32252e-05
4.33457e-05
4.3401e-05
4.34448e-05
4.34902e-05
4.35468e-05
4.36272e-05
4.37396e-05
4.38861e-05
4.40746e-05
4.43211e-05
4.46357e-05
4.50003e-05
4.53717e-05
4.57126e-05
4.60233e-05
4.63368e-05
4.6675e-05
4.70173e-05
4.73172e-05
4.75626e-05
4.78088e-05
4.81166e-05
4.84881e-05
4.88929e-05
4.93518e-05
4.99109e-05
5.05899e-05
5.13856e-05
5.2229e-05
5.31052e-05
5.42221e-05
5.45937e-05
5.45688e-05
5.46263e-05
5.47971e-05
5.51074e-05
5.55783e-05
5.62276e-05
5.70698e-05
5.81173e-05
5.93799e-05
6.0864e-05
6.25708e-05
6.44942e-05
6.66151e-05
6.89142e-05
7.13233e-05
7.37237e-05
7.60081e-05
7.81226e-05
8.0024e-05
8.1693e-05
8.31226e-05
8.43159e-05
8.52804e-05
8.60304e-05
8.65851e-05
8.69656e-05
8.71934e-05
8.72887e-05
8.72705e-05
8.71561e-05
8.69608e-05
8.66987e-05
8.63822e-05
8.60227e-05
8.56305e-05
8.52153e-05
8.4786e-05
8.43512e-05
8.3924e-05
8.35197e-05
8.31497e-05
8.28146e-05
8.25164e-05
8.2259e-05
8.2046e-05
8.18806e-05
8.17674e-05
8.17113e-05
8.17164e-05
8.17866e-05
8.19255e-05
8.21361e-05
8.24205e-05
8.27807e-05
8.32174e-05
1.01012e-11
1.00616e-09
1.01825e-08
7.21306e-08
3.24404e-07
9.38375e-07
2.00274e-06
3.49796e-06
5.34993e-06
7.47834e-06
9.81375e-06
1.22993e-05
1.48883e-05
1.7542e-05
2.02272e-05
2.29156e-05
2.55824e-05
2.82061e-05
3.0768e-05
3.32518e-05
3.56438e-05
3.79323e-05
4.01076e-05
4.21618e-05
4.40864e-05
4.56708e-05
4.64835e-05
4.70655e-05
4.74282e-05
4.75754e-05
4.75131e-05
4.7279e-05
4.69714e-05
4.66746e-05
4.6416e-05
4.61727e-05
4.59503e-05
4.57894e-05
4.57294e-05
4.5778e-05
4.59008e-05
4.60488e-05
4.62007e-05
4.63736e-05
4.65869e-05
4.68315e-05
4.70644e-05
4.72824e-05
4.75329e-05
4.78493e-05
4.82296e-05
4.86532e-05
4.91079e-05
4.96076e-05
5.01972e-05
5.09372e-05
5.18883e-05
5.30047e-05
5.42524e-05
5.58196e-05
5.67854e-05
5.69237e-05
5.71459e-05
5.7483e-05
5.79604e-05
5.8599e-05
5.94158e-05
6.04241e-05
6.16331e-05
6.30466e-05
6.46588e-05
6.64643e-05
6.84517e-05
7.05952e-05
7.28156e-05
7.49875e-05
7.70113e-05
7.88387e-05
8.044e-05
8.18063e-05
8.29358e-05
8.38364e-05
8.45186e-05
8.49982e-05
8.52937e-05
8.54244e-05
8.5409e-05
8.52655e-05
8.50103e-05
8.46586e-05
8.42243e-05
8.37201e-05
8.3158e-05
8.25489e-05
8.19034e-05
8.12316e-05
8.05434e-05
7.98517e-05
7.91788e-05
7.85336e-05
7.79179e-05
7.73331e-05
7.67811e-05
7.62677e-05
7.57987e-05
7.53802e-05
7.50186e-05
7.47201e-05
7.44904e-05
7.43349e-05
7.42585e-05
7.42652e-05
7.43586e-05
7.45413e-05
7.48148e-05
7.518e-05
9.65189e-12
9.62449e-10
9.69996e-09
6.85653e-08
3.09731e-07
9.02075e-07
1.93692e-06
3.39809e-06
5.2136e-06
7.30449e-06
9.60245e-06
1.20517e-05
1.46067e-05
1.72296e-05
1.98884e-05
2.25554e-05
2.52066e-05
2.78211e-05
3.03805e-05
3.28687e-05
3.5272e-05
3.75783e-05
3.97777e-05
4.18615e-05
4.38229e-05
4.56564e-05
4.73581e-05
4.89247e-05
5.03528e-05
5.16405e-05
5.19093e-05
5.18345e-05
5.16318e-05
5.13515e-05
5.09596e-05
5.04167e-05
4.97973e-05
4.92027e-05
4.86677e-05
4.82107e-05
4.78376e-05
4.75269e-05
4.72586e-05
4.70395e-05
4.69017e-05
4.68634e-05
4.69071e-05
4.69936e-05
4.70927e-05
4.72262e-05
4.74306e-05
4.77254e-05
4.81128e-05
4.86157e-05
4.92843e-05
5.01657e-05
5.12815e-05
5.26406e-05
5.41957e-05
5.58965e-05
5.78364e-05
5.89913e-05
5.92856e-05
5.9671e-05
6.01744e-05
6.08178e-05
6.16187e-05
6.25903e-05
6.37398e-05
6.50692e-05
6.65802e-05
6.82688e-05
7.01179e-05
7.20849e-05
7.40932e-05
7.60219e-05
7.77816e-05
7.93334e-05
8.06597e-05
8.17553e-05
8.26231e-05
8.32731e-05
8.37167e-05
8.39691e-05
8.40468e-05
8.39666e-05
8.37445e-05
8.33957e-05
8.29341e-05
8.23732e-05
8.17253e-05
8.10022e-05
8.02153e-05
7.93756e-05
7.84938e-05
7.75807e-05
7.66539e-05
7.57378e-05
7.48407e-05
7.39626e-05
7.31033e-05
7.22681e-05
7.14633e-05
7.06962e-05
6.99742e-05
6.93054e-05
6.86974e-05
6.8158e-05
6.76945e-05
6.73136e-05
6.70218e-05
6.68245e-05
6.67263e-05
6.67309e-05
6.68408e-05
6.70573e-05
9.20929e-12
9.1907e-10
9.23414e-09
6.514e-08
2.95292e-07
8.65325e-07
1.86869e-06
3.29271e-06
5.0679e-06
7.11695e-06
9.37282e-06
1.17808e-05
1.42964e-05
1.68828e-05
1.95087e-05
2.21473e-05
2.47754e-05
2.73726e-05
2.99209e-05
3.24047e-05
3.48103e-05
3.71259e-05
3.93414e-05
4.14481e-05
4.34389e-05
4.53083e-05
4.70518e-05
4.86662e-05
5.01495e-05
5.1501e-05
5.27215e-05
5.38127e-05
5.47762e-05
5.56141e-05
5.55984e-05
5.51643e-05
5.46157e-05
5.3889e-05
5.29845e-05
5.20314e-05
5.1173e-05
5.04302e-05
4.97856e-05
4.92315e-05
4.87858e-05
4.84593e-05
4.82207e-05
4.80058e-05
4.77905e-05
4.76245e-05
4.75795e-05
4.77115e-05
4.80492e-05
4.86037e-05
4.93772e-05
5.03631e-05
5.15422e-05
5.28988e-05
5.44499e-05
5.61916e-05
5.80847e-05
6.02548e-05
6.11693e-05
6.16133e-05
6.21545e-05
6.28136e-05
6.36068e-05
6.45457e-05
6.56399e-05
6.68953e-05
6.83156e-05
6.98855e-05
7.15807e-05
7.33603e-05
7.51504e-05
7.68393e-05
7.83511e-05
7.96558e-05
8.07418e-05
8.16068e-05
8.22564e-05
8.27013e-05
8.29519e-05
8.3022e-05
8.29259e-05
8.26773e-05
8.22892e-05
8.17741e-05
8.11435e-05
8.04087e-05
7.95804e-05
7.86694e-05
7.76865e-05
7.66427e-05
7.55495e-05
7.44267e-05
7.33011e-05
7.21828e-05
7.10692e-05
6.99633e-05
6.88702e-05
6.77971e-05
6.67522e-05
6.57444e-05
6.47831e-05
6.38774e-05
6.30365e-05
6.22693e-05
6.15843e-05
6.099e-05
6.0494e-05
6.01035e-05
5.98242e-05
5.96608e-05
5.96167e-05
5.96935e-05
8.78652e-12
8.77247e-10
8.77591e-09
6.17258e-08
2.80735e-07
8.27886e-07
1.79859e-06
3.18366e-06
4.91607e-06
6.92008e-06
9.12995e-06
1.14922e-05
1.39635e-05
1.65079e-05
1.90952e-05
2.16995e-05
2.42982e-05
2.68714e-05
2.94019e-05
3.18744e-05
3.42753e-05
3.65931e-05
3.88177e-05
4.09406e-05
4.29547e-05
4.48544e-05
4.66351e-05
4.82937e-05
4.9828e-05
5.12371e-05
5.2521e-05
5.36809e-05
5.47187e-05
5.56374e-05
5.64412e-05
5.71349e-05
5.77232e-05
5.77006e-05
5.69022e-05
5.61255e-05
5.53936e-05
5.4664e-05
5.39461e-05
5.32436e-05
5.25364e-05
5.18411e-05
5.11859e-05
5.0585e-05
5.00711e-05
4.96902e-05
4.94988e-05
4.95391e-05
4.9819e-05
5.03151e-05
5.09932e-05
5.18264e-05
5.28046e-05
5.39359e-05
5.52571e-05
5.68299e-05
5.86161e-05
6.05277e-05
6.27844e-05
6.32875e-05
6.38698e-05
6.45493e-05
6.53414e-05
6.62587e-05
6.73121e-05
6.85048e-05
6.98324e-05
7.12793e-05
7.28197e-05
7.44148e-05
7.59958e-05
7.74649e-05
7.87576e-05
7.98508e-05
8.07356e-05
8.14126e-05
8.18881e-05
8.21721e-05
8.22744e-05
8.22069e-05
8.19813e-05
8.16085e-05
8.10989e-05
8.04617e-05
7.97059e-05
7.88402e-05
7.7873e-05
7.68136e-05
7.56713e-05
7.44554e-05
7.31894e-05
7.18985e-05
7.05952e-05
6.92842e-05
6.79676e-05
6.66501e-05
6.5339e-05
6.4044e-05
6.27761e-05
6.15467e-05
6.03666e-05
5.92459e-05
5.8194e-05
5.72205e-05
5.63349e-05
5.55469e-05
5.4866e-05
5.43008e-05
5.38586e-05
5.35452e-05
5.33644e-05
5.33182e-05
8.39059e-12
8.37851e-10
8.35326e-09
5.85116e-08
2.66573e-07
7.90544e-07
1.72759e-06
3.07215e-06
4.75974e-06
6.71628e-06
8.8773e-06
1.11905e-05
1.36136e-05
1.61118e-05
1.86558e-05
2.12206e-05
2.37844e-05
2.63281e-05
2.88348e-05
3.12896e-05
3.36796e-05
3.59933e-05
3.82208e-05
4.03537e-05
4.23851e-05
4.43093e-05
4.61216e-05
4.78187e-05
4.93985e-05
5.08596e-05
5.22018e-05
5.34259e-05
5.45334e-05
5.55267e-05
5.64091e-05
5.71846e-05
5.7858e-05
5.84351e-05
5.89221e-05
5.93253e-05
5.92351e-05
5.86982e-05
5.81235e-05
5.73996e-05
5.64986e-05
5.55173e-05
5.45981e-05
5.38293e-05
5.32485e-05
5.28598e-05
5.26568e-05
5.26286e-05
5.27558e-05
5.30141e-05
5.33885e-05
5.38839e-05
5.45242e-05
5.5343e-05
5.6378e-05
5.76746e-05
5.92708e-05
6.10858e-05
6.31127e-05
6.47025e-05
6.53216e-05
6.60225e-05
6.68195e-05
6.77236e-05
6.87408e-05
6.98717e-05
7.11097e-05
7.2439e-05
7.38343e-05
7.52599e-05
7.66541e-05
7.79316e-05
7.90384e-05
7.99561e-05
8.06787e-05
8.12077e-05
8.15497e-05
8.17135e-05
8.17084e-05
8.15447e-05
8.12317e-05
8.07781e-05
8.01917e-05
7.9479e-05
7.86462e-05
7.76988e-05
7.66428e-05
7.54843e-05
7.42319e-05
7.28937e-05
7.14902e-05
7.00531e-05
6.85918e-05
6.71081e-05
6.56053e-05
6.409e-05
6.25731e-05
6.10687e-05
5.95929e-05
5.8161e-05
5.67853e-05
5.54752e-05
5.42385e-05
5.3084e-05
5.20216e-05
5.10626e-05
5.02182e-05
4.94991e-05
4.89142e-05
4.84704e-05
4.81721e-05
4.8021e-05
8.01924e-12
8.00635e-10
7.95029e-09
5.54878e-08
2.53175e-07
7.5463e-07
1.65808e-06
2.96137e-06
4.6027e-06
6.50971e-06
8.61929e-06
1.08804e-05
1.32519e-05
1.57001e-05
1.81967e-05
2.07176e-05
2.32418e-05
2.57508e-05
2.82284e-05
3.06601e-05
3.30334e-05
3.53371e-05
3.75616e-05
3.96987e-05
4.17415e-05
4.36841e-05
4.55221e-05
4.72519e-05
4.88711e-05
5.03784e-05
5.1773e-05
5.30555e-05
5.4227e-05
5.52893e-05
5.62452e-05
5.7098e-05
5.78516e-05
5.85107e-05
5.90805e-05
5.9567e-05
5.99762e-05
6.03138e-05
6.04195e-05
5.98281e-05