/*--------------------------------*- C++ -*----------------------------------*\
  =========                 |
  \\      /  F ield         | OpenFOAM: The Open Source CFD Toolbox
   \\    /   O peration     | Website:  https://openfoam.org
    \\  /    A nd           | Version:  10
     \\/     M anipulation  |
\*---------------------------------------------------------------------------*/
FoamFile
{
    format      ascii;
    class       volScalarField;
    location    "6000";
    object      p;
}
// * * * * * * * * * * * * * * * * * * * * * * * * * * * * * * * * * * * * * //

dimensions      [0 2 -2 0 0 0 0];

internalField   nonuniform List<scalar> 
17969
(
-5.40492
-5.39536
-5.387
-5.37835
-5.36933
-5.35998
-5.35031
-5.3403
-5.32996
-5.31927
-5.30822
-5.29679
-5.28499
-5.27279
-5.26018
-5.24714
-5.23367
-5.21974
-5.20533
-5.19043
-5.17502
-5.15909
-5.1426
-5.12554
-5.1079
-5.08963
-5.07073
-5.05117
-5.03091
-5.00994
-4.98822
-4.96573
-4.94243
-4.91829
-4.89328
-4.86736
-4.84049
-4.81263
-4.78372
-4.75371
-4.72252
-4.6901
-4.65641
-4.62143
-4.58512
-4.54748
-4.50846
-4.46795
-4.42588
-4.38215
-4.33672
-4.28955
-4.24056
-4.18967
-4.13672
-4.08157
-4.02406
-3.96404
-3.90134
-3.83587
-3.76756
-3.69636
-3.62218
-3.5449
-3.46439
-3.38053
-3.29319
-3.20224
-3.10753
-3.00892
-2.90622
-2.79929
-2.68792
-2.57194
-2.45288
-2.33411
-2.21733
-2.10255
-1.98977
-1.87898
-1.77019
-1.6634
-1.55861
-1.45581
-1.355
-1.25618
-1.15932
-1.06442
-0.971469
-0.880441
-0.79132
-0.704087
-0.618719
-0.535192
-0.453483
-0.373566
-0.295413
-0.218996
-0.144286
-0.0712658
-5.40484
-5.39526
-5.38688
-5.37821
-5.36918
-5.35982
-5.35013
-5.34011
-5.32975
-5.31904
-5.30798
-5.29654
-5.28473
-5.27251
-5.25989
-5.24684
-5.23335
-5.2194
-5.20498
-5.19007
-5.17465
-5.1587
-5.1422
-5.12512
-5.10746
-5.08918
-5.07026
-5.05068
-5.0304
-5.00941
-4.98767
-4.96515
-4.94181
-4.91764
-4.89259
-4.86662
-4.8397
-4.81179
-4.78284
-4.75281
-4.72164
-4.68926
-4.6556
-4.62056
-4.58411
-4.5462
-4.50682
-4.46597
-4.42368
-4.37994
-4.33466
-4.28775
-4.23914
-4.18874
-4.13638
-4.08185
-4.0249
-3.9653
-3.90289
-3.83759
-3.76936
-3.69814
-3.62389
-3.5465
-3.46587
-3.38191
-3.29449
-3.20349
-3.10874
-3.01011
-2.90741
-2.80047
-2.68911
-2.57313
-2.45407
-2.33529
-2.21851
-2.10371
-1.9909
-1.88009
-1.77128
-1.66446
-1.55964
-1.45682
-1.35599
-1.25713
-1.16025
-1.06533
-0.972356
-0.881303
-0.792157
-0.704895
-0.619494
-0.53593
-0.454179
-0.374214
-0.296009
-0.219539
-0.144777
-0.0716972
-5.40479
-5.39519
-5.38679
-5.37811
-5.36906
-5.35967
-5.34996
-5.33993
-5.32955
-5.31883
-5.30775
-5.2963
-5.28447
-5.27224
-5.2596
-5.24653
-5.23303
-5.21907
-5.20463
-5.1897
-5.17426
-5.1583
-5.14178
-5.12469
-5.10701
-5.08871
-5.06977
-5.05017
-5.02988
-5.00887
-4.9871
-4.96457
-4.94121
-4.91702
-4.89194
-4.86595
-4.83899
-4.81103
-4.78203
-4.75192
-4.72065
-4.68816
-4.65436
-4.61921
-4.58268
-4.54478
-4.50549
-4.46477
-4.42258
-4.37883
-4.33347
-4.28643
-4.23762
-4.18695
-4.13432
-4.07961
-4.02271
-3.96344
-3.90157
-3.83687
-3.76915
-3.69828
-3.62424
-3.54697
-3.46643
-3.38253
-3.29515
-3.20417
-3.10944
-3.01081
-2.90812
-2.80119
-2.68985
-2.57389
-2.45486
-2.33608
-2.21928
-2.10447
-1.99164
-1.88081
-1.77197
-1.66513
-1.56029
-1.45745
-1.3566
-1.25772
-1.16082
-1.06588
-0.972879
-0.881797
-0.792617
-0.705316
-0.619873
-0.536263
-0.454463
-0.37445
-0.296198
-0.219684
-0.144883
-0.0717692
-5.40475
-5.39512
-5.38671
-5.378
-5.36893
-5.35953
-5.3498
-5.33975
-5.32936
-5.31862
-5.30752
-5.29605
-5.2842
-5.27195
-5.25929
-5.24621
-5.23269
-5.21871
-5.20425
-5.18931
-5.17385
-5.15787
-5.14133
-5.12422
-5.10653
-5.08821
-5.06926
-5.04963
-5.02932
-5.00829
-4.98651
-4.96395
-4.94058
-4.91636
-4.89127
-4.86526
-4.83829
-4.81033
-4.78132
-4.75122
-4.71999
-4.68757
-4.65391
-4.61896
-4.58269
-4.54504
-4.50595
-4.46537
-4.42322
-4.37941
-4.33393
-4.28671
-4.2377
-4.1868
-4.13394
-4.07902
-4.02191
-3.96245
-3.90043
-3.83567
-3.76803
-3.69736
-3.62357
-3.54655
-3.46622
-3.38247
-3.2952
-3.2043
-3.10965
-3.01108
-2.90844
-2.80156
-2.69025
-2.57432
-2.4553
-2.33652
-2.21971
-2.10488
-1.99203
-1.88118
-1.77233
-1.66547
-1.56062
-1.45777
-1.3569
-1.25801
-1.16109
-1.06612
-0.973088
-0.881971
-0.792752
-0.70541
-0.619923
-0.536268
-0.454423
-0.374366
-0.296073
-0.219522
-0.144687
-0.0715448
-7.12333e-05
0.0697592
0.137972
0.204595
-5.40471
-5.39506
-5.38663
-5.37791
-5.36882
-5.3594
-5.34965
-5.33958
-5.32916
-5.31841
-5.30729
-5.2958
-5.28393
-5.27167
-5.25899
-5.24589
-5.23235
-5.21835
-5.20387
-5.18891
-5.17343
-5.15742
-5.14087
-5.12374
-5.10602
-5.08769
-5.06871
-5.04907
-5.02874
-5.00769
-4.98589
-4.96331
-4.93992
-4.91568
-4.89057
-4.86454
-4.83756
-4.80958
-4.78057
-4.75047
-4.71925
-4.68685
-4.65321
-4.61829
-4.58202
-4.54436
-4.50525
-4.46464
-4.42248
-4.3787
-4.33324
-4.286
-4.23692
-4.18591
-4.13289
-4.07777
-4.02045
-3.96083
-3.89877
-3.8341
-3.7666
-3.69611
-3.62249
-3.54566
-3.46551
-3.38193
-3.29482
-3.20405
-3.1095
-3.01102
-2.90844
-2.80161
-2.69034
-2.57443
-2.45542
-2.33665
-2.21984
-2.105
-1.99215
-1.88129
-1.77243
-1.66557
-1.56071
-1.45784
-1.35696
-1.25805
-1.16111
-1.06611
-0.973036
-0.881877
-0.792612
-0.705222
-0.619686
-0.535984
-0.454095
-0.373997
-0.295668
-0.219084
-0.144223
-0.0710593
0.000431814
0.0702756
0.138498
0.205126
-5.40468
-5.395
-5.38656
-5.37782
-5.36871
-5.35927
-5.34951
-5.33941
-5.32898
-5.3182
-5.30707
-5.29556
-5.28367
-5.27138
-5.25869
-5.24556
-5.232
-5.21798
-5.20348
-5.1885
-5.173
-5.15697
-5.14039
-5.12325
-5.10551
-5.08715
-5.06816
-5.04849
-5.02814
-5.00706
-4.98524
-4.96264
-4.93923
-4.91497
-4.88984
-4.86379
-4.83679
-4.80879
-4.77977
-4.74966
-4.71844
-4.68604
-4.65242
-4.61754
-4.58132
-4.54372
-4.50468
-4.46411
-4.42195
-4.37814
-4.33261
-4.28528
-4.23608
-4.18492
-4.13174
-4.07645
-4.01896
-3.95921
-3.89708
-3.83238
-3.76493
-3.69455
-3.62107
-3.54439
-3.46441
-3.381
-3.29405
-3.20343
-3.10901
-3.01063
-2.90814
-2.80138
-2.69016
-2.5743
-2.45531
-2.33656
-2.21976
-2.10493
-1.99208
-1.88122
-1.77236
-1.6655
-1.56062
-1.45773
-1.35683
-1.25788
-1.1609
-1.06585
-0.972734
-0.881525
-0.79221
-0.704771
-0.619189
-0.535444
-0.453517
-0.373385
-0.295026
-0.218417
-0.143535
-0.0703554
0.0011478
0.0709999
0.139227
0.205856
-5.40466
-5.39496
-5.3865
-5.37774
-5.36862
-5.35916
-5.34937
-5.33926
-5.32881
-5.31801
-5.30686
-5.29533
-5.28342
-5.27111
-5.25839
-5.24525
-5.23166
-5.21762
-5.2031
-5.18809
-5.17257
-5.15651
-5.13991
-5.12274
-5.10498
-5.0866
-5.06758
-5.04789
-5.02752
-5.00642
-4.98457
-4.96195
-4.93851
-4.91423
-4.88908
-4.863
-4.83598
-4.80796
-4.77892
-4.74879
-4.71755
-4.68513
-4.6515
-4.6166
-4.58037
-4.54276
-4.50371
-4.46316
-4.42103
-4.37725
-4.33174
-4.28444
-4.23526
-4.18412
-4.13095
-4.07565
-4.01812
-3.95825
-3.89594
-3.83108
-3.76351
-3.69306
-3.61959
-3.54298
-3.46311
-3.37983
-3.29301
-3.20253
-3.10822
-3.00996
-2.90757
-2.80088
-2.68973
-2.57392
-2.45498
-2.33626
-2.21948
-2.10467
-1.99183
-1.88097
-1.77211
-1.66523
-1.56033
-1.45741
-1.35647
-1.25749
-1.16045
-1.06536
-0.972193
-0.880936
-0.791575
-0.704093
-0.618471
-0.534691
-0.452732
-0.372573
-0.294191
-0.217564
-0.142668
-0.0694773
0.00203281
0.0718883
0.140116
0.206742
0.271795
-5.40465
-5.39492
-5.38644
-5.37767
-5.36853
-5.35905
-5.34925
-5.33912
-5.32865
-5.31784
-5.30666
-5.29511
-5.28318
-5.27085
-5.25811
-5.24495
-5.23134
-5.21727
-5.20273
-5.1877
-5.17215
-5.15607
-5.13944
-5.12225
-5.10445
-5.08605
-5.067
-5.04729
-5.02688
-5.00576
-4.98389
-4.96124
-4.93778
-4.91347
-4.88829
-4.86219
-4.83514
-4.8071
-4.77803
-4.74788
-4.71661
-4.68417
-4.65052
-4.61559
-4.57934
-4.5417
-4.50263
-4.46205
-4.4199
-4.3761
-4.33059
-4.28328
-4.2341
-4.18296
-4.12978
-4.07446
-4.01691
-3.95701
-3.89465
-3.8297
-3.76204
-3.69154
-3.61807
-3.5415
-3.46169
-3.3785
-3.29179
-3.20141
-3.10722
-3.00905
-2.90676
-2.80016
-2.68909
-2.57334
-2.45445
-2.33577
-2.21903
-2.10423
-1.9914
-1.88055
-1.77167
-1.66477
-1.55985
-1.4569
-1.35591
-1.25688
-1.1598
-1.06467
-0.971452
-0.880153
-0.790752
-0.703233
-0.617578
-0.53377
-0.451786
-0.371607
-0.293209
-0.21657
-0.141664
-0.0684684
0.00304405
0.0728991
0.141123
0.207744
0.272788
0.336284
0.398259
-5.40464
-5.39489
-5.3864
-5.37761
-5.36845
-5.35896
-5.34914
-5.33899
-5.3285
-5.31767
-5.30647
-5.29491
-5.28296
-5.27061
-5.25785
-5.24466
-5.23103
-5.21694
-5.20238
-5.18732
-5.17175
-5.15564
-5.13899
-5.12176
-5.10395
-5.08551
-5.06643
-5.04669
-5.02626
-5.00511
-4.9832
-4.96053
-4.93704
-4.9127
-4.8875
-4.86137
-4.8343
-4.80623
-4.77713
-4.74695
-4.71565
-4.68318
-4.6495
-4.61454
-4.57826
-4.5406
-4.50149
-4.46088
-4.4187
-4.37487
-4.32933
-4.282
-4.23279
-4.18163
-4.12842
-4.07306
-4.01547
-3.95553
-3.89312
-3.82814
-3.76047
-3.68997
-3.61652
-3.53998
-3.46022
-3.37709
-3.29046
-3.20016
-3.10606
-3.00799
-2.90578
-2.79927
-2.68827
-2.57259
-2.45377
-2.33513
-2.21842
-2.10364
-1.99082
-1.87996
-1.77107
-1.66415
-1.55919
-1.4562
-1.35518
-1.25611
-1.15899
-1.06381
-0.970555
-0.879219
-0.789786
-0.702238
-0.616559
-0.532728
-0.450727
-0.370533
-0.292125
-0.215478
-0.140568
-0.0673706
0.00414082
0.0739923
0.142211
0.208823
0.273858
0.337341
0.399302
0.459769
-5.40463
-5.39486
-5.38635
-5.37755
-5.36837
-5.35886
-5.34903
-5.33887
-5.32836
-5.31751
-5.3063
-5.29471
-5.28274
-5.27038
-5.2576
-5.24439
-5.23074
-5.21663
-5.20204
-5.18696
-5.17136
-5.15523
-5.13855
-5.1213
-5.10346
-5.08499
-5.06589
-5.04612
-5.02565
-5.00447
-4.98254
-4.95983
-4.93631
-4.91194
-4.8867
-4.86055
-4.83344
-4.80535
-4.77622
-4.74601
-4.71468
-4.68219
-4.64847
-4.61348
-4.57717
-4.53948
-4.50034
-4.45969
-4.41747
-4.37361
-4.32804
-4.28067
-4.23143
-4.18023
-4.12699
-4.0716
-4.01397
-3.954
-3.89157
-3.82657
-3.75888
-3.68839
-3.61495
-3.53843
-3.45871
-3.37564
-3.28906
-3.19884
-3.10481
-3.00682
-2.9047
-2.79826
-2.68734
-2.57173
-2.45296
-2.33437
-2.21769
-2.10293
-1.99011
-1.87924
-1.77033
-1.66338
-1.55839
-1.45537
-1.3543
-1.2552
-1.15804
-1.06283
-0.969545
-0.878182
-0.788723
-0.701153
-0.615455
-0.53161
-0.449597
-0.369394
-0.290979
-0.214329
-0.139418
-0.0662222
0.00528539
0.075131
0.143342
0.209944
0.274967
0.338437
0.400384
0.460834
0.519816
0.577358
-5.40463
-5.39483
-5.38631
-5.37749
-5.3683
-5.35878
-5.34893
-5.33875
-5.32823
-5.31736
-5.30613
-5.29453
-5.28254
-5.27016
-5.25736
-5.24413
-5.23046
-5.21632
-5.20171
-5.18661
-5.17099
-5.15484
-5.13814
-5.12086
-5.10299
-5.0845
-5.06536
-5.04556
-5.02507
-5.00386
-4.9819
-4.95915
-4.9356
-4.91121
-4.88593
-4.85975
-4.83261
-4.80448
-4.77532
-4.74509
-4.71373
-4.6812
-4.64745
-4.61244
-4.57609
-4.53836
-4.49919
-4.45851
-4.41626
-4.37237
-4.32676
-4.27935
-4.23008
-4.17884
-4.12557
-4.07015
-4.01249
-3.95249
-3.89004
-3.82502
-3.75733
-3.68683
-3.6134
-3.53691
-3.45721
-3.37418
-3.28766
-3.19749
-3.10353
-3.00561
-2.90356
-2.79719
-2.68634
-2.57079
-2.45207
-2.33352
-2.21686
-2.10211
-1.98929
-1.87841
-1.76948
-1.6625
-1.55748
-1.45443
-1.35333
-1.2542
-1.15701
-1.06177
-0.968465
-0.877081
-0.787604
-0.700018
-0.614308
-0.530452
-0.448432
-0.368225
-0.289808
-0.213157
-0.138249
-0.0650567
0.00644484
0.0762826
0.144483
0.211075
0.276085
0.33954
0.401471
0.461903
0.520866
0.578388
0.634497
0.689221
0.742588
0.794626
-5.40463
-5.39481
-5.38628
-5.37744
-5.36824
-5.3587
-5.34884
-5.33864
-5.32811
-5.31722
-5.30597
-5.29436
-5.28235
-5.26995
-5.25713
-5.24388
-5.23019
-5.21604
-5.20141
-5.18628
-5.17064
-5.15447
-5.13774
-5.12044
-5.10254
-5.08402
-5.06486
-5.04504
-5.02452
-5.00327
-4.98128
-4.95851
-4.93493
-4.9105
-4.8852
-4.85898
-4.83181
-4.80365
-4.77445
-4.74419
-4.7128
-4.68024
-4.64646
-4.61141
-4.57504
-4.53728
-4.49807
-4.45736
-4.41508
-4.37115
-4.32551
-4.27807
-4.22876
-4.1775
-4.12419
-4.06874
-4.01105
-3.95103
-3.88856
-3.82353
-3.75583
-3.68533
-3.6119
-3.53543
-3.45576
-3.37276
-3.28628
-3.19616
-3.10226
-3.00439
-2.9024
-2.7961
-2.68531
-2.56981
-2.45114
-2.33261
-2.21597
-2.10122
-1.98839
-1.8775
-1.76854
-1.66155
-1.5565
-1.45342
-1.3523
-1.25314
-1.15594
-1.06068
-0.967353
-0.875953
-0.786464
-0.698868
-0.61315
-0.52929
-0.447266
-0.367057
-0.288641
-0.211994
-0.13709
-0.0639037
0.00758997
0.0774183
0.145608
0.212187
0.277183
0.340623
0.402537
0.462951
0.521896
0.579397
0.635485
0.690187
0.743531
0.795546
-5.40464
-5.3948
-5.38625
-5.3774
-5.36818
-5.35863
-5.34875
-5.33854
-5.32799
-5.31709
-5.30583
-5.29419
-5.28217
-5.26975
-5.25692
-5.24365
-5.22994
-5.21577
-5.20112
-5.18597
-5.17031
-5.15411
-5.13736
-5.12004
-5.10212
-5.08358
-5.06439
-5.04454
-5.02399
-5.00272
-4.9807
-4.9579
-4.93429
-4.90983
-4.8845
-4.85825
-4.83105
-4.80286
-4.77363
-4.74333
-4.71191
-4.67932
-4.64551
-4.61043
-4.57402
-4.53623
-4.497
-4.45625
-4.41394
-4.36998
-4.32431
-4.27684
-4.2275
-4.17621
-4.12287
-4.06739
-4.00968
-3.94964
-3.88715
-3.82211
-3.7544
-3.6839
-3.61048
-3.53402
-3.45437
-3.3714
-3.28496
-3.19488
-3.10102
-3.00321
-2.90127
-2.79502
-2.68427
-2.56882
-2.45017
-2.33167
-2.21503
-2.10028
-1.98745
-1.87654
-1.76757
-1.66055
-1.55549
-1.45239
-1.35125
-1.25207
-1.15485
-1.05958
-0.96624
-0.874831
-0.785334
-0.697734
-0.612012
-0.52815
-0.446126
-0.36592
-0.287507
-0.210864
-0.135967
-0.062789
0.00869525
0.0785126
0.14669
0.213256
0.278237
0.341661
0.403558
0.463954
0.522879
0.580361
0.636428
0.691108
0.74443
0.796422
-5.40465
-5.39479
-5.38622
-5.37736
-5.36813
-5.35856
-5.34867
-5.33845
-5.32788
-5.31697
-5.30569
-5.29404
-5.282
-5.26957
-5.25672
-5.24343
-5.22971
-5.21552
-5.20085
-5.18568
-5.17
-5.15378
-5.13701
-5.11967
-5.10172
-5.08316
-5.06395
-5.04407
-5.0235
-5.0022
-4.98016
-4.95733
-4.93369
-4.90921
-4.88384
-4.85757
-4.83033
-4.80211
-4.77286
-4.74252
-4.71107
-4.67845
-4.64461
-4.6095
-4.57306
-4.53524
-4.49597
-4.4552
-4.41285
-4.36887
-4.32317
-4.27567
-4.22631
-4.17499
-4.12163
-4.06613
-4.00839
-3.94833
-3.88583
-3.82078
-3.75306
-3.68256
-3.60915
-3.5327
-3.45307
-3.37012
-3.28371
-3.19367
-3.09984
-3.00207
-2.90017
-2.79396
-2.68325
-2.56783
-2.44921
-2.33071
-2.21408
-2.09933
-1.98648
-1.87556
-1.76658
-1.65954
-1.55447
-1.45135
-1.3502
-1.25101
-1.15378
-1.0585
-0.965154
-0.87374
-0.78424
-0.696638
-0.610917
-0.527056
-0.445036
-0.364833
-0.286427
-0.209791
-0.134902
-0.061734
0.00973921
0.0795444
0.147709
0.21426
0.279225
0.342634
0.404513
0.464891
0.523797
0.58126
0.637306
0.691966
0.745266
0.797236
-5.40466
-5.39478
-5.3862
-5.37732
-5.36808
-5.3585
-5.3486
-5.33836
-5.32778
-5.31685
-5.30556
-5.2939
-5.28185
-5.2694
-5.25653
-5.24323
-5.22949
-5.21528
-5.2006
-5.18541
-5.16971
-5.15348
-5.13669
-5.11932
-5.10135
-5.08277
-5.06354
-5.04364
-5.02304
-5.00172
-4.97965
-4.9568
-4.93313
-4.90862
-4.88323
-4.85692
-4.82967
-4.80142
-4.77213
-4.74177
-4.71029
-4.67764
-4.64377
-4.60862
-4.57216
-4.5343
-4.49501
-4.45421
-4.41184
-4.36782
-4.32209
-4.27457
-4.22519
-4.17384
-4.12046
-4.06494
-4.00719
-3.94711
-3.8846
-3.81954
-3.75182
-3.68132
-3.60791
-3.53147
-3.45186
-3.36893
-3.28254
-3.19252
-3.09873
-3.00099
-2.89913
-2.79295
-2.68226
-2.56686
-2.44825
-2.32976
-2.21313
-2.09837
-1.98552
-1.87459
-1.76559
-1.65855
-1.55346
-1.45034
-1.34918
-1.24998
-1.15275
-1.05746
-0.964117
-0.872702
-0.783203
-0.695602
-0.609884
-0.526027
-0.444012
-0.363817
-0.285418
-0.208791
-0.133912
-0.0607554
0.0107056
0.0804976
0.148648
0.215184
0.280133
0.343525
0.405387
0.465747
0.524635
0.582078
0.638104
0.692744
0.746023
0.797971
0.848615
-5.40468
-5.39477
-5.38618
-5.37729
-5.36803
-5.35844
-5.34852
-5.33828
-5.32769
-5.31674
-5.30544
-5.29376
-5.2817
-5.26923
-5.25635
-5.24304
-5.22928
-5.21506
-5.20036
-5.18516
-5.16945
-5.15319
-5.13638
-5.119
-5.10101
-5.08241
-5.06316
-5.04323
-5.02262
-5.00127
-4.97918
-4.9563
-4.93261
-4.90808
-4.88266
-4.85633
-4.82905
-4.80077
-4.77146
-4.74108
-4.70957
-4.67689
-4.64299
-4.60782
-4.57132
-4.53344
-4.49412
-4.45329
-4.41089
-4.36685
-4.3211
-4.27356
-4.22414
-4.17278
-4.11937
-4.06384
-4.00607
-3.94598
-3.88346
-3.81839
-3.75067
-3.68017
-3.60677
-3.53034
-3.45073
-3.36782
-3.28145
-3.19146
-3.09769
-2.99998
-2.89813
-2.79198
-2.68131
-2.56593
-2.44733
-2.32884
-2.2122
-2.09744
-1.98458
-1.87365
-1.76465
-1.65759
-1.5525
-1.44937
-1.34821
-1.24901
-1.15177
-1.05649
-0.963145
-0.871732
-0.782236
-0.69464
-0.608927
-0.525077
-0.443069
-0.362882
-0.284492
-0.207876
-0.133009
-0.0598642
0.0115837
0.0813617
0.149497
0.216018
0.280952
0.344327
0.406171
0.466514
0.525383
0.582808
0.638815
0.693435
0.746694
0.798622
0.849245
-5.4047
-5.39477
-5.38616
-5.37726
-5.36799
-5.35839
-5.34846
-5.3382
-5.3276
-5.31664
-5.30533
-5.29364
-5.28156
-5.26908
-5.25619
-5.24286
-5.22909
-5.21485
-5.20014
-5.18492
-5.16919
-5.15293
-5.1361
-5.1187
-5.1007
-5.08208
-5.06281
-5.04287
-5.02223
-5.00087
-4.97875
-4.95586
-4.93214
-4.90759
-4.88215
-4.85579
-4.82849
-4.80018
-4.77085
-4.74044
-4.7089
-4.67619
-4.64227
-4.60707
-4.57055
-4.53265
-4.4933
-4.45245
-4.41002
-4.36596
-4.32018
-4.27262
-4.22318
-4.1718
-4.11838
-4.06282
-4.00505
-3.94494
-3.88241
-3.81734
-3.74961
-3.67912
-3.60572
-3.52929
-3.4497
-3.3668
-3.28044
-3.19047
-3.09672
-2.99903
-2.89721
-2.79107
-2.68041
-2.56504
-2.44644
-2.32796
-2.21132
-2.09656
-1.98369
-1.87275
-1.76375
-1.65669
-1.5516
-1.44847
-1.34731
-1.24811
-1.15087
-1.05559
-0.96225
-0.870842
-0.781352
-0.693762
-0.608056
-0.524214
-0.442215
-0.362038
-0.283659
-0.207054
-0.132199
-0.0590671
0.0123674
0.0821315
0.150252
0.216758
0.281676
0.345035
0.406863
0.467189
0.526041
0.583447
0.639436
0.694037
0.747277
0.799185
0.849789
-5.40472
-5.39477
-5.38615
-5.37723
-5.36795
-5.35834
-5.3484
-5.33812
-5.32751
-5.31655
-5.30522
-5.29352
-5.28143
-5.26894
-5.25603
-5.24269
-5.22891
-5.21466
-5.19993
-5.1847
-5.16896
-5.15268
-5.13584
-5.11842
-5.10041
-5.08177
-5.06249
-5.04253
-5.02188
-5.0005
-4.97836
-4.95545
-4.93172
-4.90714
-4.88168
-4.8553
-4.82797
-4.79965
-4.77029
-4.73985
-4.70829
-4.67556
-4.64161
-4.60639
-4.56985
-4.53192
-4.49255
-4.45167
-4.40923
-4.36514
-4.31934
-4.27176
-4.2223
-4.1709
-4.11746
-4.0619
-4.00411
-3.94399
-3.88145
-3.81638
-3.74865
-3.67815
-3.60476
-3.52834
-3.44875
-3.36587
-3.27952
-3.18957
-3.09583
-2.99815
-2.89634
-2.79022
-2.67957
-2.5642
-2.44561
-2.32713
-2.21049
-2.09573
-1.98286
-1.87192
-1.76292
-1.65586
-1.55077
-1.44764
-1.34648
-1.24729
-1.15005
-1.05478
-0.961442
-0.870041
-0.780557
-0.692976
-0.607278
-0.523446
-0.441457
-0.36129
-0.282923
-0.20633
-0.131486
-0.0583673
0.0130541
0.0828047
0.150912
0.217403
0.282307
0.34565
0.407463
0.467773
0.526608
0.583998
0.63997
0.694554
0.747777
0.799667
0.850252
0.899561
-5.40474
-5.39478
-5.38613
-5.37721
-5.36791
-5.35829
-5.34834
-5.33806
-5.32743
-5.31646
-5.30512
-5.29341
-5.28131
-5.2688
-5.25588
-5.24253
-5.22874
-5.21448
-5.19974
-5.1845
-5.16874
-5.15244
-5.13559
-5.11817
-5.10014
-5.08149
-5.06219
-5.04222
-5.02155
-5.00016
-4.97801
-4.95508
-4.93133
-4.90674
-4.88126
-4.85486
-4.82751
-4.79917
-4.76979
-4.73933
-4.70775
-4.675
-4.64103
-4.60578
-4.56922
-4.53126
-4.49187
-4.45097
-4.40851
-4.3644
-4.31858
-4.27098
-4.22151
-4.17009
-4.11663
-4.06105
-4.00325
-3.94313
-3.88059
-3.81551
-3.74778
-3.67728
-3.60389
-3.52747
-3.4479
-3.36502
-3.27868
-3.18874
-3.09502
-2.99735
-2.89555
-2.78943
-2.6788
-2.56344
-2.44485
-2.32637
-2.20973
-2.09497
-1.9821
-1.87116
-1.76216
-1.65511
-1.55002
-1.44689
-1.34574
-1.24655
-1.14932
-1.05405
-0.960727
-0.869334
-0.779859
-0.692286
-0.606599
-0.522776
-0.440798
-0.360642
-0.282286
-0.205705
-0.130873
-0.0577662
0.013643
0.0833811
0.151475
0.217954
0.282844
0.346175
0.407973
0.468269
0.52709
0.584465
0.640423
0.694991
0.748198
0.800072
0.850642
0.899934
-5.40476
-5.39478
-5.38612
-5.37718
-5.36788
-5.35824
-5.34828
-5.33799
-5.32736
-5.31637
-5.30503
-5.2933
-5.28119
-5.26868
-5.25575
-5.24239
-5.22858
-5.21431
-5.19955
-5.1843
-5.16853
-5.15223
-5.13537
-5.11793
-5.09989
-5.08122
-5.06191
-5.04193
-5.02125
-4.99984
-4.97768
-4.95474
-4.93098
-4.90637
-4.88088
-4.85446
-4.8271
-4.79874
-4.76934
-4.73886
-4.70726
-4.67449
-4.6405
-4.60524
-4.56865
-4.53068
-4.49127
-4.45035
-4.40786
-4.36374
-4.3179
-4.27028
-4.22079
-4.16936
-4.11589
-4.0603
-4.00249
-3.94236
-3.87981
-3.81472
-3.74699
-3.6765
-3.60311
-3.52669
-3.44712
-3.36425
-3.27793
-3.18799
-3.09428
-2.99662
-2.89483
-2.78872
-2.67809
-2.56274
-2.44415
-2.32567
-2.20904
-2.09428
-1.98142
-1.87048
-1.76148
-1.65444
-1.54935
-1.44624
-1.34509
-1.24591
-1.14869
-1.05343
-0.960109
-0.868725
-0.779259
-0.691697
-0.60602
-0.522208
-0.440241
-0.360096
-0.28175
-0.20518
-0.13036
-0.0572638
0.0141343
0.0838614
0.151945
0.218412
0.283291
0.34661
0.408397
0.468682
0.527491
0.584854
0.640799
0.695355
0.74855
0.800411
0.850967
0.900245
-5.40479
-5.39479
-5.38612
-5.37716
-5.36785
-5.3582
-5.34823
-5.33793
-5.32729
-5.3163
-5.30494
-5.29321
-5.28108
-5.26856
-5.25562
-5.24225
-5.22843
-5.21415
-5.19939
-5.18413
-5.16835
-5.15203
-5.13516
-5.11771
-5.09965
-5.08098
-5.06166
-5.04166
-5.02097
-4.99955
-4.97738
-4.95442
-4.93065
-4.90603
-4.88052
-4.8541
-4.82672
-4.79834
-4.76893
-4.73844
-4.70682
-4.67404
-4.64003
-4.60475
-4.56815
-4.53016
-4.49073
-4.4498
-4.40729
-4.36315
-4.3173
-4.26966
-4.22016
-4.16872
-4.11524
-4.05964
-4.00181
-3.94168
-3.87912
-3.81403
-3.74629
-3.6758
-3.60241
-3.526
-3.44643
-3.36357
-3.27725
-3.18732
-3.09362
-2.99597
-2.89419
-2.78808
-2.67746
-2.56211
-2.44353
-2.32506
-2.20843
-2.09367
-1.98082
-1.86989
-1.76089
-1.65386
-1.54878
-1.44567
-1.34453
-1.24536
-1.14815
-1.0529
-0.959589
-0.868215
-0.77876
-0.691209
-0.605542
-0.521741
-0.439785
-0.35965
-0.281315
-0.204755
-0.129945
-0.0568588
0.0145298
0.0842475
0.152322
0.21878
0.28365
0.34696
0.408739
0.469014
0.527815
0.585169
0.641105
0.695652
0.748837
0.800689
0.851235
0.900503
-5.40481
-5.3948
-5.38611
-5.37715
-5.36782
-5.35817
-5.34819
-5.33788
-5.32723
-5.31622
-5.30486
-5.29312
-5.28099
-5.26846
-5.25551
-5.24213
-5.2283
-5.21401
-5.19923
-5.18396
-5.16817
-5.15185
-5.13497
-5.11751
-5.09944
-5.08076
-5.06143
-5.04142
-5.02072
-4.99929
-4.97711
-4.95414
-4.93035
-4.90572
-4.8802
-4.85376
-4.82637
-4.79798
-4.76856
-4.73806
-4.70643
-4.67363
-4.63961
-4.60432
-4.5677
-4.5297
-4.49025
-4.44931
-4.40679
-4.36263
-4.31677
-4.26912
-4.21961
-4.16815
-4.11466
-4.05905
-4.00122
-3.94107
-3.87851
-3.81342
-3.74568
-3.67518
-3.60179
-3.52539
-3.44583
-3.36296
-3.27665
-3.18673
-3.09303
-2.99539
-2.89362
-2.78752
-2.67691
-2.56156
-2.44299
-2.32452
-2.2079
-2.09315
-1.9803
-1.86938
-1.76039
-1.65336
-1.5483
-1.4452
-1.34407
-1.2449
-1.14771
-1.05246
-0.959167
-0.867804
-0.778361
-0.69082
-0.605164
-0.521374
-0.439428
-0.359303
-0.280978
-0.204427
-0.129626
-0.0565482
0.0148323
0.0845423
0.152609
0.219061
0.283924
0.347228
0.409001
0.469271
0.528066
0.585415
0.641345
0.695886
0.749065
0.800911
0.851451
0.900713
-5.40484
-5.39481
-5.38611
-5.37713
-5.36779
-5.35813
-5.34815
-5.33783
-5.32717
-5.31616
-5.30478
-5.29303
-5.2809
-5.26836
-5.2554
-5.24201
-5.22818
-5.21388
-5.1991
-5.18382
-5.16802
-5.15168
-5.13479
-5.11732
-5.09925
-5.08056
-5.06122
-5.0412
-5.02049
-4.99905
-4.97686
-4.95388
-4.93008
-4.90543
-4.87991
-4.85346
-4.82606
-4.79766
-4.76822
-4.73771
-4.70607
-4.67326
-4.63923
-4.60392
-4.56729
-4.52928
-4.48983
-4.44887
-4.40634
-4.36218
-4.3163
-4.26864
-4.21912
-4.16765
-4.11415
-4.05853
-4.0007
-3.94055
-3.87798
-3.81288
-3.74514
-3.67464
-3.60126
-3.52485
-3.4453
-3.36244
-3.27613
-3.18621
-3.09253
-2.99489
-2.89312
-2.78704
-2.67643
-2.56109
-2.44253
-2.32407
-2.20745
-2.09271
-1.97987
-1.86895
-1.75998
-1.65296
-1.5479
-1.44481
-1.34369
-1.24454
-1.14736
-1.05213
-0.95884
-0.867489
-0.778057
-0.690527
-0.604882
-0.521102
-0.439166
-0.359051
-0.280735
-0.204192
-0.129398
-0.0563277
0.0150463
0.0847505
0.152812
0.219259
0.284118
0.347419
0.409188
0.469455
0.528248
0.585594
0.641522
0.696061
0.749238
0.801081
0.851618
0.900876
-5.40487
-5.39482
-5.3861
-5.37712
-5.36777
-5.3581
-5.34811
-5.33778
-5.32712
-5.3161
-5.30472
-5.29296
-5.28081
-5.26827
-5.2553
-5.24191
-5.22807
-5.21376
-5.19897
-5.18368
-5.16788
-5.15154
-5.13464
-5.11716
-5.09908
-5.08038
-5.06103
-5.041
-5.02028
-4.99883
-4.97663
-4.95364
-4.92983
-4.90518
-4.87964
-4.85318
-4.82577
-4.79736
-4.76792
-4.7374
-4.70575
-4.67293
-4.63889
-4.60357
-4.56694
-4.52891
-4.48945
-4.44848
-4.40595
-4.36177
-4.31589
-4.26822
-4.21869
-4.16722
-4.11371
-4.05809
-4.00024
-3.94009
-3.87752
-3.81242
-3.74468
-3.67418
-3.60079
-3.52439
-3.44484
-3.36199
-3.27568
-3.18577
-3.09209
-2.99446
-2.89271
-2.78663
-2.67603
-2.5607
-2.44214
-2.32369
-2.20708
-2.09235
-1.97952
-1.86861
-1.75965
-1.65264
-1.54759
-1.44452
-1.34341
-1.24427
-1.1471
-1.05188
-0.958603
-0.867264
-0.777843
-0.690325
-0.60469
-0.52092
-0.438993
-0.358887
-0.280579
-0.204044
-0.129257
-0.0561918
0.0151771
0.0848771
0.152935
0.219379
0.284237
0.347536
0.409305
0.469571
0.528364
0.58571
0.641639
0.696178
0.749356
0.801199
0.851737
0.900995
-5.4049
-5.39483
-5.3861
-5.3771
-5.36775
-5.35807
-5.34807
-5.33774
-5.32707
-5.31604
-5.30465
-5.29289
-5.28074
-5.26819
-5.25522
-5.24181
-5.22796
-5.21365
-5.19886
-5.18356
-5.16775
-5.1514
-5.13449
-5.11701
-5.09892
-5.08021
-5.06086
-5.04083
-5.0201
-4.99864
-4.97643
-4.95343
-4.92961
-4.90495
-4.87941
-4.85294
-4.82552
-4.7971
-4.76765
-4.73712
-4.70546
-4.67263
-4.63858
-4.60326
-4.56662
-4.52859
-4.48912
-4.44814
-4.4056
-4.36142
-4.31553
-4.26785
-4.21832
-4.16684
-4.11333
-4.0577
-3.99985
-3.93969
-3.87712
-3.81202
-3.74428
-3.67378
-3.6004
-3.524
-3.44445
-3.3616
-3.27531
-3.18541
-3.09173
-2.99411
-2.89236
-2.78629
-2.67571
-2.56038
-2.44184
-2.32339
-2.20679
-2.09207
-1.97925
-1.86835
-1.7594
-1.6524
-1.54737
-1.4443
-1.34321
-1.24408
-1.14692
-1.05171
-0.958451
-0.867123
-0.777714
-0.690206
-0.604582
-0.520821
-0.438903
-0.358805
-0.280504
-0.203975
-0.129194
-0.0561334
0.0152319
0.0849291
0.152986
0.219429
0.284286
0.347586
0.409356
0.469624
0.528419
0.585768
0.6417
0.696243
0.749424
0.801271
0.851811
0.901072
-5.40492
-5.39485
-5.38609
-5.37709
-5.36773
-5.35804
-5.34803
-5.3377
-5.32702
-5.31599
-5.3046
-5.29283
-5.28067
-5.26811
-5.25514
-5.24173
-5.22788
-5.21356
-5.19875
-5.18345
-5.16764
-5.15128
-5.13437
-5.11688
-5.09878
-5.08007
-5.0607
-5.04066
-5.01993
-4.99846
-4.97624
-4.95324
-4.92942
-4.90475
-4.8792
-4.85273
-4.8253
-4.79687
-4.76741
-4.73687
-4.70521
-4.67237
-4.63832
-4.60299
-4.56634
-4.5283
-4.48882
-4.44784
-4.40529
-4.36111
-4.31521
-4.26753
-4.21799
-4.16651
-4.11299
-4.05736
-3.99951
-3.93935
-3.87678
-3.81168
-3.74394
-3.67344
-3.60007
-3.52367
-3.44413
-3.36129
-3.275
-3.18511
-3.09144
-2.99383
-2.89209
-2.78603
-2.67545
-2.56014
-2.4416
-2.32317
-2.20658
-2.09186
-1.97905
-1.86817
-1.75923
-1.65224
-1.54722
-1.44417
-1.34309
-1.24397
-1.14682
-1.05163
-0.958378
-0.867061
-0.777662
-0.690165
-0.604551
-0.520799
-0.43889
-0.3588
-0.280505
-0.203982
-0.129205
-0.0561483
0.0152146
0.0849105
0.152967
0.21941
0.284269
0.347571
0.409344
0.469617
0.528416
0.585771
0.641708
0.696257
0.749444
0.801297
0.851844
0.901111
-5.40495
-5.39486
-5.38609
-5.37707
-5.3677
-5.35801
-5.348
-5.33766
-5.32698
-5.31594
-5.30455
-5.29277
-5.28061
-5.26805
-5.25507
-5.24166
-5.2278
-5.21347
-5.19866
-5.18336
-5.16753
-5.15117
-5.13425
-5.11676
-5.09866
-5.07993
-5.06056
-5.04052
-5.01978
-4.99831
-4.97608
-4.95307
-4.92925
-4.90457
-4.87901
-4.85254
-4.8251
-4.79667
-4.7672
-4.73666
-4.70499
-4.67214
-4.63808
-4.60275
-4.56609
-4.52805
-4.48857
-4.44758
-4.40503
-4.36084
-4.31494
-4.26726
-4.21771
-4.16623
-4.11271
-4.05708
-3.99923
-3.93907
-3.8765
-3.8114
-3.74366
-3.67317
-3.59979
-3.52341
-3.44387
-3.36103
-3.27475
-3.18487
-3.09121
-2.99361
-2.89188
-2.78583
-2.67526
-2.55996
-2.44143
-2.32301
-2.20643
-2.09173
-1.97893
-1.86806
-1.75913
-1.65216
-1.54715
-1.44411
-1.34304
-1.24394
-1.1468
-1.05162
-0.958378
-0.867072
-0.777684
-0.690197
-0.604592
-0.520848
-0.438946
-0.358862
-0.280573
-0.204054
-0.129281
-0.0562262
0.0151355
0.0848312
0.152888
0.219334
0.284196
0.347502
0.409279
0.469557
0.528363
0.585724
0.64167
0.696226
0.749422
0.801284
0.851839
0.901115
-5.40498
-5.39488
-5.38609
-5.37706
-5.36768
-5.35798
-5.34797
-5.33762
-5.32694
-5.3159
-5.3045
-5.29272
-5.28056
-5.26799
-5.25501
-5.24159
-5.22772
-5.21339
-5.19858
-5.18327
-5.16744
-5.15108
-5.13416
-5.11665
-5.09855
-5.07982
-5.06044
-5.0404
-5.01965
-4.99817
-4.97594
-4.95293
-4.9291
-4.90442
-4.87885
-4.85237
-4.82493
-4.79649
-4.76702
-4.73647
-4.70479
-4.67195
-4.63788
-4.60254
-4.56588
-4.52784
-4.48835
-4.44736
-4.4048
-4.36061
-4.3147
-4.26702
-4.21747
-4.16599
-4.11247
-4.05684
-3.99899
-3.93883
-3.87626
-3.81117
-3.74343
-3.67295
-3.59958
-3.52319
-3.44366
-3.36084
-3.27456
-3.18469
-3.09104
-2.99345
-2.89173
-2.78569
-2.67513
-2.55985
-2.44133
-2.32292
-2.20635
-2.09166
-1.97887
-1.86801
-1.7591
-1.65214
-1.54714
-1.44411
-1.34306
-1.24397
-1.14684
-1.05167
-0.958444
-0.867149
-0.77777
-0.690292
-0.604695
-0.520959
-0.439063
-0.358985
-0.2807
-0.204185
-0.129414
-0.0563606
0.0150008
0.0846974
0.152756
0.219205
0.284071
0.347382
0.409166
0.46945
0.528264
0.585634
0.641589
0.696156
0.749362
0.801234
0.851801
0.901088
-5.405
-5.39489
-5.38608
-5.37704
-5.36766
-5.35796
-5.34794
-5.33759
-5.3269
-5.31586
-5.30445
-5.29268
-5.28051
-5.26794
-5.25495
-5.24153
-5.22766
-5.21333
-5.19851
-5.1832
-5.16737
-5.151
-5.13407
-5.11656
-5.09845
-5.07972
-5.06034
-5.04029
-5.01954
-4.99806
-4.97582
-4.9528
-4.92897
-4.90428
-4.87871
-4.85222
-4.82478
-4.79634
-4.76686
-4.73631
-4.70463
-4.67178
-4.63771
-4.60237
-4.5657
-4.52765
-4.48816
-4.44717
-4.40461
-4.36041
-4.31451
-4.26682
-4.21727
-4.16579
-4.11227
-4.05664
-3.9988
-3.93864
-3.87607
-3.81098
-3.74325
-3.67277
-3.59941
-3.52303
-3.44351
-3.36069
-3.27443
-3.18456
-3.09093
-2.99335
-2.89164
-2.78561
-2.67507
-2.55979
-2.44129
-2.32289
-2.20633
-2.09165
-1.97888
-1.86803
-1.75913
-1.65218
-1.5472
-1.44418
-1.34314
-1.24406
-1.14695
-1.05179
-0.958569
-0.867284
-0.777914
-0.690444
-0.604854
-0.521125
-0.439235
-0.359161
-0.28088
-0.204367
-0.129597
-0.0565443
0.0148177
0.0845159
0.152578
0.21903
0.283901
0.347218
0.409009
0.469302
0.528125
0.585505
0.64147
0.696049
0.749267
0.801152
0.851732
0.901032
-5.40503
-5.39491
-5.38608
-5.37703
-5.36764
-5.35793
-5.34791
-5.33755
-5.32686
-5.31582
-5.30441
-5.29263
-5.28046