/*--------------------------------*- C++ -*----------------------------------*\
  =========                 |
  \\      /  F ield         | OpenFOAM: The Open Source CFD Toolbox
   \\    /   O peration     | Website:  https://openfoam.org
    \\  /    A nd           | Version:  10
     \\/     M anipulation  |
\*---------------------------------------------------------------------------*/
FoamFile
{
    format      ascii;
    class       surfaceScalarField;
    location    "6000";
    object      phi;
}
// * * * * * * * * * * * * * * * * * * * * * * * * * * * * * * * * * * * * * //

dimensions      [0 3 -1 0 0 0 0];

internalField   nonuniform List<scalar> 
35536
(
-2.07503e-09
-3.15969e-07
-5.84732e-09
-1.25433e-07
-9.90323e-09
-1.02605e-07
-1.40441e-08
-9.62291e-08
-1.81288e-08
-8.91793e-08
-2.20561e-08
-8.46098e-08
-2.58114e-08
-8.24558e-08
-2.94148e-08
-8.17442e-08
-3.2895e-08
-8.18673e-08
-3.62778e-08
-8.24996e-08
-3.95838e-08
-8.34651e-08
-4.2828e-08
-8.46652e-08
-4.6021e-08
-8.60411e-08
-4.91712e-08
-8.75556e-08
-5.22856e-08
-8.91836e-08
-5.53718e-08
-9.09068e-08
-5.84386e-08
-9.27113e-08
-6.14964e-08
-9.45854e-08
-6.45571e-08
-9.65188e-08
-6.76328e-08
-9.85021e-08
-7.07336e-08
-1.00526e-07
-7.38664e-08
-1.02579e-07
-7.70344e-08
-1.04653e-07
-8.02378e-08
-1.06735e-07
-8.34777e-08
-1.08814e-07
-8.67597e-08
-1.10877e-07
-9.00969e-08
-1.12912e-07
-9.35081e-08
-1.14906e-07
-9.70108e-08
-1.16843e-07
-1.00611e-07
-1.18707e-07
-1.04296e-07
-1.20478e-07
-1.08038e-07
-1.22127e-07
-1.11801e-07
-1.23622e-07
-1.15562e-07
-1.24919e-07
-1.19302e-07
-1.25951e-07
-1.23042e-07
-1.26579e-07
-1.2707e-07
-1.26509e-07
-1.32229e-07
-1.25235e-07
-1.40073e-07
-1.21791e-07
-1.52981e-07
-1.14226e-07
-1.7342e-07
-9.87893e-08
-1.98261e-07
-7.07988e-08
-2.06389e-07
-3.55215e-08
-1.86488e-07
-6.14435e-09
-1.61777e-07
4.39822e-09
-1.40407e-07
-1.53413e-08
-1.40075e-07
-4.33707e-08
-1.5743e-07
-6.83545e-08
-1.71482e-07
-9.59403e-08
-1.65329e-07
-1.29458e-07
-1.43118e-07
-1.47071e-07
-1.16565e-07
-1.51124e-07
-9.49387e-08
-1.433e-07
-8.09806e-08
-1.25914e-07
-7.46657e-08
-9.59644e-08
-7.5935e-08
-5.22475e-08
-8.24868e-08
1.22626e-09
-7.66735e-08
5.67365e-08
-4.26199e-08
1.1095e-07
2.3576e-08
1.61168e-07
1.01273e-07
2.15013e-07
1.74177e-07
2.65912e-07
2.35645e-07
3.08729e-07
2.846e-07
3.41658e-07
3.21632e-07
3.66708e-07
3.48352e-07
3.85151e-07
3.67007e-07
3.97559e-07
3.79572e-07
4.04341e-07
3.87232e-07
4.05808e-07
3.91108e-07
4.01532e-07
3.92158e-07
3.91765e-07
3.91635e-07
3.75563e-07
3.92025e-07
3.52337e-07
3.93706e-07
3.22001e-07
3.94165e-07
2.77164e-07
3.91466e-07
2.2566e-07
3.85447e-07
1.8247e-07
3.76576e-07
1.49128e-07
3.65562e-07
1.22704e-07
3.53572e-07
9.99613e-08
3.41659e-07
7.96075e-08
3.30363e-07
6.13489e-08
3.19896e-07
4.49738e-08
3.10248e-07
3.03098e-08
3.01311e-07
1.72075e-08
2.93052e-07
5.54659e-09
2.85326e-07
-4.68514e-09
2.78116e-07
-1.36941e-08
2.71323e-07
-2.13816e-08
2.64811e-07
-2.77721e-08
2.58425e-07
-3.28803e-08
2.51998e-07
-3.67141e-08
2.45384e-07
-3.92903e-08
2.38485e-07
-4.06458e-08
2.31276e-07
-4.08426e-08
2.23821e-07
-3.99678e-08
2.16262e-07
-3.81307e-08
2.08795e-07
-3.54554e-08
2.01648e-07
-3.20715e-08
-2.81279e-08
-2.42599e-09
-3.13549e-07
-7.27108e-09
-1.20594e-07
-1.20861e-08
-9.77941e-08
-1.68763e-08
-9.14405e-08
-2.15522e-08
-8.45038e-08
-2.5993e-08
-8.01686e-08
-3.01978e-08
-7.82502e-08
-3.42189e-08
-7.77214e-08
-3.81086e-08
-7.79739e-08
-4.19067e-08
-7.86947e-08
-4.56411e-08
-7.97198e-08
-4.93318e-08
-8.09586e-08
-5.29935e-08
-8.23581e-08
-5.6638e-08
-8.38848e-08
-6.02757e-08
-8.5516e-08
-6.39168e-08
-8.7235e-08
-6.75718e-08
-8.90286e-08
-7.12518e-08
-9.08853e-08
-7.49674e-08
-9.27947e-08
-7.8728e-08
-9.47466e-08
-8.25405e-08
-9.67304e-08
-8.64098e-08
-9.87348e-08
-9.03397e-08
-1.00748e-07
-9.43369e-08
-1.02756e-07
-9.84147e-08
-1.04744e-07
-1.02597e-07
-1.06697e-07
-1.06919e-07
-1.08596e-07
-1.11426e-07
-1.1042e-07
-1.16163e-07
-1.12147e-07
-1.21178e-07
-1.13749e-07
-1.26519e-07
-1.15193e-07
-1.32246e-07
-1.16444e-07
-1.38439e-07
-1.17461e-07
-1.45187e-07
-1.18199e-07
-1.52589e-07
-1.18584e-07
-1.60692e-07
-1.18514e-07
-1.69314e-07
-1.17914e-07
-1.77911e-07
-1.16647e-07
-1.85182e-07
-1.14493e-07
-1.88079e-07
-1.11258e-07
-1.8041e-07
-1.06426e-07
-1.53464e-07
-9.77813e-08
-1.09343e-07
-7.96821e-08
-6.68773e-08
-4.85269e-08
-4.97461e-08
-1.27612e-08
-7.75103e-08
1.22967e-08
-1.43125e-07
2.21697e-08
-2.31359e-07
1.9845e-08
-3.22802e-07
-4.51646e-09
-3.99198e-07
-5.31044e-08
-4.37263e-07
-1.09081e-07
-4.31815e-07
-1.56675e-07
-3.86481e-07
-1.88734e-07
-3.05632e-07
-2.06802e-07
-1.94344e-07
-2.0731e-07
-6.32059e-08
-1.83515e-07
6.78259e-08
-1.29925e-07
1.77264e-07
-5.26996e-08
2.41581e-07
4.67232e-08
2.53818e-07
1.48893e-07
2.45902e-07
2.22752e-07
2.34491e-07
2.77129e-07
2.22247e-07
3.20892e-07
2.11415e-07
3.52497e-07
2.05044e-07
3.73021e-07
2.03759e-07
3.86292e-07
2.06676e-07
3.94493e-07
2.12934e-07
3.97986e-07
2.21751e-07
3.96947e-07
2.32064e-07
3.9117e-07
2.43066e-07
3.80647e-07
2.53317e-07
3.65161e-07
2.61149e-07
3.44398e-07
2.65687e-07
3.17457e-07
2.65806e-07
2.77165e-07
2.59402e-07
2.32275e-07
2.47625e-07
1.94459e-07
2.35068e-07
1.61827e-07
2.24548e-07
1.33273e-07
2.16117e-07
1.08374e-07
2.09053e-07
8.66447e-08
2.02875e-07
6.75409e-08
1.97281e-07
5.0639e-08
1.9206e-07
3.56394e-08
1.87035e-07
2.23373e-08
1.82047e-07
1.05984e-08
1.76957e-07
4.05064e-10
1.71469e-07
-8.26991e-09
1.65437e-07
-1.54641e-08
1.58667e-07
-2.11474e-08
1.51005e-07
-2.53737e-08
1.42362e-07
-2.82188e-08
1.3273e-07
-2.97868e-08
1.22192e-07
-3.02138e-08
1.10929e-07
-2.96626e-08
9.92114e-08
-2.83133e-08
8.73897e-08
-2.63525e-08
7.58884e-08
-2.39788e-08
6.51731e-08
-2.1363e-08
-1.8655e-08
-2.2067e-09
-3.11332e-07
-6.69908e-09
-1.16056e-07
-1.12076e-08
-9.32244e-08
-1.57318e-08
-8.68607e-08
-2.02698e-08
-7.99263e-08
-2.47745e-08
-7.5644e-08
-2.92247e-08
-7.37969e-08
-3.36209e-08
-7.33331e-08
-3.79718e-08
-7.36362e-08
-4.22878e-08
-7.43934e-08
-4.65776e-08
-7.54427e-08
-5.08485e-08
-7.66963e-08
-5.51065e-08
-7.81031e-08
-5.9357e-08
-7.96314e-08
-6.3606e-08
-8.12594e-08
-6.78601e-08
-8.29712e-08
-7.21269e-08
-8.47537e-08
-7.64145e-08
-8.65952e-08
-8.07306e-08
-8.84842e-08
-8.50817e-08
-9.04092e-08
-8.94724e-08
-9.23579e-08
-9.39063e-08
-9.43167e-08
-9.83879e-08
-9.62714e-08
-1.02925e-07
-9.82068e-08
-1.07533e-07
-1.00107e-07
-1.12233e-07
-1.01955e-07
-1.17049e-07
-1.03734e-07
-1.22008e-07
-1.05422e-07
-1.27126e-07
-1.06997e-07
-1.32417e-07
-1.08431e-07
-1.37896e-07
-1.09687e-07
-1.43591e-07
-1.10724e-07
-1.49552e-07
-1.11486e-07
-1.55852e-07
-1.11903e-07
-1.62535e-07
-1.11919e-07
-1.69597e-07
-1.11467e-07
-1.7712e-07
-1.10396e-07
-1.85356e-07
-1.08405e-07
-1.9486e-07
-1.04975e-07
-2.06818e-07
-9.92966e-08
-2.23119e-07
-9.012e-08
-2.4504e-07
-7.58205e-08
-2.69159e-07
-5.55292e-08
-2.85732e-07
-3.19938e-08
-2.87443e-07
-1.10128e-08
-2.80496e-07
5.45629e-09
-2.74356e-07
1.61051e-08
-2.72765e-07
1.83447e-08
-2.88532e-07
1.13441e-08
-3.328e-07
-8.8003e-09
-3.97068e-07
-4.479e-08
-4.69992e-07
-8.37041e-08
-5.40188e-07
-1.1853e-07
-6.01364e-07
-1.45707e-07
-6.4637e-07
-1.62406e-07
-6.62767e-07
-1.67166e-07
-6.39412e-07
-1.53289e-07
-5.7365e-07
-1.1846e-07
-4.62961e-07
-6.3998e-08
-3.22468e-07
8.37782e-09
-1.93645e-07
9.39092e-08
-9.52036e-08
1.78682e-07
-2.32376e-08
2.48978e-07
2.72693e-08
3.02039e-07
5.95691e-08
3.4072e-07
7.85211e-08
3.67302e-07
8.97298e-08
3.83274e-07
9.66224e-08
3.91119e-07
1.01896e-07
3.91667e-07
1.06847e-07
3.86141e-07
1.11793e-07
3.75586e-07
1.16679e-07
3.60184e-07
1.21419e-07
3.3962e-07
1.25599e-07
3.13268e-07
1.28172e-07
2.74575e-07
1.28912e-07
2.31492e-07
1.28514e-07
1.94787e-07
1.271e-07
1.63153e-07
1.24688e-07
1.35606e-07
1.21561e-07
1.11452e-07
1.18062e-07
9.01289e-08
1.14408e-07
7.12081e-08
1.10683e-07
5.43939e-08
1.0685e-07
3.95014e-08
1.02783e-07
2.64254e-08
9.82865e-08
1.51077e-08
9.31983e-08
5.50914e-09
8.72856e-08
-2.32527e-09
8.03946e-08
-8.51469e-09
7.24995e-08
-1.31654e-08
6.36469e-08
-1.64113e-08
5.39739e-08
-1.8425e-08
4.36669e-08
-1.93625e-08
3.29755e-08
-1.94211e-08
2.21986e-08
-1.88093e-08
1.16512e-08
-1.77178e-08
1.63214e-09
-1.63129e-08
-7.62742e-09
-1.47196e-08
-1.59505e-08
-1.30563e-08
-1.1438e-08
-2.24693e-09
-3.09083e-07
-6.79659e-09
-1.11493e-07
-1.13561e-08
-8.86479e-08
-1.59294e-08
-8.22728e-08
-2.05395e-08
-7.53089e-08
-2.51539e-08
-7.10309e-08
-2.97574e-08
-6.92004e-08
-3.43515e-08
-6.87479e-08
-3.89432e-08
-6.90527e-08
-4.35389e-08
-6.98027e-08
-4.81431e-08
-7.08381e-08
-5.2759e-08
-7.20731e-08
-5.73886e-08
-7.34582e-08
-6.2034e-08
-7.49633e-08
-6.66972e-08
-7.65679e-08
-7.13811e-08
-7.82571e-08
-7.60887e-08
-8.00187e-08
-8.08223e-08
-8.18415e-08
-8.55833e-08
-8.37139e-08
-9.03712e-08
-8.56236e-08
-9.51844e-08
-8.75563e-08
-1.00023e-07
-8.94952e-08
-1.04891e-07
-9.14223e-08
-1.09798e-07
-9.33192e-08
-1.14761e-07
-9.51681e-08
-1.19801e-07
-9.69507e-08
-1.24937e-07
-9.86485e-08
-1.30182e-07
-1.00243e-07
-1.35535e-07
-1.01712e-07
-1.40987e-07
-1.03031e-07
-1.46528e-07
-1.04174e-07
-1.52147e-07
-1.05107e-07
-1.5783e-07
-1.05794e-07
-1.63539e-07
-1.06188e-07
-1.69228e-07
-1.06227e-07
-1.74862e-07
-1.05829e-07
-1.8036e-07
-1.0488e-07
-1.85448e-07
-1.03267e-07
-1.89501e-07
-1.00849e-07
-1.91359e-07
-9.7408e-08
-1.88782e-07
-9.27315e-08
-1.78082e-07
-8.65703e-08
-1.55003e-07
-7.86159e-08
-1.17882e-07
-6.91338e-08
-6.9865e-08
-5.91474e-08
-1.42194e-08
-5.03262e-08
4.69476e-08
-4.51293e-08
1.10468e-07
-4.51991e-08
1.72541e-07
-5.07825e-08
2.24559e-07
-6.08944e-08
2.51085e-07
-7.12854e-08
2.46636e-07
-7.91412e-08
2.13599e-07
-8.55002e-08
1.58168e-07
-9.03801e-08
8.70009e-08
-9.12406e-08
4.59826e-09
-8.46591e-08
-7.91364e-08
-6.94672e-08
-1.54327e-07
-4.32254e-08
-2.114e-07
-6.91247e-09
-2.41538e-07
3.84779e-08
-2.38419e-07
9.07876e-08
-2.07487e-07
1.47828e-07
-1.64195e-07
2.05772e-07
-1.20221e-07
2.58121e-07
-8.04447e-08
3.00966e-07
-4.67323e-08
3.3359e-07
-1.93665e-08
3.55935e-07
2.57981e-09
3.69245e-07
1.95099e-08
3.74778e-07
3.22506e-08
3.73347e-07
4.20353e-08
3.65693e-07
4.96763e-08
3.52475e-07
5.56079e-08
3.33719e-07
5.99366e-08
3.09051e-07
6.22821e-08
2.72356e-07
6.27327e-08
2.31114e-07
6.18318e-08
1.95685e-07
6.00097e-08
1.64922e-07
5.76782e-08
1.37869e-07
5.51523e-08
1.13917e-07
5.25812e-08
9.26604e-08
4.99416e-08
7.38325e-08
4.70916e-08
5.72435e-08
4.3798e-08
4.2792e-08
3.97768e-08
3.0426e-08
3.47715e-08
2.00689e-08
2.85987e-08
1.16172e-08
2.12456e-08
4.95064e-09
1.27483e-08
-9.88275e-11
3.26178e-09
-3.75956e-09
-7.01324e-09
-6.2141e-09
-1.78364e-08
-7.67654e-09
-2.88782e-08
-8.3929e-09
-3.97994e-08
-8.57109e-09
-5.0299e-08
-8.38062e-09
-6.01246e-08
-7.9615e-09
-6.90792e-08
-7.42435e-09
-7.70066e-08
-6.85373e-09
-8.38078e-08
-6.31108e-09
-8.9426e-08
-5.83863e-09
-9.39141e-08
-5.46524e-09
-9.73375e-08
-5.2072e-09
-9.97749e-08
-5.07106e-09
-5.06699e-09
-2.20289e-09
-3.0687e-07
-6.70567e-09
-1.06939e-07
-1.12054e-08
-8.40676e-08
-1.57014e-08
-7.76996e-08
-2.02559e-08
-7.06953e-08
-2.48663e-08
-6.63861e-08
-2.95223e-08
-6.45319e-08
-3.42199e-08
-6.40524e-08
-3.89588e-08
-6.43235e-08
-4.37402e-08
-6.5034e-08
-4.85648e-08
-6.60258e-08
-5.34329e-08
-6.72148e-08
-5.83442e-08
-6.85533e-08
-6.32982e-08
-7.00125e-08
-6.82943e-08
-7.15739e-08
-7.33314e-08
-7.32239e-08
-7.84068e-08
-7.49522e-08
-8.35152e-08
-7.67488e-08
-8.86495e-08
-7.86018e-08
-9.38057e-08
-8.04923e-08
-9.89848e-08
-8.23977e-08
-1.0419e-07
-8.42977e-08
-1.09424e-07
-8.61776e-08
-1.14688e-07
-8.80224e-08
-1.19993e-07
-8.98154e-08
-1.25349e-07
-9.15405e-08
-1.30766e-07
-9.31824e-08
-1.36251e-07
-9.47214e-08
-1.41808e-07
-9.61321e-08
-1.47436e-07
-9.73937e-08
-1.53124e-07
-9.8488e-08
-1.58862e-07
-9.93913e-08
-1.64622e-07
-1.00076e-07
-1.70353e-07
-1.00508e-07
-1.75975e-07
-1.00646e-07
-1.81378e-07
-1.00441e-07
-1.8642e-07
-9.98351e-08
-1.90934e-07
-9.87508e-08
-1.94707e-07
-9.70887e-08
-1.97394e-07
-9.4725e-08
-1.98553e-07
-9.15373e-08
-1.97608e-07
-8.74754e-08
-1.93703e-07
-8.25152e-08
-1.86177e-07
-7.66714e-08
-1.74964e-07
-7.03274e-08
-1.60852e-07
-6.43835e-08
-1.46135e-07
-5.98379e-08
-1.34159e-07
-5.7219e-08
-1.27965e-07
-5.70189e-08
-1.30534e-07
-5.83673e-08
-1.42797e-07
-5.90877e-08
-1.63128e-07
-5.89242e-08
-1.9014e-07
-5.85913e-08
-2.22491e-07
-5.80744e-08
-2.56734e-07
-5.70376e-08
-2.86286e-07
-5.51574e-08
-3.05493e-07
-5.02463e-08
-3.11649e-07
-3.70472e-08
-3.07553e-07
-1.10523e-08
-3.00849e-07
3.17233e-08
-2.91342e-07
8.12746e-08
-2.74833e-07
1.31311e-07
-2.49313e-07
1.80223e-07
-2.1761e-07
2.26391e-07
-1.83291e-07
2.66631e-07
-1.49088e-07
2.99403e-07
-1.17288e-07
3.24187e-07
-8.91112e-08
3.41125e-07
-6.49545e-08
3.50618e-07
-4.48357e-08
3.53112e-07
-2.86099e-08
3.49281e-07
-1.5859e-08
3.39567e-07
-6.18429e-09
3.2399e-07
6.74544e-10
3.02241e-07
4.68725e-09
2.68431e-07
6.386e-09
2.29493e-07
6.69901e-09
1.95425e-07
6.23435e-09
1.65409e-07
5.29703e-09
1.38793e-07
3.9775e-09
1.15195e-07
2.21288e-09
9.4372e-08
-1.58935e-10
7.61557e-08
-3.40078e-09
6.04511e-08
-7.78124e-09
4.71583e-08
-1.34708e-08
3.61254e-08
-2.05414e-08
2.71749e-08
-2.89545e-08
2.009e-08
-3.85445e-08
1.46192e-08
-4.90484e-08
1.0493e-08
-6.01846e-08
7.46188e-09
-7.15866e-08
5.25991e-09
-8.28857e-08
3.67434e-09
-9.37743e-08
2.5249e-09
-1.04006e-07
1.66848e-09
-1.13391e-07
9.95515e-10
-1.21796e-07
4.24387e-10
-1.29141e-07
-1.03385e-10
-1.35392e-07
-6.27753e-10
-1.40551e-07
-1.17423e-09
-1.44649e-07
-1.75712e-09
-1.4774e-07
-2.38318e-09
-1.49895e-07
-3.05435e-09
-1.51193e-07
-3.76616e-09
-4.5275e-09
-2.16473e-09
-3.04703e-07
-6.59223e-09
-1.02496e-07
-1.09999e-08
-7.96384e-08
-1.53655e-08
-7.33216e-08
-1.97874e-08
-6.62762e-08
-2.42917e-08
-6.18977e-08
-2.88764e-08
-5.997e-08
-3.3538e-08
-5.94145e-08
-3.82756e-08
-5.96065e-08
-4.30891e-08
-6.02347e-08
-4.79782e-08
-6.11414e-08
-5.29428e-08
-6.22433e-08
-5.79826e-08
-6.3494e-08
-6.30981e-08
-6.48665e-08
-6.82893e-08
-6.63441e-08
-7.3556e-08
-6.79162e-08
-7.8895e-08
-6.95756e-08
-8.43051e-08
-7.13103e-08
-8.97924e-08
-7.30987e-08
-9.53592e-08
-7.49227e-08
-1.00993e-07
-7.67715e-08
-1.06679e-07
-7.86277e-08
-1.12405e-07
-8.04724e-08
-1.18166e-07
-8.22884e-08
-1.2396e-07
-8.40579e-08
-1.29785e-07
-8.57621e-08
-1.35641e-07
-8.73807e-08
-1.41517e-07
-8.8897e-08
-1.4739e-07
-9.02933e-08
-1.5324e-07
-9.15488e-08
-1.59061e-07
-9.26452e-08
-1.64862e-07
-9.35591e-08
-1.70652e-07
-9.42603e-08
-1.76415e-07
-9.47318e-08
-1.82095e-07
-9.49603e-08
-1.87611e-07
-9.49186e-08
-1.92857e-07
-9.45749e-08
-1.97686e-07
-9.38962e-08
-2.01901e-07
-9.28474e-08
-2.05237e-07
-9.13894e-08
-2.07352e-07
-8.94748e-08
-2.07854e-07
-8.7052e-08
-2.06312e-07
-8.40901e-08
-2.02367e-07
-8.05899e-08
-1.9604e-07
-7.66342e-08
-1.88088e-07
-7.23625e-08
-1.80048e-07
-6.79187e-08
-1.73719e-07
-6.35218e-08
-1.71222e-07
-5.9423e-08
-1.74329e-07
-5.5189e-08
-1.83346e-07
-5.00892e-08
-1.98104e-07
-4.42081e-08
-2.18761e-07
-3.78996e-08
-2.45613e-07
-3.11364e-08
-2.78923e-07
-2.36623e-08
-3.18193e-07
-1.57868e-08
-3.60758e-07
-7.62762e-09
-3.98454e-07
6.48798e-10
-4.18392e-07
8.92673e-09
-4.10964e-07
2.43712e-08
-3.84492e-07
5.48393e-08
-3.54127e-07
1.00931e-07
-3.23989e-07
1.50042e-07
-2.92126e-07
1.94477e-07
-2.58478e-07
2.3298e-07
-2.24598e-07
2.65583e-07
-1.92105e-07
2.91771e-07
-1.62169e-07
3.11227e-07
-1.35507e-07
3.23923e-07
-1.12524e-07
3.30037e-07
-9.32428e-08
3.29887e-07
-7.74507e-08
3.23696e-07
-6.48555e-08
3.11365e-07
-5.52236e-08
2.92611e-07
-4.84168e-08
2.61653e-07
-4.38972e-08
2.25029e-07
-4.10137e-08
1.92604e-07
-3.93979e-08
1.63838e-07
-3.89262e-08
1.38336e-07
-3.96386e-08
1.15895e-07
-4.1677e-08
9.6377e-08
-4.522e-08
7.96484e-08
-5.03799e-08
6.55499e-08
-5.7159e-08
5.3873e-08
-6.54518e-08
4.43601e-08
-7.50386e-08
3.67187e-08
-8.56115e-08
3.06397e-08
-9.68165e-08
2.58191e-08
-1.08294e-07
2.19765e-08
-1.19694e-07
1.88691e-08
-1.30726e-07
1.62953e-08
-1.41155e-07
1.40969e-08
-1.50797e-07
1.21535e-08
-1.59526e-07
1.03766e-08
-1.67256e-07
8.7038e-09
-1.73946e-07
7.09325e-09
-1.79583e-07
5.51842e-09
-1.84185e-07
3.96462e-09
-1.87787e-07
2.42481e-09
-1.9044e-07
8.97596e-10
-1.92204e-07
-6.14535e-10
-1.93142e-07
-2.10834e-09
-1.93321e-07
-3.57719e-09
-5.0241e-09
-2.12314e-09
-3.02564e-07
-6.45224e-09
-9.81013e-08
-1.07105e-08
-7.52849e-08
-1.48919e-08
-6.90576e-08
-1.91202e-08
-6.19934e-08
-2.34392e-08
-5.75558e-08
-2.78558e-08
-5.55554e-08
-3.23684e-08
-5.49189e-08
-3.69758e-08
-5.50237e-08
-4.16782e-08
-5.55594e-08
-4.64767e-08
-5.63691e-08
-5.13729e-08
-5.737e-08
-5.63698e-08
-5.85158e-08
-6.14713e-08
-5.97797e-08
-6.66826e-08
-6.11456e-08
-7.20091e-08
-6.26034e-08
-7.74581e-08
-6.41435e-08
-8.30358e-08
-6.57536e-08
-8.87441e-08
-6.74137e-08
-9.45792e-08
-6.91085e-08
-1.00533e-07
-7.08283e-08
-1.0659e-07
-7.2562e-08
-1.12732e-07
-7.42996e-08
-1.1894e-07
-7.60296e-08
-1.25201e-07
-7.77382e-08
-1.31502e-07
-7.94088e-08
-1.37827e-07
-8.10224e-08
-1.44159e-07
-8.25567e-08
-1.50479e-07
-8.39865e-08
-1.56768e-07
-8.52866e-08
-1.63017e-07
-8.64331e-08
-1.69214e-07
-8.74093e-08
-1.75333e-07
-8.81957e-08
-1.81351e-07
-8.8762e-08
-1.87259e-07
-8.90768e-08
-1.93047e-07
-8.91237e-08
-1.98696e-07
-8.89033e-08
-2.04167e-07
-8.84128e-08
-2.0939e-07
-8.76379e-08
-2.14236e-07
-8.65602e-08
-2.18541e-07
-8.51627e-08
-2.22132e-07
-8.3436e-08
-2.24849e-07
-8.13778e-08
-2.26506e-07
-7.89836e-08
-2.26935e-07
-7.62489e-08
-2.26135e-07
-7.31687e-08
-2.24364e-07
-6.971e-08
-2.22147e-07
-6.57859e-08
-2.20345e-07
-6.12759e-08
-2.19524e-07
-5.60527e-08
-2.1957e-07
-5.0095e-08
-2.20336e-07
-4.35064e-08
-2.21893e-07
-3.63658e-08
-2.24429e-07
-2.85658e-08
-2.28214e-07
-1.98373e-08
-2.34312e-07
-9.68056e-09
-2.43669e-07
1.68182e-09
-2.562e-07
1.31439e-08
-2.7438e-07
2.7097e-08
-3.00156e-07
5.01126e-08
-3.26242e-07
8.08567e-08
-3.39211e-07
1.1382e-07
-3.36258e-07
1.4702e-07
-3.21492e-07
1.79694e-07
-2.99496e-07
2.1103e-07
-2.73508e-07
2.39662e-07
-2.46053e-07
2.64327e-07
-2.19014e-07
2.841e-07
-1.93655e-07
2.98414e-07
-1.70729e-07
3.06976e-07
-1.50574e-07
3.09654e-07
-1.33243e-07
3.06327e-07
-1.18625e-07
2.96726e-07
-1.06601e-07
2.80588e-07
-9.72787e-08
2.52365e-07
-9.0461e-08
2.18271e-07
-8.57486e-08
1.87957e-07
-8.29693e-08
1.61112e-07
-8.21072e-08
1.37512e-07
-8.3216e-08
1.17023e-07
-8.63382e-08
9.94986e-08
-9.14405e-08
8.47345e-08
-9.83769e-08
7.24627e-08
-1.06888e-07
6.23652e-08
-1.16631e-07
5.40974e-08
-1.27216e-07
4.73161e-08
-1.38249e-07
4.17022e-08
-1.4937e-07
3.6977e-08
-1.60266e-07
3.29091e-08
-1.70686e-07
2.93151e-08
-1.80434e-07
2.60559e-08
-1.89367e-07
2.30299e-08
-1.97387e-07
2.01659e-08
-2.04437e-07
1.7416e-08
-2.10492e-07
1.47502e-08
-2.15552e-07
1.21512e-08
-2.1964e-07
9.61099e-09
-2.22791e-07
7.12744e-09
-2.25051e-07
4.70246e-09
-2.26473e-07
2.34014e-09
-2.27111e-07
4.59057e-11
-2.27023e-07
-2.17622e-09
-2.26261e-07
-4.31984e-09
-2.24896e-07
-6.38065e-09
-8.36217e-09
-2.07995e-09
-3.00479e-07
-6.30801e-09
-9.38515e-08
-1.04374e-08
-7.11247e-08
-1.44528e-08
-6.50243e-08
-1.84876e-08
-5.79573e-08
-2.26045e-08
-5.34499e-08
-2.68188e-08
-5.13578e-08
-3.11325e-08
-5.06215e-08
-3.55461e-08
-5.06218e-08
-4.00602e-08
-5.10487e-08
-4.46763e-08
-5.17452e-08
-4.93973e-08
-5.2628e-08
-5.42284e-08
-5.36509e-08
-5.9177e-08
-5.47868e-08
-6.42531e-08
-5.60194e-08
-6.94684e-08
-5.7338e-08
-7.48351e-08
-5.87334e-08
-8.03662e-08
-6.01905e-08
-8.60733e-08
-6.16883e-08
-9.19585e-08
-6.3218e-08
-9.80141e-08
-6.47772e-08
-1.04225e-07
-6.63609e-08
-1.10576e-07
-6.79617e-08
-1.17052e-07
-6.95705e-08
-1.23638e-07
-7.11751e-08
-1.30317e-07
-7.27611e-08
-1.37063e-07
-7.43117e-08
-1.43839e-07
-7.58078e-08
-1.50605e-07
-7.72283e-08
-1.57327e-07
-7.85501e-08
-1.63988e-07
-7.97478e-08
-1.70585e-07
-8.07929e-08
-1.77121e-07
-8.16531e-08
-1.83578e-07
-8.23063e-08
-1.89915e-07
-8.27369e-08
-1.96112e-07
-8.29226e-08
-2.02189e-07
-8.28362e-08
-2.08169e-07
-8.2453e-08
-2.14043e-07
-8.1775e-08
-2.19785e-07
-8.08151e-08
-2.25384e-07
-7.95704e-08
-2.30824e-07
-7.80308e-08
-2.36053e-07
-7.61827e-08
-2.41014e-07
-7.40142e-08
-2.45697e-07
-7.15146e-08
-2.50148e-07
-6.86596e-08
-2.54425e-07
-6.53984e-08
-2.58569e-07
-6.1648e-08
-2.62574e-07
-5.72999e-08
-2.66396e-07
-5.22474e-08
-2.70057e-07
-4.64136e-08
-2.73729e-07
-3.9755e-08
-2.77788e-07
-3.22156e-08
-2.82624e-07
-2.3687e-08
-2.88401e-07
-1.40001e-08
-2.95064e-07
-2.91058e-09
-3.03334e-07
1.00695e-08
-3.15577e-07
2.54609e-08
-3.32312e-07
4.38378e-08
-3.47743e-07
6.55042e-08
-3.56608e-07
8.96422e-08
-3.58222e-07
1.1534e-07
-3.53176e-07
1.4194e-07
-3.42305e-07
1.68885e-07
-3.26495e-07
1.95338e-07
-3.06977e-07
2.20256e-07
-2.85176e-07
2.42568e-07
-2.62467e-07
2.61336e-07
-2.39966e-07
2.75805e-07
-2.18491e-07
2.85391e-07
-1.98579e-07
2.89648e-07
-1.80529e-07
2.88203e-07
-1.64508e-07
2.80659e-07
-1.50698e-07
2.66767e-07
-1.39588e-07
2.41283e-07
-1.3134e-07
2.10081e-07
-1.25754e-07
1.82447e-07
-1.22746e-07
1.58185e-07
-1.22279e-07
1.37114e-07
-1.24282e-07
1.19067e-07
-1.28588e-07
1.03812e-07
-1.34917e-07
9.10439e-08
-1.42894e-07
8.04065e-08
-1.52086e-07
7.15279e-08
-1.62054e-07
6.405e-08
-1.72387e-07
5.76518e-08
-1.82731e-07
5.20622e-08
-1.92797e-07
4.70639e-08
-2.0236e-07
4.24905e-08
-2.11254e-07
3.82198e-08
-2.19361e-07
3.41663e-08
-2.26603e-07
3.02724e-08
-2.32939e-07
2.65019e-08
-2.38353e-07
2.28338e-08
-2.4285e-07
1.92579e-08
-2.46454e-07
1.57713e-08
-2.49197e-07
1.23756e-08
-2.51122e-07
9.07531e-09
-2.52272e-07
5.87639e-09
-2.52697e-07
2.78504e-09
-2.52443e-07
-1.93371e-10
-2.51556e-07
-3.05306e-09
-2.50082e-07
-5.789e-09
-2.48066e-07
-8.39838e-09
-2.45549e-07
-1.08793e-08
-2.42579e-07
-1.32315e-08
-1.54606e-08
-2.0425e-09
-2.98421e-07
-6.20065e-09
-8.96435e-08
-1.0231e-08
-6.70357e-08
-1.41154e-08
-6.1099e-08
-1.79911e-08
-5.40656e-08
-2.19367e-08
-4.95116e-08
-2.59748e-08
-4.73421e-08
-3.01119e-08
-4.65147e-08
-3.43507e-08
-4.64163e-08
-3.86939e-08
-4.67391e-08
-4.31444e-08
-4.73265e-08
-4.77061e-08
-4.80947e-08
-5.23842e-08
-4.89971e-08
-5.71857e-08
-5.00058e-08
-6.21192e-08
-5.11037e-08
-6.7195e-08
-5.2279e-08
-7.24239e-08
-5.3522e-08
-7.78176e-08
-5.48152e-08
-8.33827e-08
-5.61404e-08
-8.91185e-08
-5.74931e-08
-9.50202e-08
-5.88727e-08
-1.01082e-07
-6.02763e-08
-1.07301e-07
-6.17001e-08
-1.13676e-07
-6.31389e-08
-1.20209e-07
-6.45858e-08
-1.26902e-07
-6.60317e-08
-1.33742e-07
-6.74643e-08
-1.40702e-07
-6.88681e-08
-1.47742e-07
-7.02242e-08
-1.54815e-07
-7.15105e-08
-1.61885e-07
-7.27027e-08
-1.68925e-07
-7.37738e-08
-1.7591e-07
-7.4694e-08
-1.82815e-07
-7.54311e-08
-1.89625e-07
-7.59494e-08
-1.96332e-07
-7.62178e-08
-2.02928e-07
-7.62248e-08
-2.09404e-07
-7.59605e-08
-2.15777e-07
-7.54058e-08
-2.22086e-07
-7.45318e-08
-2.28354e-07
-7.33331e-08
-2.34589e-07
-7.18167e-08
-2.40807e-07
-6.99701e-08
-2.47031e-07
-6.77768e-08
-2.53299e-07
-6.52225e-08
-2.59682e-07
-6.22861e-08
-2.66226e-07
-5.89227e-08
-2.72912e-07
-5.50574e-08
-2.79682e-07
-5.05984e-08
-2.86494e-07
-4.54588e-08
-2.93357e-07
-3.95597e-08
-3.00328e-07
-3.28035e-08
-3.07518e-07
-2.50582e-08
-3.15068e-07
-1.61687e-08
-3.23078e-07
-5.97961e-09
-3.31631e-07
5.68141e-09
-3.40674e-07
1.9145e-08
-3.49817e-07
3.45909e-08
-3.58112e-07
5.20749e-08
-3.64144e-07
7.14454e-08
-3.66955e-07
9.23504e-08
-3.66164e-07
1.14472e-07
-3.6168e-07
1.37429e-07
-3.53489e-07
1.60702e-07
-3.41785e-07
1.83653e-07
-3.27033e-07
2.05518e-07
-3.09922e-07
2.25466e-07
-2.91267e-07
2.42676e-07
-2.71878e-07
2.56389e-07
-2.52472e-07
2.65935e-07
-2.33638e-07
2.70741e-07
-2.15844e-07
2.70326e-07
-1.99509e-07
2.64252e-07
-1.8511e-07
2.52328e-07
-1.73466e-07
2.29642e-07
-1.65e-07
2.01664e-07
-1.59623e-07
1.77154e-07
-1.57232e-07
1.55892e-07
-1.57663e-07
1.37632e-07
-1.60649e-07
1.22109e-07
-1.65812e-07
1.08998e-07
-1.72697e-07
9.79274e-08
-1.80817e-07
8.85173e-08
-1.89705e-07
8.04108e-08
-1.98946e-07
7.3295e-08
-2.08199e-07
6.69119e-08
-2.17191e-07
6.10601e-08
-2.2572e-07
5.55892e-08
-2.33635e-07
5.03925e-08
-2.40834e-07
4.5398e-08
-2.47251e-07
4.05597e-08
-2.52849e-07
3.58505e-08
-2.57616e-07
3.12567e-08
-2.61558e-07
2.67733e-08
-2.64695e-07
2.24014e-08
-2.67057e-07
1.81457e-08
-2.68678e-07
1.40127e-08
-2.69597e-07
1.00098e-08
-2.69852e-07
6.14432e-09
-2.69482e-07
2.4232e-09
-2.68522e-07
-1.14957e-09
-2.67009e-07
-4.56642e-09
-2.64977e-07
-7.82488e-09
-2.62459e-07
-1.0923e-08
-2.59485e-07
-1.38599e-08
-2.56086e-07
-1.6636e-08
-2.52299e-07
-1.92524e-08
-2.17174e-08
-2.02032e-09
-2.96393e-07
-6.13257e-09
-8.55055e-08
-1.00819e-08
-6.30467e-08
-1.38375e-08
-5.73109e-08
-1.75514e-08
-5.03279e-08
-2.13196e-08
-4.57263e-08
-2.51738e-08
-4.34742e-08
-2.91244e-08
-4.255e-08
-3.31753e-08
-4.23472e-08
-3.73298e-08
-4.25598e-08
-4.15915e-08
-4.30316e-08
-4.59655e-08
-4.3679e-08
-5.04585e-08
-4.44552e-08
-5.50785e-08
-4.53325e-08
-5.98354e-08
-4.62936e-08
-6.47397e-08
-4.7327e-08
-6.98011e-08
-4.84232e-08
-7.50284e-08
-4.95646e-08
-8.04253e-08
-5.07352e-08
-8.59904e-08
-5.19331e-08
-9.17192e-08
-5.31574e-08
-9.7607e-08
-5.44048e-08
-1.03651e-07
-5.56711e-08
-1.09852e-07
-5.69513e-08
-1.16213e-07
-5.8239e-08
-1.22737e-07
-5.95267e-08
-1.29417e-07
-6.08051e-08
-1.36239e-07
-6.20634e-08
-1.43182e-07
-6.32882e-08
-1.50223e-07
-6.44634e-08
-1.57347e-07
-6.55691e-08
-1.64536e-07
-6.65812e-08
-1.7176e-07
-6.74727e-08
-1.78976e-07
-6.82144e-08
-1.86135e-07
-6.87764e-08
-1.9321e-07
-6.91281e-08
-2.0021e-07
-6.92351e-08
-2.07158e-07
-6.90575e-08
-2.14042e-07
-6.85754e-08
-2.20822e-07
-6.77725e-08
-2.27501e-07
-6.66222e-08
-2.34143e-07
-6.51073e-08
-2.40836e-07
-6.32151e-08
-2.47648e-07
-6.09421e-08
-2.54614e-07
-5.82813e-08
-2.61743e-07
-5.51975e-08
-2.69023e-07
-5.16489e-08
-2.76458e-07
-4.7591e-08
-2.84076e-07
-4.29662e-08
-2.91889e-07
-3.76895e-08
-2.99839e-07
-3.16533e-08
-3.07852e-07
-2.47476e-08
-3.15923e-07
-1.68682e-08
-3.24071e-07
-7.9036e-09
-3.32231e-07
2.25568e-09
-3.40299e-07
1.38107e-08
-3.47984e-07
2.68839e-08
-3.54893e-07
4.15066e-08
-3.6053e-07
5.76524e-08
-3.64371e-07
7.52128e-08
-3.66032e-07
9.39851e-08
-3.65209e-07
1.1367e-07
-3.61755e-07
1.3401e-07
-3.55555e-07
1.54522e-07
-3.46642e-07
1.74728e-07
-3.35194e-07
1.94032e-07
-3.21537e-07
2.1178e-07
-3.06135e-07
2.27275e-07
-2.89547e-07
2.39819e-07
-2.72372e-07
2.48755e-07
-2.5519e-07
2.53507e-07
-2.38556e-07
2.53609e-07
-2.23059e-07
2.48674e-07
-2.09381e-07
2.38598e-07
-1.98514e-07
2.18773e-07
-1.90974e-07
1.94171e-07
-1.86669e-07
1.72926e-07
-1.85394e-07
1.54697e-07
-1.86824e-07
1.39122e-07
-1.90529e-07
1.25845e-07
-1.9601e-07
1.1449e-07
-2.02757e-07
1.04679e-07
-2.10294e-07
9.60652e-08
-2.18212e-07
8.83493e-08
-2.26183e-07
8.12885e-08
-2.33951e-07
7.46971e-08
-2.41328e-07
6.84404e-08
-2.48176e-07
6.2426e-08
-2.54401e-07
5.65942e-08
-2.5994e-07
5.09099e-08
-2.64762e-07
4.53544e-08
-2.68854e-07
3.99205e-08
-2.7222e-07
3.46081e-08
-2.74877e-07
2.94218e-08
-2.76849e-07
2.43687e-08
-2.78165e-07
1.94574e-08
-2.78855e-07
1.46968e-08
-2.7895e-07
1.00955e-08
-2.7848e-07
5.66122e-09
-2.77473e-07
1.40067e-09
-2.75956e-07
-2.68339e-09
-2.73958e-07
-6.58238e-09
-2.71504e-07
-1.02957e-08
-2.6862e-07
-1.38224e-08
-2.6533e-07
-1.71624e-08
-2.61658e-07
-2.0317e-08
-2.5763e-07
-2.32883e-08
-2.53271e-07
-2.6079e-08
-2.48611e-07
-2.86927e-08
-3.11376e-08
-1.98545e-09
-2.94401e-07
-6.0363e-09
-8.14394e-08
-9.90406e-09
-5.91615e-08
-1.35338e-08
-5.36767e-08
-1.70876e-08
-4.67832e-08
-2.06742e-08
-4.21598e-08
-2.43364e-08
-3.98388e-08
-2.80912e-08
-3.88259e-08
-3.19469e-08
-3.85247e-08
-3.59093e-08
-3.86326e-08
-3.99834e-08
-3.89937e-08
-4.41739e-08
-3.95241e-08
-4.84854e-08
-4.01764e-08
-5.29233e-08
-4.09222e-08
-5.74937e-08
-4.17435e-08
-6.22046e-08
-4.26286e-08
-6.70634e-08
-4.35694e-08
-7.20763e-08
-4.45503e-08
-7.72459e-08
-4.55588e-08
-8.2572e-08
-4.65942e-08
-8.80518e-08
-4.7658e-08
-9.36823e-08
-4.87474e-08
-9.94625e-08
-4.98587e-08
-1.05395e-07
-5.09872e-08
-1.11487e-07
-5.21265e-08
-1.17746e-07
-5.32683e-08
-1.24172e-07
-5.44025e-08
-1.30758e-07
-5.55172e-08
-1.37483e-07
-5.65993e-08
-1.44329e-07
-5.76349e-08
-1.51283e-07
-5.86092e-08
-1.58343e-07
-5.95059e-08
-1.65509e-07
-6.03056e-08
-1.72766e-07
-6.09836e-08
-1.80079e-07
-6.15095e-08
-1.87401e-07
-6.18482e-08
-1.94689e-07
-6.1963e-08
-2.01909e-07
-6.182e-08
-2.09055e-07
-6.13892e-08
-2.16144e-07
-6.06398e-08
-2.23195e-07
-5.95465e-08
-2.3022e-07
-5.80903e-08
-2.37224e-07
-5.62373e-08
-2.44221e-07
-5.39577e-08
-2.51252e-07
-5.12352e-08
-2.58394e-07
-4.80384e-08
-2.65708e-07
-4.43482e-08
-2.73207e-07
-4.01411e-08
-2.80878e-07
-3.53574e-08
-2.88705e-07
-2.99169e-08
-2.96648e-07
-2.37385e-08
-3.04646e-07
-1.6745e-08
-3.12637e-07
-8.85274e-09
-3.20527e-07
1.841e-11
-3.28246e-07
9.99366e-09
-3.35621e-07
2.11826e-08
-3.42384e-07
3.36132e-08
-3.48262e-07
4.7299e-08
-3.52949e-07
6.22218e-08
-3.56134e-07
7.82961e-08
-3.57547e-07
9.5349e-08
-3.57013e-07
1.13136e-07
-3.54384e-07
1.31402e-07
-3.49548e-07
1.49699e-07
-3.42497e-07
1.67674e-07
-3.3329e-07
1.84829e-07
-3.22102e-07
2.00619e-07
-3.09237e-07
2.1445e-07
-2.95107e-07
2.25714e-07
-2.80202e-07
2.33834e-07
-2.65064e-07
2.38314e-07
-2.50288e-07
2.38764e-07
-2.36553e-07
2.3488e-07
-2.24629e-07
2.26649e-07
-2.15507e-07
2.09665e-07
-2.09627e-07
1.88333e-07
-2.06808e-07
1.70153e-07
-2.0672e-07
1.54639e-07
-2.08922e-07
1.41333e-07
-2.1291e-07
1.29833e-07
-2.18177e-07
1.19761e-07
-2.24258e-07
1.10779e-07
-2.30761e-07
1.026e-07
-2.37373e-07
9.49975e-08
-2.43856e-07
8.77987e-08
-2.50032e-07
8.08836e-08
-2.55772e-07
7.41739e-08
-2.60986e-07
6.76219e-08
-2.65616e-07
6.12014e-08
-2.69629e-07
5.49016e-08
-2.73012e-07
4.87214e-08
-2.75766e-07
4.26653e-08
-2.77906e-07
3.67414e-08
-2.79451e-07
3.09599e-08
-2.80424e-07
2.53316e-08
-2.8085e-07
1.98675e-08
-2.80752e-07
1.45776e-08
-2.80154e-07
9.47096e-09
-2.79076e-07
4.5552e-09
-2.77538e-07
-1.65148e-10
-2.75564e-07
-4.68422e-09
-2.73172e-07
-8.99697e-09
-2.70382e-07
-1.31031e-08
-2.67214e-07
-1.70023e-08
-2.63688e-07
-2.06951e-08
-2.59825e-07
-2.41833e-08
-2.55644e-07
-2.74691e-08
-2.51165e-07
-3.05559e-08
-2.46406e-07
-3.34474e-08
-2.41392e-07
-3.61479e-08
-2.36144e-07
-3.86624e-08
-2.30686e-07
-4.09956e-08
-2.25039e-07
-4.31524e-08
-4.51467e-08
-1.96869e-09
-2.92424e-07
-5.9663e-09
-7.74168e-08
-9.77366e-09
-5.53135e-08
-1.32959e-08
-5.01116e-08
-1.67046e-08
-4.33259e-08
-2.01102e-08
-3.87012e-08
-2.35658e-08
-3.63298e-08
-2.7097e-08
-3.52422e-08
-3.07171e-08
-3.4853e-08