/*--------------------------------*- C++ -*----------------------------------*\
  =========                 |
  \\      /  F ield         | OpenFOAM: The Open Source CFD Toolbox
   \\    /   O peration     | Website:  https://openfoam.org
    \\  /    A nd           | Version:  10
     \\/     M anipulation  |
\*---------------------------------------------------------------------------*/
FoamFile
{
    format      ascii;
    class       volScalarField;
    location    "65000";
    object      p;
}
// * * * * * * * * * * * * * * * * * * * * * * * * * * * * * * * * * * * * * //

dimensions      [0 2 -2 0 0 0 0];

internalField   nonuniform List<scalar> 
17969
(
-6.00449
-5.99474
-5.98717
-5.97909
-5.97026
-5.96077
-5.95065
-5.93986
-5.92809
-5.91502
-5.90044
-5.88435
-5.8668
-5.84788
-5.82769
-5.80655
-5.78474
-5.76214
-5.73862
-5.71426
-5.68912
-5.66319
-5.63644
-5.60884
-5.58036
-5.55097
-5.52063
-5.48933
-5.45702
-5.4237
-5.38933
-5.35388
-5.31733
-5.27964
-5.24078
-5.20073
-5.15945
-5.11691
-5.07307
-5.0279
-4.98136
-4.93342
-4.88404
-4.83317
-4.78077
-4.72681
-4.67123
-4.61399
-4.55505
-4.49435
-4.43185
-4.36748
-4.3012
-4.23296
-4.16268
-4.09032
-4.01581
-3.93909
-3.86009
-3.77875
-3.695
-3.60877
-3.51999
-3.42858
-3.33447
-3.23759
-3.13785
-3.03519
-2.92952
-2.82076
-2.70885
-2.59369
-2.47522
-2.35336
-2.22983
-2.10812
-1.98993
-1.87517
-1.7637
-1.65538
-1.5502
-1.44815
-1.34915
-1.25312
-1.15998
-1.06965
-0.982057
-0.897128
-0.814803
-0.73502
-0.657657
-0.58259
-0.509758
-0.439099
-0.370542
-0.30402
-0.239474
-0.176847
-0.116086
-0.0571416
-6.00212
-5.99243
-5.98487
-5.97689
-5.96836
-5.95939
-5.94994
-5.93986
-5.92908
-5.9176
-5.90526
-5.89173
-5.87678
-5.86034
-5.84243
-5.8231
-5.80238
-5.78039
-5.75744
-5.73376
-5.70921
-5.68366
-5.65717
-5.62982
-5.60159
-5.57247
-5.54243
-5.51143
-5.47945
-5.44645
-5.4124
-5.37728
-5.34105
-5.3037
-5.26519
-5.22548
-5.18454
-5.14235
-5.09886
-5.05404
-5.00786
-4.96027
-4.91123
-4.86071
-4.80866
-4.75504
-4.6998
-4.64289
-4.58427
-4.52389
-4.46169
-4.39762
-4.33162
-4.26364
-4.19362
-4.1215
-4.04721
-3.97069
-3.89187
-3.81069
-3.72706
-3.64093
-3.55221
-3.46083
-3.36671
-3.26977
-3.16994
-3.06713
-2.96127
-2.85226
-2.74003
-2.6245
-2.50558
-2.3832
-2.25908
-2.13674
-2.01788
-1.90243
-1.79022
-1.68114
-1.57519
-1.47237
-1.37259
-1.27578
-1.18186
-1.09076
-1.00239
-0.916699
-0.833608
-0.753067
-0.675021
-0.599337
-0.525859
-0.454529
-0.385316
-0.318155
-0.252981
-0.18974
-0.128378
-0.0688413
-6.00081
-5.99119
-5.98355
-5.97555
-5.96714
-5.95837
-5.94922
-5.93964
-5.92955
-5.91883
-5.90736
-5.89516
-5.88217
-5.86813
-5.85278
-5.83598
-5.81769
-5.79791
-5.77669
-5.75403
-5.73005
-5.70511
-5.67935
-5.6526
-5.62475
-5.59591
-5.56612
-5.53538
-5.50366
-5.47094
-5.4372
-5.40239
-5.36648
-5.32946
-5.29127
-5.25191
-5.21132
-5.16947
-5.12634
-5.08188
-5.03605
-4.98883
-4.94015
-4.88999
-4.8383
-4.78504
-4.73015
-4.67359
-4.61532
-4.55527
-4.4934
-4.42965
-4.36396
-4.29628
-4.22654
-4.15469
-4.08065
-4.00436
-3.92574
-3.84474
-3.76127
-3.67526
-3.58664
-3.49532
-3.40122
-3.30426
-3.20435
-3.10142
-2.99537
-2.88612
-2.77358
-2.65767
-2.5383
-2.41539
-2.29067
-2.16766
-2.0481
-1.93191
-1.81893
-1.70905
-1.60228
-1.49863
-1.39801
-1.30036
-1.20559
-1.11365
-1.02445
-0.937925
-0.85401
-0.772642
-0.693772
-0.617341
-0.543218
-0.47123
-0.401302
-0.333421
-0.267548
-0.203625
-0.141598
-0.0814117
-6.00013
-5.99053
-5.98284
-5.97482
-5.96645
-5.95777
-5.94876
-5.93939
-5.92962
-5.9194
-5.90865
-5.89727
-5.88513
-5.87221
-5.85855
-5.84395
-5.82812
-5.81088
-5.79214
-5.77185
-5.75001
-5.72666
-5.70181
-5.67562
-5.64844
-5.62034
-5.59111
-5.56076
-5.52937
-5.49692
-5.46343
-5.4289
-5.39329
-5.35658
-5.31873
-5.27971
-5.23947
-5.19798
-5.15521
-5.11112
-5.06567
-5.01882
-4.97053
-4.92075
-4.86944
-4.81655
-4.76204
-4.70586
-4.64795
-4.58826
-4.52675
-4.46334
-4.398
-4.33064
-4.26121
-4.18966
-4.1159
-4.03987
-3.9615
-3.88072
-3.79744
-3.71159
-3.6231
-3.53187
-3.43782
-3.34087
-3.24092
-3.13789
-3.03169
-2.92222
-2.80939
-2.69311
-2.57329
-2.44984
-2.3245
-2.20081
-2.08053
-1.96357
-1.8498
-1.73908
-1.63144
-1.5269
-1.4254
-1.32684
-1.23117
-1.13832
-1.04822
-0.960808
-0.876008
-0.79376
-0.714007
-0.636702
-0.561789
-0.489118
-0.418496
-0.349848
-0.283195
-0.218521
-0.155765
-0.0948696
-0.035782
0.0215465
0.0771626
0.131112
-5.99964
-5.99003
-5.98231
-5.97426
-5.96589
-5.95724
-5.94829
-5.93901
-5.92939
-5.91939
-5.90898
-5.89809
-5.88667
-5.87462
-5.86184
-5.84821
-5.83375
-5.81842
-5.80197
-5.78414
-5.7648
-5.74387
-5.72132
-5.69717
-5.67146
-5.64422
-5.6156
-5.58595
-5.55534
-5.52354
-5.49052
-5.45637
-5.4211
-5.38473
-5.34723
-5.30857
-5.26871
-5.22761
-5.18523
-5.14154
-5.09649
-5.05004
-5.00215
-4.95278
-4.90188
-4.84939
-4.79529
-4.7395
-4.68199
-4.6227
-4.56156
-4.49854
-4.43356
-4.36656
-4.29748
-4.22625
-4.15281
-4.07708
-3.99899
-3.91847
-3.83542
-3.74978
-3.66145
-3.57036
-3.4764
-3.3795
-3.27954
-3.17645
-3.07013
-2.96046
-2.84737
-2.73074
-2.61049
-2.48651
-2.36055
-2.23617
-2.11514
-1.99739
-1.8828
-1.77121
-1.66267
-1.55721
-1.45476
-1.35525
-1.25862
-1.16481
-1.07374
-0.98537
-0.899622
-0.816435
-0.735749
-0.65751
-0.581675
-0.508189
-0.436848
-0.367416
-0.299911
-0.234408
-0.170858
-0.109192
-0.0493564
0.00869706
0.0650156
0.119645
-5.99916
-5.98952
-5.98175
-5.97366
-5.96526
-5.9566
-5.94764
-5.93838
-5.92879
-5.91885
-5.90855
-5.89785
-5.88672
-5.8751
-5.86293
-5.85013
-5.83659
-5.82217
-5.80683
-5.7906
-5.77332
-5.75474
-5.73465
-5.71298
-5.68965
-5.66467
-5.63806
-5.60987
-5.58014
-5.54905
-5.51691
-5.48368
-5.44917
-5.41339
-5.37639
-5.33818
-5.29875
-5.25809
-5.21615
-5.1729
-5.12829
-5.08228
-5.03483
-4.9859
-4.93543
-4.88338
-4.8297
-4.77435
-4.71726
-4.65838
-4.59767
-4.53505
-4.47047
-4.40386
-4.33516
-4.26431
-4.19122
-4.11583
-4.03806
-3.95784
-3.87507
-3.78967
-3.70156
-3.61065
-3.51683
-3.42002
-3.32011
-3.217
-3.11059
-3.00078
-2.88745
-2.77051
-2.64985
-2.52535
-2.39878
-2.2737
-2.1519
-2.03335
-1.91791
-1.80545
-1.69598
-1.58955
-1.48611
-1.38559
-1.28795
-1.19311
-1.10103
-1.01163
-0.924872
-0.840683
-0.759008
-0.67979
-0.602982
-0.528546
-0.45632
-0.38606
-0.317693
-0.251298
-0.186886
-0.124391
-0.0637538
-0.00492382
0.0521463
0.107503
-5.99867
-5.989
-5.98118
-5.97304
-5.9646
-5.95589
-5.94689
-5.9376
-5.92798
-5.91803
-5.90774
-5.89707
-5.886
-5.8745
-5.86255
-5.85008
-5.83704
-5.82335
-5.80892
-5.79363
-5.77735
-5.76006
-5.74177
-5.72229
-5.70137
-5.67888
-5.65475
-5.62897
-5.60151
-5.57242
-5.54175
-5.5095
-5.47586
-5.44112
-5.40518
-5.36784
-5.32912
-5.28906
-5.24767
-5.20494
-5.16083
-5.11532
-5.06835
-5.01989
-4.96989
-4.91831
-4.8651
-4.8102
-4.75356
-4.69514
-4.63487
-4.57269
-4.50854
-4.44236
-4.37408
-4.30364
-4.23095
-4.15594
-4.07854
-3.99866
-3.91622
-3.83112
-3.74328
-3.65259
-3.55897
-3.4623
-3.36249
-3.25942
-3.15298
-3.04306
-2.92955
-2.81233
-2.69129
-2.56631
-2.43914
-2.31337
-2.1908
-2.07142
-1.95512
-1.84177
-1.73136
-1.62392
-1.51946
-1.41789
-1.31918
-1.22327
-1.1301
-1.03962
-0.951776
-0.866515
-0.783783
-0.703524
-0.625688
-0.550241
-0.477031
-0.405797
-0.336464
-0.269132
-0.203815
-0.140443
-0.0789561
-0.0193027
0.0385653
0.0946941
0.149129
-5.99824
-5.98853
-5.98066
-5.97246
-5.96397
-5.95521
-5.94617
-5.93683
-5.92717
-5.91717
-5.90684
-5.89613
-5.88505
-5.87358
-5.86168
-5.84931
-5.83646
-5.82305
-5.80905
-5.79438
-5.77894
-5.76266
-5.74539
-5.72705
-5.70765
-5.68712
-5.66528
-5.64194
-5.617
-5.59041
-5.56213
-5.53217
-5.50053
-5.46724
-5.43235
-5.39606
-5.35851
-5.31957
-5.27912
-5.23716
-5.19373
-5.14882
-5.10243
-5.05451
-5.00504
-4.95397
-4.90125
-4.84685
-4.7907
-4.73276
-4.67297
-4.61126
-4.54758
-4.48187
-4.41405
-4.34405
-4.2718
-4.19723
-4.12024
-4.04076
-3.95869
-3.87394
-3.78643
-3.69603
-3.60266
-3.5062
-3.40654
-3.30357
-3.19717
-3.08721
-2.97357
-2.85613
-2.73476
-2.60933
-2.48159
-2.35514
-2.23181
-2.11159
-1.9944
-1.88015
-1.76879
-1.66033
-1.5548
-1.45215
-1.35233
-1.25528
-1.16097
-1.06935
-0.980358
-0.893958
-0.810099
-0.728725
-0.649795
-0.573273
-0.498955
-0.426592
-0.356216
-0.287922
-0.221666
-0.157377
-0.0949972
-0.0344773
0.0242315
0.0811759
0.136401
0.189951
0.241868
-5.99789
-5.98816
-5.98023
-5.972
-5.96347
-5.95467
-5.94558
-5.93619
-5.92649
-5.91646
-5.90608
-5.89535
-5.88424
-5.87273
-5.86082
-5.84847
-5.83566
-5.82237
-5.80855
-5.79415
-5.77913
-5.76342
-5.74694
-5.7296
-5.7113
-5.69192
-5.6714
-5.64975
-5.62689
-5.60262
-5.57679
-5.54933
-5.52017
-5.48927
-5.45662
-5.4222
-5.38602
-5.34821
-5.30899
-5.2683
-5.226
-5.18204
-5.13646
-5.08926
-5.04045
-4.98999
-4.93786
-4.88401
-4.82841
-4.77099
-4.71172
-4.65054
-4.58737
-4.52217
-4.45485
-4.38535
-4.31359
-4.23949
-4.16297
-4.08394
-4.0023
-3.91797
-3.83084
-3.7408
-3.64774
-3.55156
-3.45213
-3.34933
-3.24303
-3.13309
-3.0194
-2.9018
-2.78016
-2.65435
-2.52608
-2.399
-2.27492
-2.15385
-2.03575
-1.92057
-1.80824
-1.69874
-1.59212
-1.48834
-1.38737
-1.28916
-1.19366
-1.10084
-1.01064
-0.923033
-0.837971
-0.755407
-0.675308
-0.59757
-0.521987
-0.448467
-0.377062
-0.30777
-0.240528
-0.175273
-0.111954
-0.0505202
0.00907649
0.0668825
0.122943
0.177301
0.23
0.281083
-5.99764
-5.98788
-5.97992
-5.97166
-5.9631
-5.95426
-5.94515
-5.93573
-5.926
-5.91594
-5.90553
-5.89478
-5.88365
-5.87213
-5.8602
-5.84785
-5.83505
-5.82179
-5.80804
-5.79376
-5.77893
-5.7635
-5.74742
-5.73063
-5.71306
-5.69463
-5.67524
-5.6548
-5.6332
-5.61037
-5.58634
-5.56099
-5.53414
-5.50566
-5.47546
-5.44346
-5.40963
-5.37393
-5.33636
-5.29698
-5.25597
-5.21338
-5.1691
-5.12305
-5.07522
-5.02564
-4.9743
-4.92118
-4.86624
-4.80946
-4.7508
-4.69021
-4.62762
-4.56299
-4.49624
-4.42727
-4.35605
-4.2825
-4.20651
-4.12797
-4.04684
-3.963
-3.87633
-3.7867
-3.69403
-3.5982
-3.49908
-3.39652
-3.2904
-3.18058
-3.06692
-2.94924
-2.82742
-2.70129
-2.57257
-2.4449
-2.32012
-2.19823
-2.07921
-1.96305
-1.84972
-1.73918
-1.63141
-1.52643
-1.42424
-1.32481
-1.2281
-1.13405
-1.04262
-0.953785
-0.867475
-0.783612
-0.70217
-0.623112
-0.546318
-0.471682
-0.399189
-0.328823
-0.260529
-0.194249
-0.129931
-0.0675267
-0.00698732
0.0517329
0.108679
0.163894
0.217422
0.269306
0.319588
0.368309
-5.99748
-5.98769
-5.97971
-5.97143
-5.96285
-5.954
-5.94486
-5.93543
-5.92568
-5.9156
-5.90519
-5.89442
-5.88328
-5.87176
-5.85983
-5.84749
-5.83471
-5.82147
-5.80775
-5.79353
-5.77878
-5.76348
-5.74759
-5.73108
-5.71389
-5.69597
-5.67725
-5.65766
-5.63711
-5.61551
-5.59277
-5.56877
-5.54344
-5.51676
-5.48866
-5.45895
-5.42749
-5.3942
-5.359
-5.32184
-5.28269
-5.24161
-5.19874
-5.15417
-5.10781
-5.05955
-5.00939
-4.95732
-4.90333
-4.84743
-4.78957
-4.72972
-4.66785
-4.60389
-4.5378
-4.4695
-4.39893
-4.326
-4.25064
-4.17261
-4.09198
-4.00878
-3.92264
-3.8335
-3.74129
-3.64592
-3.5472
-3.44498
-3.33913
-3.22953
-3.11599
-2.99834
-2.87641
-2.75005
-2.62097
-2.4928
-2.36739
-2.24475
-2.12487
-2.00774
-1.89336
-1.78172
-1.67282
-1.56668
-1.46328
-1.3626
-1.26462
-1.16927
-1.0765
-0.986273
-0.898586
-0.813372
-0.730593
-0.65023
-0.572214
-0.49642
-0.42276
-0.351225
-0.281795
-0.214415
-0.149029
-0.085589
-0.0240461
0.0356459
0.0935318
0.149656
0.204061
0.256791
0.307889
0.357395
0.405354
0.451805
0.49679
0.540349
-5.99739
-5.98757
-5.97959
-5.9713
-5.96271
-5.95385
-5.9447
-5.93526
-5.92551
-5.91543
-5.90501
-5.89424
-5.8831
-5.87159
-5.85967
-5.84734
-5.83458
-5.82137
-5.80769
-5.79351
-5.77882
-5.7636
-5.74781
-5.73143
-5.71442
-5.69675
-5.67838
-5.65925
-5.6393
-5.61845
-5.59663
-5.57375
-5.5497
-5.52439
-5.49772
-5.46958
-5.43992
-5.40868
-5.37573
-5.3409
-5.30411
-5.26531
-5.22444
-5.18155
-5.13679
-5.09017
-5.04159
-4.99098
-4.93833
-4.88364
-4.82691
-4.76811
-4.7072
-4.64415
-4.57891
-4.51141
-4.4416
-4.3694
-4.29472
-4.2175
-4.13764
-4.05502
-3.96955
-3.88097
-3.78921
-3.69438
-3.5962
-3.49439
-3.38891
-3.27964
-3.16636
-3.04884
-2.92692
-2.80046
-2.67114
-2.54258
-2.41663
-2.29332
-2.17266
-2.05466
-1.93931
-1.82662
-1.71661
-1.60926
-1.5046
-1.4026
-1.30325
-1.20652
-1.11238
-1.0208
-0.931722
-0.845086
-0.76088
-0.679098
-0.599708
-0.522612
-0.447697
-0.374931
-0.304302
-0.235758
-0.169244
-0.104709
-0.0421053
0.0186134
0.0774925
0.134576
0.189908
0.243531
0.295488
0.345822
0.394574
0.441788
0.487503
0.531762
-5.99737
-5.98752
-5.97954
-5.97124
-5.96265
-5.95379
-5.94465
-5.93521
-5.92546
-5.91538
-5.90497
-5.89421
-5.88308
-5.87158
-5.85968
-5.84737
-5.83463
-5.82145
-5.80781
-5.79368
-5.77904
-5.76387
-5.74816
-5.73186
-5.71496
-5.69743
-5.67924
-5.66033
-5.64069
-5.62024
-5.59894
-5.57672
-5.55348
-5.52915
-5.50363
-5.47681
-5.4486
-5.41889
-5.38758
-5.35456
-5.31978
-5.28315
-5.24457
-5.2039
-5.16113
-5.11635
-5.06957
-5.02072
-4.96974
-4.91664
-4.8614
-4.80399
-4.74439
-4.68257
-4.61847
-4.55205
-4.48326
-4.41202
-4.33826
-4.2619
-4.1828
-4.10095
-4.01624
-3.92846
-3.83756
-3.74339
-3.64578
-3.54452
-3.43952
-3.33075
-3.21791
-3.10059
-2.97869
-2.85221
-2.7228
-2.59396
-2.46758
-2.34371
-2.22236
-2.10355
-1.98728
-1.87358
-1.76246
-1.65394
-1.54802
-1.44469
-1.34396
-1.24579
-1.15018
-1.05711
-0.966541
-0.878455
-0.792823
-0.709609
-0.628765
-0.550235
-0.473965
-0.399913
-0.32803
-0.258263
-0.190562
-0.124876
-0.0611566
0.000641525
0.0605642
0.118656
0.174959
0.229519
0.282376
0.333576
0.383158
0.431167
0.477644
0.52263
-5.99738
-5.9875
-5.97954
-5.97124
-5.96266
-5.9538
-5.94466
-5.93523
-5.92549
-5.91543
-5.90503
-5.89428
-5.88317
-5.87169
-5.85981
-5.84753
-5.83482
-5.82167
-5.80806
-5.79398
-5.77939
-5.76428
-5.74863
-5.73241
-5.7156
-5.69816
-5.68008
-5.66131
-5.64183
-5.6216
-5.60057
-5.57869
-5.55591
-5.53216
-5.50735
-5.4814
-5.45421
-5.42567
-5.39571
-5.36419
-5.33102
-5.29611
-5.25935
-5.22067
-5.17998
-5.13725
-5.09244
-5.04552
-4.99644
-4.94518
-4.89172
-4.83601
-4.77804
-4.71775
-4.65512
-4.5901
-4.52262
-4.45263
-4.38005
-4.30482
-4.2268
-4.14593
-4.06215
-3.97529
-3.88523
-3.79182
-3.69483
-3.5942
-3.4899
-3.3818
-3.26966
-3.15296
-3.03139
-2.90502
-2.7756
-2.64658
-2.51987
-2.39556
-2.27362
-2.15408
-2.03696
-1.92228
-1.81008
-1.70038
-1.59319
-1.48852
-1.38638
-1.28678
-1.18969
-1.09512
-1.00304
-0.913434
-0.826283
-0.74156
-0.65923
-0.579252
-0.501577
-0.426159
-0.352947
-0.28189
-0.212939
-0.146042
-0.0811513
-0.0182206
0.0427956
0.101942
0.159261
0.214798
0.268594
0.320693
0.371139
0.419973
0.467238
0.512976
-5.99742
-5.98752
-5.97957
-5.97128
-5.9627
-5.95386
-5.94473
-5.93531
-5.92558
-5.91553
-5.90515
-5.89442
-5.88334
-5.87188
-5.86002
-5.84777
-5.83509
-5.82198
-5.80841
-5.79437
-5.77983
-5.76478
-5.74919
-5.73304
-5.71631
-5.69896
-5.68097
-5.66231
-5.64295
-5.62286
-5.60199
-5.58031
-5.55778
-5.53434
-5.50993
-5.4845
-5.45795
-5.43021
-5.40116
-5.37072
-5.33877
-5.30523
-5.26999
-5.23295
-5.19401
-5.15312
-5.1102
-5.0652
-5.01805
-4.96872
-4.91715
-4.8633
-4.80714
-4.74862
-4.68769
-4.6243
-4.55839
-4.48991
-4.41877
-4.34492
-4.26824
-4.18865
-4.10607
-4.02036
-3.93141
-3.83909
-3.74318
-3.64352
-3.54
-3.43244
-3.32067
-3.20448
-3.08357
-2.95772
-2.82865
-2.69971
-2.5728
-2.44819
-2.32582
-2.20568
-2.08781
-1.97225
-1.85905
-1.74822
-1.6398
-1.53382
-1.43029
-1.32923
-1.23065
-1.13454
-1.04092
-0.949755
-0.861048
-0.774777
-0.690917
-0.609436
-0.530296
-0.453453
-0.378858
-0.30646
-0.236208
-0.168053
-0.101946
-0.0378396
0.0243104
0.0845486
0.142919
0.199464
0.254228
0.307254
0.358586
0.408266
0.45634
0.502849
0.547838
-5.99747
-5.98754
-5.97962
-5.97135
-5.96277
-5.95394
-5.94483
-5.93542
-5.92571
-5.91568
-5.90531
-5.89461
-5.88354
-5.87211
-5.86028
-5.84806
-5.83542
-5.82234
-5.80882
-5.79482
-5.78033
-5.76533
-5.7498
-5.73372
-5.71706
-5.69979
-5.68189
-5.66333
-5.64408
-5.6241
-5.60337
-5.58184
-5.55947
-5.53623
-5.51206
-5.48692
-5.46075
-5.43347
-5.40501
-5.37529
-5.34421
-5.31167
-5.27757
-5.2418
-5.20428
-5.16491
-5.12361
-5.08031
-5.03493
-4.98741
-4.93767
-4.88567
-4.83135
-4.77465
-4.71551
-4.65388
-4.58969
-4.52288
-4.45337
-4.38109
-4.30594
-4.22783
-4.14666
-4.06231
-3.97466
-3.88357
-3.78888
-3.69042
-3.58802
-3.4815
-3.37065
-3.25524
-3.13501
-3.00969
-2.8809
-2.75222
-2.62547
-2.50076
-2.37809
-2.2575
-2.13902
-2.02271
-1.9086
-1.79675
-1.68719
-1.57996
-1.4751
-1.37262
-1.27256
-1.17494
-1.07976
-0.987024
-0.896739
-0.808896
-0.723479
-0.640466
-0.559828
-0.481523
-0.405507
-0.331729
-0.260142
-0.190696
-0.12334
-0.0580285
0.00528285
0.0666381
0.126081
0.183655
0.239404
0.293372
0.345604
0.396143
0.445035
0.492323
0.538052
-5.99753
-5.98757
-5.97968
-5.97142
-5.96285
-5.95403
-5.94493
-5.93554
-5.92584
-5.91583
-5.90549
-5.8948
-5.88376
-5.87235
-5.86056
-5.84837
-5.83576
-5.82272
-5.80924
-5.79529
-5.78085
-5.7659
-5.75043
-5.73441
-5.71782
-5.70063
-5.68281
-5.66434
-5.64519
-5.62533
-5.60471
-5.58331
-5.5611
-5.53802
-5.51403
-5.4891
-5.46316
-5.43618
-5.40807
-5.37879
-5.34826
-5.31639
-5.28308
-5.24825
-5.2118
-5.17361
-5.13362
-5.09172
-5.04783
-5.00187
-4.95378
-4.90346
-4.85086
-4.79589
-4.73851
-4.67862
-4.61617
-4.55108
-4.48326
-4.41264
-4.33912
-4.2626
-4.18298
-4.10014
-4.01396
-3.92428
-3.83096
-3.73382
-3.63269
-3.52737
-3.41763
-3.30324
-3.18394
-3.05944
-2.93131
-2.80309
-2.67664
-2.55203
-2.42928
-2.30843
-2.18953
-2.07263
-1.95778
-1.84504
-1.73447
-1.6261
-1.52
-1.4162
-1.31474
-1.21565
-1.11895
-1.02468
-0.932832
-0.843425
-0.756455
-0.671912
-0.589772
-0.510002
-0.432554
-0.35738
-0.284439
-0.213687
-0.145069
-0.0785396
-0.0140567
0.0484238
0.108946
0.167553
0.22429
0.279201
0.332333
0.383729
0.433438
0.481503
0.52797
-5.99759
-5.98759
-5.97974
-5.97148
-5.96293
-5.95412
-5.94503
-5.93566
-5.92597
-5.91598
-5.90565
-5.89499
-5.88397
-5.87259
-5.86082
-5.84866
-5.83609
-5.82309
-5.80964
-5.79574
-5.78135
-5.76646
-5.75105
-5.73509
-5.71856
-5.70145
-5.68371
-5.66533
-5.64627
-5.62651
-5.60601
-5.58474
-5.56265
-5.53972
-5.5159
-5.49114
-5.46541
-5.43864
-5.4108
-5.38181
-5.35163
-5.32018
-5.28739
-5.25318
-5.21746
-5.18014
-5.14113
-5.10032
-5.05763
-5.01296
-4.96623
-4.91736
-4.86626
-4.81285
-4.75706
-4.69879
-4.63798
-4.57453
-4.50836
-4.43938
-4.36749
-4.29259
-4.21456
-4.13329
-4.04864
-3.96046
-3.86861
-3.7729
-3.67315
-3.56915
-3.46068
-3.34747
-3.22927
-3.10577
-2.9785
-2.85097
-2.72504
-2.60074
-2.47814
-2.35725
-2.23814
-2.12086
-2.00547
-1.89204
-1.78062
-1.67129
-1.56409
-1.45909
-1.35634
-1.25588
-1.15777
-1.06202
-0.968682
-0.877767
-0.789291
-0.703253
-0.619641
-0.53842
-0.459535
-0.382975
-0.308724
-0.236694
-0.166822
-0.099085
-0.0334428
0.0301496
0.0917363
0.151362
0.209071
0.26491
0.318926
0.371165
0.421675
0.470503
0.517696
0.5633
-5.99763
-5.98761
-5.97979
-5.97154
-5.96299
-5.95419
-5.94512
-5.93575
-5.92608
-5.9161
-5.90579
-5.89515
-5.88415
-5.87279
-5.86105
-5.84892
-5.83638
-5.82341
-5.81001
-5.79615
-5.7818
-5.76697
-5.75161
-5.73572
-5.71926
-5.70221
-5.68455
-5.66626
-5.64729
-5.62763
-5.60723
-5.58607
-5.56412
-5.54132
-5.51765
-5.49306
-5.4675
-5.44094
-5.41331
-5.38457
-5.35465
-5.32351
-5.29108
-5.25729
-5.22206
-5.18533
-5.14699
-5.10698
-5.06518
-5.02151
-4.97587
-4.92818
-4.87833
-4.82624
-4.77181
-4.71497
-4.65562
-4.59367
-4.52902
-4.46157
-4.39122
-4.31786
-4.24138
-4.16164
-4.07851
-3.99184
-3.90146
-3.80721
-3.70889
-3.60627
-3.49913
-3.3872
-3.27021
-3.14784
-3.02158
-2.8949
-2.76966
-2.64588
-2.52361
-2.40289
-2.28378
-2.16633
-2.05061
-1.9367
-1.82465
-1.71454
-1.60644
-1.50041
-1.39653
-1.29486
-1.19545
-1.09836
-1.00363
-0.911306
-0.821404
-0.733941
-0.648914
-0.566302
-0.486071
-0.408191
-0.332625
-0.259327
-0.188248
-0.119347
-0.0525864
0.0120782
0.0746914
0.135299
0.193946
0.25068
0.305549
0.358601
0.409884
0.459448
0.507341
0.553611
-5.99766
-5.98761
-5.97981
-5.97157
-5.96303
-5.95424
-5.94517
-5.93581
-5.92616
-5.91619
-5.90589
-5.89526
-5.88428
-5.87294
-5.86123
-5.84912
-5.83661
-5.82368
-5.81031
-5.79649
-5.78219
-5.7674
-5.7521
-5.73626
-5.71987
-5.70289
-5.68531
-5.6671
-5.64822
-5.62865
-5.60836
-5.58731
-5.56547
-5.5428
-5.51927
-5.49483
-5.46943
-5.44304
-5.41561
-5.38708
-5.35741
-5.32653
-5.29438
-5.26092
-5.22606
-5.18974
-5.15188
-5.11241
-5.07125
-5.0283
-4.98348
-4.93669
-4.88783
-4.8368
-4.78352
-4.72787
-4.66977
-4.60912
-4.5458
-4.47972
-4.41076
-4.33882
-4.26376
-4.18545
-4.10376
-4.01852
-3.92958
-3.83674
-3.73981
-3.63856
-3.53276
-3.42213
-3.30639
-3.1852
-3.06003
-2.93431
-2.80987
-2.68674
-2.56497
-2.4446
-2.32567
-2.20824
-2.09241
-1.97821
-1.86572
-1.75504
-1.64622
-1.53937
-1.43455
-1.33184
-1.23132
-1.13304
-1.03706
-0.943456
-0.852252
-0.763476
-0.677136
-0.593221
-0.511709
-0.432571
-0.35578
-0.281291
-0.209065
-0.139063
-0.071244
-0.00556465
0.0580197
0.119555
0.179089
0.236671
0.292348
0.346171
0.398189
0.448452
0.497011
0.543914
-5.99767
-5.98758
-5.97981
-5.97157
-5.96304
-5.95425
-5.94519
-5.93583
-5.92619
-5.91622
-5.90594
-5.89532
-5.88436
-5.87304
-5.86134
-5.84925
-5.83677
-5.82387
-5.81053
-5.79674
-5.78249
-5.76775
-5.75249
-5.73671
-5.72038
-5.70347
-5.68596
-5.66782
-5.64903
-5.62955
-5.60935
-5.58841
-5.56668
-5.54414
-5.52073
-5.49643
-5.47119
-5.44496
-5.4177
-5.38937
-5.3599
-5.32924
-5.29735
-5.26416
-5.2296
-5.19362
-5.15613
-5.11708
-5.07639
-5.03397
-4.98974
-4.94361
-4.89549
-4.84528
-4.79289
-4.7382
-4.68113
-4.62155
-4.55937
-4.49446
-4.42672
-4.35602
-4.28223
-4.20521
-4.12482
-4.0409
-3.95328
-3.86176
-3.76614
-3.6662
-3.56169
-3.45232
-3.3378
-3.21779
-3.09373
-2.96901
-2.84543
-2.72304
-2.60187
-2.48195
-2.36334
-2.24611
-2.1303
-2.01597
-1.90325
-1.79218
-1.68286
-1.57537
-1.46981
-1.36625
-1.26478
-1.16548
-1.06843
-0.973701
-0.881339
-0.791387
-0.703861
-0.618763
-0.536079
-0.45579
-0.37787
-0.302287
-0.229005
-0.157986
-0.0891896
-0.0225723
0.0419108
0.104307
0.164663
0.22303
0.279459
0.333999
0.386701
0.437618
0.4868
0.534299
-5.99766
-5.98752
-5.97978
-5.97154
-5.96301
-5.95422
-5.94516
-5.93581
-5.92616
-5.91621
-5.90593
-5.89532
-5.88437
-5.87306
-5.86137
-5.84931
-5.83684
-5.82396
-5.81066
-5.7969
-5.78268
-5.76798
-5.75277
-5.73704
-5.72077
-5.70392
-5.68648
-5.66841
-5.6497
-5.63031
-5.6102
-5.58936
-5.56773
-5.5453
-5.52202
-5.49784
-5.47274
-5.44666
-5.41957
-5.3914
-5.36212
-5.33167
-5.29999
-5.26704
-5.23274
-5.19704
-5.15987
-5.12116
-5.08084
-5.03883
-4.99506
-4.94944
-4.90187
-4.85228
-4.80057
-4.74663
-4.69035
-4.63164
-4.57038
-4.50644
-4.43972
-4.37008
-4.29738
-4.22149
-4.14225
-4.0595
-3.97305
-3.88273
-3.78831
-3.68957
-3.58624
-3.47805
-3.36469
-3.24581
-3.12282
-2.99909
-2.87639
-2.75476
-2.63423
-2.51485
-2.39665
-2.27969
-2.16403
-2.04976
-1.93694
-1.82565
-1.71599
-1.60804
-1.5019
-1.39767
-1.29544
-1.1953
-1.09734
-1.00165
-0.908287
-0.817307
-0.728738
-0.642592
-0.558866
-0.47755
-0.398625
-0.322063
-0.247834
-0.175901
-0.106224
-0.0387613
0.0265336
0.0897078
0.150811
0.209892
0.267004
0.322199
0.375527
0.427043
0.476797
0.524842
-5.99762
-5.98744
-5.97971
-5.97147
-5.96293
-5.95414
-5.94508
-5.93573
-5.92609
-5.91613
-5.90586
-5.89525
-5.8843
-5.873
-5.86133
-5.84927
-5.83682
-5.82396
-5.81068
-5.79695
-5.78276
-5.76809
-5.75293
-5.73724
-5.72102
-5.70423
-5.68685
-5.66885
-5.65021
-5.6309
-5.61088
-5.59013
-5.5686
-5.54628
-5.52311
-5.49905
-5.47408
-5.44814
-5.42119
-5.39318
-5.36407
-5.3338
-5.30232
-5.26957
-5.2355
-5.20004
-5.16314
-5.12472
-5.08471
-5.04304
-4.99964
-4.95443
-4.90731
-4.8582
-4.80702
-4.75365
-4.698
-4.63996
-4.57943
-4.51627
-4.45037
-4.3816
-4.30981
-4.23486
-4.1566
-4.07486
-3.98945
-3.90017
-3.80681
-3.70914
-3.60688
-3.49976
-3.38746
-3.26962
-3.14764
-3.02484
-2.90298
-2.78211
-2.66224
-2.54341
-2.42567
-2.30907
-2.19366
-2.07951
-1.96671
-1.85533
-1.74546
-1.6372
-1.53064
-1.4259
-1.32306
-1.22225
-1.12354
-1.02705
-0.932849
-0.840996
-0.751533
-0.664484
-0.579858
-0.497653
-0.417854
-0.340442
-0.265386
-0.192653
-0.122204
-0.0539972
0.0120135
0.0758757
0.137639
0.197355
0.255075
0.310851
0.364737
0.416785
0.467048
0.515576
-5.99755
-5.98733
-5.97961
-5.97137
-5.96282
-5.95402
-5.94495
-5.9356
-5.92595
-5.91599
-5.90571
-5.89511
-5.88416
-5.87286
-5.86119
-5.84914
-5.8367
-5.82386
-5.81059
-5.79688
-5.78272
-5.76808
-5.75295
-5.73731
-5.72112
-5.70438
-5.68706
-5.66912
-5.65055
-5.63131
-5.61137
-5.59071
-5.56928
-5.54705
-5.52398
-5.50004
-5.47518
-5.44937
-5.42255
-5.39469
-5.36573
-5.33562
-5.30431
-5.27175
-5.23788
-5.20264
-5.16597
-5.12779
-5.08805
-5.04668
-5.00359
-4.95871
-4.91196
-4.86324
-4.81248
-4.75958
-4.70443
-4.64693
-4.58697
-4.52443
-4.45919
-4.39111
-4.32006
-4.24589
-4.16844
-4.08754
-4.00299
-3.91461
-3.82216
-3.72542
-3.6241
-3.51792
-3.40656
-3.28966
-3.16859
-3.04665
-2.92558
-2.80541
-2.68618
-2.56791
-2.45064
-2.33442
-2.2193
-2.10535
-1.99265
-1.88127
-1.7713
-1.66284
-1.556
-1.45088
-1.34758
-1.24623
-1.14693
-1.04979
-0.954902
-0.862326
-0.77212
-0.684317
-0.598937
-0.515984
-0.435449
-0.357316
-0.281557
-0.208142
-0.137032
-0.0681849
-0.00155573
0.0629038
0.125244
0.185515
0.243771
0.300063
0.354445
0.406971
0.457691
0.506659
-5.99746
-5.9872
-5.97948
-5.97122
-5.96266
-5.95385
-5.94478
-5.93541
-5.92575
-5.91579
-5.9055
-5.89489
-5.88394
-5.87263
-5.86096
-5.84892
-5.83648
-5.82365
-5.81039
-5.7967
-5.78255
-5.76794
-5.75284
-5.73722
-5.72108
-5.70438
-5.68711
-5.66923
-5.65072
-5.63154
-5.61168
-5.59109
-5.56974
-5.5476
-5.52463
-5.50079
-5.47604
-5.45034
-5.42365
-5.39592
-5.3671
-5.33714
-5.30599
-5.27359
-5.2399
-5.20485
-5.16838
-5.13042
-5.09091
-5.04978
-5.00695
-4.96236
-4.91591
-4.86753
-4.81712
-4.7646
-4.70985
-4.65279
-4.59329
-4.53125
-4.46654
-4.39902
-4.32857
-4.25503
-4.17824
-4.09802
-4.01419
-3.92655
-3.83486
-3.7389
-3.63838
-3.53302
-3.42248
-3.3064
-3.18614
-3.06495
-2.9446
-2.82508
-2.70644
-2.5887
-2.47189
-2.35605
-2.24124
-2.12753
-2.01497
-1.90365
-1.79366
-1.6851
-1.57807
-1.47267
-1.36904
-1.26728
-1.16752
-1.06987
-0.974431
-0.881276
-0.790472
-0.702061
-0.61607
-0.532507
-0.45137
-0.372645
-0.296307
-0.222325
-0.150663
-0.081279
-0.0141269
0.0508411
0.113675
0.174428
0.233151
0.289899
0.344724
0.39768
0.448821
0.498198
-5.99734
-5.98704
-5.97931
-5.97105
-5.96247
-5.95365
-5.94455
-5.93518
-5.9255
-5.91552
-5.90523
-5.8946
-5.88364
-5.87232
-5.86065
-5.8486
-5.83616
-5.82333
-5.81007
-5.79639
-5.78226
-5.76766
-5.75258
-5.737
-5.72089
-5.70423
-5.68699
-5.66916
-5.6507
-5.63158
-5.61178
-5.59126
-5.56999
-5.54793
-5.52504
-5.5013
-5.47665
-5.45106
-5.42448
-5.39686
-5.36816
-5.33834
-5.30733
-5.27509
-5.24155
-5.20667
-5.17037
-5.13261
-5.0933
-5.05239
-5.00979
-4.96544
-4.91925
-4.87115
-4.82103
-4.76882
-4.71441
-4.65771
-4.59859
-4.53695
-4.47267
-4.40562
-4.33565
-4.26261
-4.18635
-4.1067
-4.02345
-3.93642
-3.84536
-3.75004
-3.65019
-3.54551
-3.43566
-3.32028
-3.20071
-3.0802
-2.96046
-2.84153
-2.72342
-2.60616
-2.48977
-2.37431
-2.25981
-2.14633
-2.03395
-1.92273
-1.81277
-1.70417
-1.59702
-1.49144
-1.38757
-1.28551
-1.18541
-1.08737
-0.991506
-0.897905
-0.806639
-0.717756
-0.631288
-0.547248
-0.465638
-0.386444
-0.309644
-0.235209
-0.163102
-0.0932807
-0.0257009
0.0396863
0.102931
0.164086
0.223204
0.280338
0.335542
0.388869
0.440374
0.49011
-5.99721
-5.98687
-5.97912
-5.97084
-5.96224
-5.9534
-5.94429
-5.93489
-5.9252
-5.9152
-5.90489
-5.89424
-5.88326
-5.87194
-5.86025
-5.84819
-5.83574
-5.8229
-5.80965
-5.79597
-5.78184
-5.76726
-5.75219
-5.73662
-5.72054
-5.70391
-5.68671
-5.66892
-5.6505
-5.63144
-5.61169
-5.59123
-5.57002
-5.54803
-5.52523
-5.50156
-5.477
-5.45151
-5.42503
-5.39752
-5.36893
-5.33923
-5.30835
-5.27624
-5.24285
-5.20811
-5.17198
-5.13438
-5.09525
-5.05452
-5.01212
-4.96798
-4.92202
-4.87415
-4.82429
-4.77234
-4.71821
-4.6618
-4.60301
-4.5417
-4.47778
-4.41109
-4.34152
-4.2689
-4.19307
-4.11387
-4.0311
-3.94456
-3.85401
-3.75923
-3.65992
-3.55579
-3.44652
-3.33173
-3.21275
-3.09279
-2.97359
-2.85516
-2.73752
-2.62068
-2.50468
-2.38955
-2.27534
-2.1621
-2.04989
-1.9388
-1.8289
-1.72029
-1.61308
-1.5074
-1.40335
-1.30109
-1.20074
-1.10242
-1.00625
-0.912323
-0.820727
-0.731496
-0.644675
-0.56028
-0.478314
-0.398766
-0.321614
-0.24683
-0.174377
-0.104214
-0.0362961
0.0294257
0.0930016
0.154484
0.213925
0.271378
0.326898
0.380537
0.432349
0.482386
-5.99707
-5.98668
-5.97891
-5.97061
-5.96199
-5.95312
-5.94398
-5.93457
-5.92485
-5.91483
-5.90449
-5.89382
-5.88282
-5.87147
-5.85977
-5.84769
-5.83523
-5.82238
-5.80912
-5.79543
-5.7813
-5.76672
-5.75167
-5.73611
-5.72005
-5.70344
-5.68627
-5.6685
-5.65013
-5.6311
-5.6114
-5.591
-5.56985
-5.54792
-5.52518
-5.50159
-5.47711
-5.45169
-5.4253
-5.39789
-5.36941
-5.33981
-5.30904
-5.27705
-5.24379
-5.20919
-5.17319
-5.13574
-5.09677
-5.0562
-5.01398
-4.97002
-4.92425
-4.87658
-4.82693
-4.77521
-4.72132
-4.66517
-4.60663
-4.54561
-4.48197
-4.4156
-4.34635
-4.27407
-4.1986
-4.11976
-4.03738
-3.95124
-3.86111
-3.76675
-3.66789
-3.56422
-3.45541
-3.3411
-3.2226
-3.10312
-2.98436
-2.86635
-2.7491
-2.63263
-2.51696
-2.40213
-2.28818
-2.17515
-2.06312
-1.95214
-1.84232
-1.73374
-1.62652
-1.52077
-1.41662
-1.31423
-1.21371
-1.11521
-1.01883
-0.924693
-0.832872
-0.743403
-0.656342
-0.571703
-0.489489
-0.409691
-0.332287
-0.25725
-0.184543
-0.114125
-0.0459511
0.0200269
0.0838594
0.145598
0.205296
0.263006
0.318782
0.372677
0.424742
0.475032
-5.99692
-5.98648
-5.97868
-5.97036
-5.96171
-5.95281
-5.94365
-5.9342
-5.92446
-5.91441
-5.90404
-5.89334
-5.88232
-5.87094
-5.85921
-5.84711
-5.83463
-5.82176
-5.80848
-5.79479
-5.78066
-5.76607
-5.75102
-5.73547
-5.71941
-5.70282
-5.68567
-5.66793
-5.64958
-5.63059
-5.61093
-5.59057
-5.56946
-5.54759
-5.52491
-5.50138
-5.47697
-5.45163
-5.42531
-5.39798
-5.36959
-5.34009
-5.30942
-5.27754
-5.24438
-5.2099
-5.17403
-5.13671
-5.09787
-5.05746
-5.01538
-4.97158
-4.92598
-4.87848
-4.82902
-4.77749
-4.7238
-4.66786
-4.60955
-4.54875
-4.48536
-4.41924
-4.35026
-4.27825
-4.20307
-4.12454
-4.04247
-3.95665
-3.86686
-3.77285
-3.67434
-3.57104
-3.46261
-3.34869
-3.23058
-3.11148
-2.99309
-2.87543
-2.7585
-2.64234
-2.52695
-2.41237
-2.29864
-2.1858
-2.07392
-1.96307
-1.85332
-1.74479
-1.63757
-1.5318
-1.42761
-1.32515
-1.22455
-1.12594
-1.02946
-0.935209
-0.843249
-0.753642
-0.666436
-0.581647
-0.499278
-0.41932
-0.341753
-0.266547
-0.193667
-0.123072
-0.0547163
0.0114474
0.0754696
0.137402
0.197297
0.255207
0.311185
0.365284
0.417556
0.468052
-5.99677
-5.98629
-5.97845
-5.9701
-5.96141
-5.95248
-5.94329
-5.93381
-5.92403
-5.91394