/*--------------------------------*- C++ -*----------------------------------*\
  =========                 |
  \\      /  F ield         | OpenFOAM: The Open Source CFD Toolbox
   \\    /   O peration     | Website:  https://openfoam.org
    \\  /    A nd           | Version:  10
     \\/     M anipulation  |
\*---------------------------------------------------------------------------*/
FoamFile
{
    format      ascii;
    class       surfaceScalarField;
    location    "65000";
    object      phi;
}
// * * * * * * * * * * * * * * * * * * * * * * * * * * * * * * * * * * * * * //

dimensions      [0 3 -1 0 0 0 0];

internalField   nonuniform List<scalar> 
35536
(
-7.03871e-09
-3.57483e-07
-2.07202e-08
-2.72744e-07
-1.32754e-09
-2.57685e-07
5.06813e-08
-2.3206e-07
1.45257e-07
-1.98118e-07
3.03805e-07
-1.51092e-07
5.54777e-07
-8.29659e-08
9.18715e-07
1.78404e-08
1.39877e-06
1.60741e-07
1.97583e-06
3.49217e-07
2.61244e-06
5.80528e-07
3.26503e-06
8.4309e-07
3.89308e-06
1.1211e-06
4.46688e-06
1.39894e-06
4.9695e-06
1.66365e-06
5.39561e-06
1.90609e-06
5.74882e-06
2.12267e-06
6.03814e-06
2.31309e-06
6.27496e-06
2.47928e-06
6.47029e-06
2.62546e-06
6.63408e-06
2.75564e-06
6.7748e-06
2.87337e-06
6.89905e-06
2.98195e-06
7.01183e-06
3.08395e-06
7.11681e-06
3.18132e-06
7.21661e-06
3.27545e-06
7.313e-06
3.36736e-06
7.40714e-06
3.45771e-06
7.49978e-06
3.5469e-06
7.59138e-06
3.63515e-06
7.68225e-06
3.72252e-06
7.77259e-06
3.80902e-06
7.86249e-06
3.89457e-06
7.95204e-06
3.97907e-06
8.04125e-06
4.06238e-06
8.13012e-06
4.14433e-06
8.21862e-06
4.22472e-06
8.3067e-06
4.30333e-06
8.3943e-06
4.37993e-06
8.48135e-06
4.45425e-06
8.56777e-06
4.52599e-06
8.65347e-06
4.59485e-06
8.73836e-06
4.66048e-06
8.82233e-06
4.72254e-06
8.90528e-06
4.78062e-06
8.98708e-06
4.83432e-06
9.06762e-06
4.88318e-06
9.14676e-06
4.92673e-06
9.22434e-06
4.96447e-06
9.30022e-06
4.99584e-06
9.37421e-06
5.02025e-06
9.44613e-06
5.03709e-06
9.51578e-06
5.04568e-06
9.58292e-06
5.04531e-06
9.64733e-06
5.03519e-06
9.70872e-06
5.01451e-06
9.76682e-06
4.98238e-06
9.82131e-06
4.93785e-06
9.87186e-06
4.87991e-06
9.9181e-06
4.80745e-06
9.95963e-06
4.71932e-06
9.99605e-06
4.61426e-06
1.00269e-05
4.49091e-06
1.00517e-05
4.34783e-06
1.00699e-05
4.18346e-06
1.00811e-05
3.99613e-06
1.00846e-05
3.78406e-06
1.00798e-05
3.54531e-06
1.00662e-05
3.27782e-06
1.00431e-05
2.97938e-06
1.00098e-05
2.64762e-06
9.9657e-06
2.28001e-06
9.91003e-06
1.87387e-06
9.8421e-06
1.42636e-06
9.76359e-06
9.15669e-07
9.67731e-06
3.98965e-07
9.58414e-06
-7.72688e-08
9.48479e-06
-5.15196e-07
9.37994e-06
-9.17074e-07
9.27025e-06
-1.28609e-06
9.15639e-06
-1.62516e-06
9.03895e-06
-1.93593e-06
8.91837e-06
-2.2199e-06
8.79501e-06
-2.47852e-06
8.66906e-06
-2.71324e-06
8.54071e-06
-2.9255e-06
8.41049e-06
-3.11666e-06
8.27957e-06
-3.28776e-06
8.14978e-06
-3.43922e-06
8.02245e-06
-3.57084e-06
7.89714e-06
-3.68247e-06
7.77211e-06
-3.77545e-06
7.64633e-06
-3.85255e-06
7.51973e-06
-3.91599e-06
7.39238e-06
-3.96708e-06
7.26438e-06
-4.00696e-06
7.13582e-06
-4.03667e-06
7.00678e-06
-4.05722e-06
6.87736e-06
-4.06952e-06
-4.07446e-06
-9.74184e-09
-3.47736e-07
-3.22008e-08
-2.50284e-07
-3.13251e-08
-2.58565e-07
-1.10241e-08
-2.52362e-07
3.03818e-08
-2.39524e-07
9.89762e-08
-2.19687e-07
2.05402e-07
-1.89392e-07
3.67263e-07
-1.44021e-07
6.07347e-07
-7.93425e-08
9.45144e-07
1.14205e-08
1.38892e-06
1.36753e-07
1.93052e-06
3.01488e-07
2.54536e-06
5.06261e-07
3.19883e-06
7.45467e-07
3.85418e-06
1.0083e-06
4.47868e-06
1.28159e-06
5.04863e-06
1.55272e-06
5.55057e-06
1.81115e-06
5.98052e-06
2.04933e-06
6.34195e-06
2.26404e-06
6.64284e-06
2.45475e-06
6.89298e-06
2.62323e-06
7.10197e-06
2.77295e-06
7.27887e-06
2.90705e-06
7.43157e-06
3.02862e-06
7.56645e-06
3.14057e-06
7.68857e-06
3.24524e-06
7.8018e-06
3.34448e-06
7.90899e-06
3.43972e-06
8.01213e-06
3.532e-06
8.11259e-06
3.62206e-06
8.21126e-06
3.71035e-06
8.30869e-06
3.79714e-06
8.40524e-06
3.88253e-06
8.50111e-06
3.96651e-06
8.59642e-06
4.04901e-06
8.69124e-06
4.1299e-06
8.78557e-06
4.209e-06
8.87939e-06
4.28611e-06
8.97267e-06
4.36097e-06
9.06534e-06
4.43332e-06
9.15733e-06
4.50286e-06
9.24855e-06
4.56926e-06
9.33892e-06
4.63217e-06
9.42832e-06
4.69122e-06
9.51665e-06
4.74599e-06
9.60377e-06
4.79605e-06
9.68956e-06
4.84095e-06
9.77386e-06
4.88017e-06
9.85651e-06
4.91319e-06
9.93732e-06
4.93944e-06
1.00161e-05
4.95832e-06
1.00926e-05
4.96916e-06
1.01667e-05
4.97127e-06
1.02379e-05
4.96391e-06
1.03062e-05
4.94627e-06
1.03711e-05
4.9175e-06
1.04322e-05
4.87667e-06
1.04893e-05
4.8228e-06
1.0542e-05
4.75483e-06
1.05897e-05
4.67161e-06
1.0632e-05
4.57192e-06
1.06685e-05
4.45446e-06
1.06985e-05
4.3178e-06
1.07215e-05
4.16042e-06
1.0737e-05
3.9807e-06
1.07442e-05
3.77687e-06
1.07424e-05
3.54705e-06
1.0731e-05
3.2892e-06
1.07093e-05
3.00113e-06
1.06764e-05
2.68052e-06
1.06315e-05
2.32484e-06
1.0574e-05
1.93144e-06
1.05028e-05
1.4975e-06
1.04198e-05
9.98667e-07
1.0328e-05
4.90806e-07
1.02283e-05
2.24277e-08
1.01215e-05
-4.08422e-07
1.00084e-05
-8.0394e-07
9.88965e-06
-1.16734e-06
9.76597e-06
-1.50147e-06
9.63796e-06
-1.80793e-06
9.50622e-06
-2.08815e-06
9.37122e-06
-2.34352e-06
9.23333e-06
-2.57536e-06
9.0928e-06
-2.78496e-06
8.94978e-06
-2.97364e-06
8.80468e-06
-3.14265e-06
8.65846e-06
-3.293e-06
8.51281e-06
-3.42519e-06
8.36938e-06
-3.53904e-06
8.22813e-06
-3.63419e-06
8.08737e-06
-3.71179e-06
7.94597e-06
-3.77459e-06
7.80382e-06
-3.82494e-06
7.6611e-06
-3.86423e-06
7.51794e-06
-3.89352e-06
7.37448e-06
-3.91376e-06
7.23085e-06
-3.92589e-06
-3.93077e-06
-7.19033e-09
-3.40548e-07
-2.60576e-08
-2.31417e-07
-3.32322e-08
-2.51387e-07
-2.90561e-08
-2.56537e-07
-1.34348e-08
-2.55146e-07
1.65406e-08
-2.49663e-07
6.58766e-08
-2.38728e-07
1.41487e-07
-2.19631e-07
2.51628e-07
-1.89483e-07
4.08787e-07
-1.45738e-07
6.31023e-07
-8.54839e-08
9.36449e-07
-3.93831e-09
1.33726e-06
1.05451e-07
1.83426e-06
2.48466e-07
2.41426e-06
4.28299e-07
3.05176e-06
6.44101e-07
3.71533e-06
8.89142e-07
4.37296e-06
1.15353e-06
4.9966e-06
1.42569e-06
5.56608e-06
1.69456e-06
6.07004e-06
1.95079e-06
6.50559e-06
2.18768e-06
6.87626e-06
2.40228e-06
7.18928e-06
2.59403e-06
7.45313e-06
2.76477e-06
7.67632e-06
2.91737e-06
7.86725e-06
3.05431e-06
8.03324e-06
3.17849e-06
8.18043e-06
3.29253e-06
8.31383e-06
3.39859e-06
8.43742e-06
3.49847e-06
8.55415e-06
3.59362e-06
8.66617e-06
3.68512e-06
8.77493e-06
3.77376e-06
8.88142e-06
3.86002e-06
8.98624e-06
3.94419e-06
9.08979e-06
4.02636e-06
9.19228e-06
4.10651e-06
9.29387e-06
4.18452e-06
9.39461e-06
4.26023e-06
9.49451e-06
4.33341e-06
9.59358e-06
4.40379e-06
9.69177e-06
4.47107e-06
9.78902e-06
4.53491e-06
9.88527e-06
4.59496e-06
9.98043e-06
4.65083e-06
1.00744e-05
4.70209e-06
1.0167e-05
4.7483e-06
1.02582e-05
4.78898e-06
1.03478e-05
4.82361e-06
1.04356e-05
4.85165e-06
1.05214e-05
4.87252e-06
1.0605e-05
4.88557e-06
1.06861e-05
4.89015e-06
1.07645e-05
4.88552e-06
1.08398e-05
4.87093e-06
1.09118e-05
4.84554e-06
1.098e-05
4.80846e-06
1.10441e-05
4.75874e-06
1.11036e-05
4.69535e-06
1.1158e-05
4.6172e-06
1.12068e-05
4.52309e-06
1.12495e-05
4.41176e-06
1.12855e-05
4.28183e-06
1.1314e-05
4.13183e-06
1.13346e-05
3.96017e-06
1.13463e-05
3.76512e-06
1.13485e-05
3.54484e-06
1.13404e-05
3.29735e-06
1.13211e-05
3.02048e-06
1.12896e-05
2.71194e-06
1.12452e-05
2.36925e-06
1.11869e-05
1.98977e-06
1.11137e-05
1.57072e-06
1.10273e-05
1.08507e-06
1.09309e-05
5.87211e-07
1.08256e-05
1.27718e-07
1.07123e-05
-2.9515e-07
1.05917e-05
-6.8339e-07
1.04647e-05
-1.04028e-06
1.03318e-05
-1.36862e-06
1.01939e-05
-1.66997e-06
1.00514e-05
-1.94571e-06
9.90506e-06
-2.19717e-06
9.75529e-06
-2.4256e-06
9.60253e-06
-2.6322e-06
9.44704e-06
-2.81815e-06
9.28902e-06
-2.98463e-06
9.12878e-06
-3.13276e-06
8.9671e-06
-3.26351e-06
8.80544e-06
-3.37738e-06
8.64555e-06
-3.4743e-06
8.4877e-06
-3.55393e-06
8.33044e-06
-3.61733e-06
8.17273e-06
-3.66723e-06
8.0146e-06
-3.7061e-06
7.85626e-06
-3.73517e-06
7.69787e-06
-3.75537e-06
7.53957e-06
-3.76759e-06
-3.77269e-06
-4.50365e-09
-3.36049e-07
-1.68818e-08
-2.19039e-07
-2.55616e-08
-2.427e-07
-2.91775e-08
-2.52917e-07
-2.70585e-08
-2.57264e-07
-1.75744e-08
-2.59146e-07
2.06515e-09
-2.58368e-07
3.60704e-08
-2.53636e-07
8.95683e-08
-2.42981e-07
1.68121e-07
-2.2429e-07
2.78095e-07
-1.95459e-07
4.28469e-07
-1.54312e-07
6.32429e-07
-9.85088e-08
9.0579e-07
-2.48952e-08
1.26276e-06
7.1332e-08
1.71028e-06
1.96574e-07
2.24434e-06
3.55083e-07
2.84926e-06
5.48606e-07
3.50048e-06
7.74471e-07
4.16916e-06
1.02588e-06
4.8266e-06
1.29335e-06
5.44831e-06
1.56598e-06
6.01699e-06
1.83359e-06
6.52327e-06
2.08774e-06
6.96535e-06
2.3227e-06
7.34669e-06
2.53603e-06
7.67367e-06
2.72734e-06
7.95348e-06
2.89868e-06
8.19366e-06
3.05235e-06
8.40173e-06
3.19052e-06
8.58438e-06
3.31582e-06
8.74734e-06
3.43066e-06
8.89539e-06
3.53707e-06
9.03241e-06
3.63675e-06
9.16138e-06
3.73105e-06
9.28451e-06
3.82105e-06
9.40338e-06
3.90749e-06
9.51905e-06
3.99084e-06
9.63224e-06
4.07134e-06
9.74341e-06
4.14906e-06
9.85288e-06
4.22394e-06
9.96085e-06
4.29582e-06
1.00674e-05
4.36448e-06
1.01727e-05
4.42964e-06
1.02767e-05
4.49098e-06
1.03794e-05
4.54814e-06
1.04807e-05
4.60073e-06
1.05807e-05
4.64834e-06
1.06792e-05
4.69052e-06
1.0776e-05
4.72677e-06
1.08711e-05
4.75659e-06
1.09642e-05
4.77941e-06
1.10551e-05
4.79464e-06
1.11436e-05
4.80164e-06
1.12294e-05
4.79971e-06
1.13122e-05
4.78814e-06
1.13916e-05
4.76611e-06
1.14673e-05
4.73279e-06
1.15388e-05
4.68725e-06
1.16056e-05
4.62851e-06
1.16673e-05
4.55553e-06
1.17232e-05
4.46715e-06
1.17729e-05
4.36215e-06
1.18155e-05
4.2392e-06
1.18504e-05
4.09689e-06
1.18769e-05
3.93367e-06
1.18942e-05
3.74787e-06
1.19013e-05
3.53771e-06
1.18974e-05
3.30123e-06
1.18816e-05
3.03634e-06
1.18527e-05
2.74079e-06
1.18098e-05
2.41213e-06
1.17519e-05
2.04777e-06
1.16776e-05
1.64494e-06
1.15888e-05
1.17386e-06
1.14888e-05
6.87251e-07
1.13788e-05
2.37739e-07
1.12599e-05
-1.76216e-07
1.11327e-05
-5.56263e-07
1.09981e-05
-9.05646e-07
1.08567e-05
-1.22722e-06
1.07093e-05
-1.52255e-06
1.05565e-05
-1.79295e-06
1.03991e-05
-2.0397e-06
1.02375e-05
-2.264e-06
1.00723e-05
-2.467e-06
9.90391e-06
-2.6498e-06
9.73273e-06
-2.81345e-06
9.55897e-06
-2.959e-06
9.38294e-06
-3.08748e-06
9.20531e-06
-3.19975e-06
9.02736e-06
-3.29636e-06
8.85075e-06
-3.37733e-06
8.6759e-06
-3.44247e-06
8.50165e-06
-3.49298e-06
8.32739e-06
-3.53184e-06
8.15328e-06
-3.56107e-06
7.97948e-06
-3.58157e-06
7.80609e-06
-3.5942e-06
7.63323e-06
-3.59983e-06
7.461e-06
-3.59931e-06
7.28954e-06
-3.59348e-06
7.11903e-06
-3.58314e-06
-3.56903e-06
-3.68262e-09
-3.32365e-07
-1.32823e-08
-2.09442e-07
-2.26497e-08
-2.33336e-07
-3.05358e-08
-2.45034e-07
-3.58128e-08
-2.51988e-07
-3.76918e-08
-2.57268e-07
-3.47971e-08
-2.61263e-07
-2.48336e-08
-2.636e-07
-4.44048e-09
-2.63374e-07
3.04894e-08
-2.5922e-07
8.45045e-08
-2.49474e-07
1.62421e-07
-2.32228e-07
2.69406e-07
-2.05494e-07
4.11805e-07
-1.67294e-07
5.98838e-07
-1.15701e-07
8.43493e-07
-4.80806e-08
1.15959e-06
3.89862e-08
1.55781e-06
1.50381e-07
2.04131e-06
2.90976e-07
2.60304e-06
4.64159e-07
3.22604e-06
6.7035e-07
3.88668e-06
9.05334e-07
4.55831e-06
1.16196e-06
5.21521e-06
1.43085e-06
5.83617e-06
1.70174e-06
6.40655e-06
1.96565e-06
6.91849e-06
2.2154e-06
7.37084e-06
2.44632e-06
7.76677e-06
2.65641e-06
8.11159e-06
2.84571e-06
8.41112e-06
3.01628e-06
8.67179e-06
3.16999e-06
8.90028e-06
3.30858e-06
9.10253e-06
3.4345e-06
9.28374e-06
3.54984e-06
9.44842e-06
3.65638e-06
9.60034e-06
3.75556e-06
9.74255e-06
3.84863e-06
9.87737e-06
3.93652e-06
1.00065e-05
4.0199e-06
1.01313e-05
4.0992e-06
1.02525e-05
4.17461e-06
1.03708e-05
4.24616e-06
1.04867e-05
4.31377e-06
1.06004e-05
4.37725e-06
1.07122e-05
4.43634e-06
1.08222e-05
4.49073e-06
1.09305e-05
4.54008e-06
1.1037e-05
4.58398e-06
1.11418e-05
4.62201e-06
1.12447e-05
4.65368e-06
1.13456e-05
4.6785e-06
1.14443e-05
4.6959e-06
1.15407e-05
4.7053e-06
1.16344e-05
4.70604e-06
1.1725e-05
4.69744e-06
1.18124e-05
4.67875e-06
1.1896e-05
4.64916e-06
1.19755e-05
4.60781e-06
1.20502e-05
4.55375e-06
1.21198e-05
4.48598e-06
1.21835e-05
4.40342e-06
1.22408e-05
4.30489e-06
1.22908e-05
4.18912e-06
1.2333e-05
4.05475e-06
1.23663e-05
3.90031e-06
1.239e-05
3.72417e-06
1.24031e-05
3.52463e-06
1.24045e-05
3.29979e-06
1.23933e-05
3.04763e-06
1.23681e-05
2.76595e-06
1.23279e-05
2.45237e-06
1.22713e-05
2.10432e-06
1.21972e-05
1.71909e-06
1.2107e-05
1.26404e-06
1.20042e-05
7.90066e-07
1.18902e-05
3.51743e-07
1.17663e-05
-5.23227e-08
1.16333e-05
-4.2335e-07
1.14919e-05
-7.64162e-07
1.13425e-05
-1.07785e-06
1.1186e-05
-1.36609e-06
1.10232e-05
-1.63016e-06
1.08548e-05
-1.87128e-06
1.06814e-05
-2.0906e-06
1.05036e-05
-2.28922e-06
1.0322e-05
-2.46818e-06
1.01371e-05
-2.6285e-06
9.9492e-06
-2.77114e-06
9.75877e-06
-2.89704e-06
9.56613e-06
-3.00712e-06
9.37196e-06
-3.10218e-06
9.17742e-06
-3.18279e-06
8.98403e-06
-3.24908e-06
8.79219e-06
-3.30114e-06
8.60121e-06
-3.34087e-06
8.41088e-06
-3.37074e-06
8.22127e-06
-3.39195e-06
8.03239e-06
-3.40533e-06
7.8443e-06
-3.41173e-06
7.65706e-06
-3.41207e-06
7.47081e-06
-3.40723e-06
7.28574e-06
-3.39806e-06
-3.38536e-06
-4.14228e-09
-3.28219e-07
-1.41423e-08
-1.99439e-07
-2.48167e-08
-2.22662e-07
-3.48314e-08
-2.35022e-07
-4.38738e-08
-2.42945e-07
-5.15698e-08
-2.49571e-07
-5.73223e-08
-2.55509e-07
-6.01522e-08
-2.6077e-07
-5.84463e-08
-2.6508e-07
-4.98099e-08
-2.67857e-07
-3.11102e-08
-2.68173e-07
1.48303e-09
-2.64821e-07
5.2299e-08
-2.56309e-07
1.25791e-07
-2.40784e-07
2.26372e-07
-2.16281e-07
3.5916e-07
-1.80869e-07
5.30903e-07
-1.32756e-07
7.51155e-07
-6.9871e-08
1.03192e-06
1.02139e-08
1.38536e-06
1.10714e-07
1.81922e-06
2.36496e-07
2.33329e-06
3.91258e-07
2.91816e-06
5.77092e-07
3.55621e-06
7.92793e-07
4.22482e-06
1.03313e-06
4.89967e-06
1.2908e-06
5.55799e-06
1.55708e-06
6.18149e-06
1.82283e-06
6.75744e-06
2.08046e-06
7.27904e-06
2.32411e-06
7.74543e-06
2.54989e-06
8.15922e-06
2.75621e-06
8.52451e-06
2.94329e-06
8.84585e-06
3.11315e-06
9.12863e-06
3.26707e-06
9.37855e-06
3.40645e-06
9.60084e-06
3.53328e-06
9.80027e-06
3.6492e-06
9.98118e-06
3.7556e-06
1.01474e-05
3.85372e-06
1.0302e-05
3.94459e-06
1.04475e-05
4.02903e-06
1.0586e-05
4.10767e-06
1.07189e-05
4.18087e-06
1.08473e-05
4.24885e-06
1.0972e-05
4.31163e-06
1.10937e-05
4.36913e-06
1.12126e-05
4.42117e-06
1.1329e-05
4.4675e-06
1.14433e-05
4.5078e-06
1.15553e-05
4.54168e-06
1.1665e-05
4.56873e-06
1.17725e-05
4.58845e-06
1.18774e-05
4.60033e-06
1.19797e-05
4.60378e-06
1.2079e-05
4.59817e-06
1.21749e-05
4.5828e-06
1.22672e-05
4.55693e-06
1.23552e-05
4.51975e-06
1.24386e-05
4.47038e-06
1.25167e-05
4.40786e-06
1.25889e-05
4.33117e-06
1.26546e-05
4.23921e-06
1.2713e-05
4.13077e-06
1.27632e-05
4.00455e-06
1.28043e-05
3.85915e-06
1.28355e-05
3.69305e-06
1.28555e-05
3.50459e-06
1.28633e-05
3.29197e-06
1.28577e-05
3.05325e-06
1.28374e-05
2.7863e-06
1.28009e-05
2.48881e-06
1.27469e-05
2.1583e-06
1.2674e-05
1.79206e-06
1.25834e-05
1.35463e-06
1.24786e-05
8.94807e-07
1.23613e-05
4.69051e-07
1.2233e-05
7.5994e-08
1.20949e-05
-2.85202e-07
1.19471e-05
-6.16376e-07
1.17902e-05
-9.20955e-07
1.1625e-05
-1.20092e-06
1.14524e-05
-1.45755e-06
1.12731e-05
-1.69199e-06
1.10879e-05
-1.90535e-06
1.08973e-05
-2.09868e-06
1.07022e-05
-2.273e-06
1.05029e-05
-2.42927e-06
1.03002e-05
-2.56844e-06
1.00946e-05
-2.69143e-06
9.88663e-06
-2.79913e-06
9.67682e-06
-2.89237e-06
9.46595e-06
-2.97192e-06
9.25512e-06
-3.03825e-06
9.04556e-06
-3.09158e-06
8.83762e-06
-3.13292e-06
8.63093e-06
-3.16406e-06
8.42528e-06
-3.1863e-06
8.22053e-06
-3.20058e-06
8.01666e-06
-3.20787e-06
7.81374e-06
-3.20915e-06
7.61191e-06
-3.2054e-06
7.41142e-06
-3.19757e-06
-3.18651e-06
-4.50263e-09
-3.23718e-07
-1.49695e-08
-1.88974e-07
-2.62025e-08
-2.11432e-07
-3.6946e-08
-2.2428e-07
-4.71823e-08
-2.32709e-07
-5.68599e-08
-2.39893e-07
-6.58057e-08
-2.46564e-07
-7.3694e-08
-2.52882e-07
-7.99574e-08
-2.58817e-07
-8.36113e-08
-2.64203e-07
-8.30811e-08
-2.68704e-07
-7.61599e-08
-2.71742e-07
-6.00145e-08
-2.72454e-07
-3.10898e-08
-2.69709e-07
1.47498e-08
-2.62121e-07
8.18887e-08
-2.48008e-07
1.74645e-07
-2.25513e-07
2.9752e-07
-1.92746e-07
4.55723e-07
-1.47989e-07
6.56151e-07
-8.97135e-08
9.08354e-07
-1.57076e-08
1.22337e-06
7.62414e-08
1.61136e-06
1.891e-07
2.07709e-06
3.27067e-07
2.61735e-06
4.92876e-07
3.221e-06
6.87149e-07
3.87079e-06
9.0729e-07
4.54554e-06
1.14807e-06
5.22332e-06
1.40268e-06
5.88399e-06
1.66345e-06
6.51145e-06
1.92243e-06
7.09439e-06
2.17327e-06
7.6266e-06
2.41107e-06
8.10745e-06
2.6323e-06
8.53893e-06
2.83559e-06
8.92386e-06
3.02153e-06
9.26575e-06
3.19139e-06
9.56916e-06
3.34579e-06
9.83879e-06
3.48598e-06
1.00793e-05
3.61325e-06
1.02951e-05
3.72874e-06
1.04906e-05
3.83352e-06
1.06697e-05
3.92861e-06
1.08356e-05
4.01497e-06
1.09911e-05
4.09336e-06
1.11383e-05
4.16438e-06
1.1279e-05
4.22846e-06
1.14144e-05
4.2858e-06
1.15454e-05
4.3365e-06
1.16726e-05
4.38051e-06
1.17967e-05
4.41767e-06
1.19177e-05
4.44771e-06
1.20358e-05
4.47032e-06
1.21511e-05
4.48507e-06
1.22633e-05
4.4915e-06
1.23724e-05
4.48906e-06
1.24781e-05
4.47714e-06
1.258e-05
4.45508e-06
1.26776e-05
4.42213e-06
1.27705e-05
4.37748e-06
1.28581e-05
4.32025e-06
1.29397e-05
4.24951e-06
1.30147e-05
4.16421e-06
1.30823e-05
4.06322e-06
1.31415e-05
3.94533e-06
1.31915e-05
3.80922e-06
1.3231e-05
3.65346e-06
1.32591e-05
3.4765e-06
1.32745e-05
3.27663e-06
1.32757e-05
3.05201e-06
1.32614e-05
2.80063e-06
1.32299e-05
2.52025e-06
1.31797e-05
2.20848e-06
1.31091e-05
1.86269e-06
1.30192e-05
1.44455e-06
1.29134e-05
1.0006e-06
1.27934e-05
5.89009e-07
1.2661e-05
2.084e-07
1.25177e-05
-1.4186e-07
1.23639e-05
-4.6255e-07
1.21998e-05
-7.56896e-07
1.20262e-05
-1.02734e-06
1.1844e-05
-1.27529e-06
1.16539e-05
-1.50188e-06
1.14567e-05
-1.70817e-06
1.12531e-05
-1.89516e-06
1.1044e-05
-2.06385e-06
1.08299e-05
-2.21522e-06
1.06118e-05
-2.35027e-06
1.03903e-05
-2.46996e-06
1.01664e-05
-2.5752e-06
9.94083e-06
-2.66683e-06
9.71442e-06
-2.74551e-06
9.48795e-06
-2.81178e-06
9.26232e-06
-2.86595e-06
9.03808e-06
-2.90868e-06
8.81503e-06
-2.941e-06
8.59283e-06
-2.9641e-06
8.37135e-06
-2.9791e-06
8.15061e-06
-2.98713e-06
7.93076e-06
-2.9893e-06
7.71207e-06
-2.98671e-06
7.4949e-06
-2.9804e-06
7.27968e-06
-2.9713e-06
-2.96023e-06
-4.51215e-09
-3.19206e-07
-1.45911e-08
-1.78894e-07
-2.50493e-08
-2.0097e-07
-3.48755e-08
-2.14449e-07
-4.42653e-08
-2.23316e-07
-5.33384e-08
-2.30819e-07
-6.21096e-08
-2.37793e-07
-7.05144e-08
-2.44478e-07
-7.83968e-08
-2.50935e-07
-8.54612e-08
-2.57139e-07
-9.11753e-08
-2.62989e-07
-9.46285e-08
-2.68289e-07
-9.43861e-08
-2.72697e-07
-8.83983e-08
-2.75697e-07
-7.39806e-08
-2.76539e-07
-4.77908e-08
-2.74199e-07
-5.91276e-09
-2.67391e-07
5.59198e-08
-2.54578e-07
1.4196e-07
-2.34029e-07
2.5621e-07
-2.03962e-07
4.03181e-07
-1.62678e-07
5.88185e-07
-1.08763e-07
8.18089e-07
-4.0803e-08
1.10191e-06
4.32405e-08
1.44938e-06
1.45408e-07
1.86804e-06
2.68494e-07
2.3598e-06
4.15528e-07
2.91948e-06
5.88395e-07
3.53539e-06
7.86762e-07
4.19132e-06
1.00752e-06
4.86784e-06
1.24591e-06
5.54516e-06
1.49595e-06
6.20528e-06
1.75095e-06
6.83383e-06
2.00374e-06
7.42074e-06
2.24868e-06
7.96087e-06
2.48139e-06
8.45363e-06
2.69864e-06
8.90008e-06
2.89934e-06
9.30179e-06
3.08427e-06
9.66153e-06
3.2535e-06
9.98296e-06
3.4073e-06
1.027e-05
3.54645e-06
1.0527e-05
3.67169e-06
1.07581e-05
3.78384e-06
1.09676e-05
3.88382e-06
1.11594e-05
3.97257e-06
1.13369e-05
4.05098e-06
1.15028e-05
4.11986e-06
1.16595e-05
4.17981e-06
1.18088e-05
4.23129e-06
1.19518e-05
4.27459e-06
1.20897e-05
4.30981e-06
1.22231e-05
4.33693e-06
1.23524e-05
4.35579e-06
1.24778e-05
4.36612e-06
1.25993e-05
4.36753e-06
1.27169e-05
4.35956e-06
1.28303e-05
4.34169e-06
1.29392e-05
4.31327e-06
1.30431e-05
4.27355e-06
1.31416e-05
4.22177e-06
1.3234e-05
4.15713e-06
1.33195e-05
4.07866e-06
1.33974e-05
3.98529e-06
1.34668e-05
3.87591e-06
1.35267e-05
3.74932e-06
1.3576e-05
3.60422e-06
1.36134e-05
3.43914e-06
1.36375e-05
3.25252e-06
1.36468e-05
3.04264e-06
1.36398e-05
2.80762e-06
1.36147e-05
2.54536e-06
1.35697e-05
2.25355e-06
1.35027e-05
1.92969e-06
1.34146e-05
1.53267e-06
1.33086e-05
1.10656e-06
1.31865e-05
7.11095e-07
1.30501e-05
3.44783e-07
1.29014e-05
6.89404e-09
1.27415e-05
-3.02692e-07
1.25705e-05
-5.85872e-07
1.23886e-05
-8.45452e-07
1.21967e-05
-1.0834e-06
1.19957e-05
-1.30087e-06
1.17864e-05
-1.49885e-06
1.15696e-05
-1.67832e-06
1.13461e-05
-1.84035e-06
1.11169e-05
-1.98605e-06
1.08831e-05
-2.11651e-06
1.06459e-05
-2.23276e-06
1.04064e-05
-2.3357e-06
1.01657e-05
-2.42611e-06
9.92457e-06
-2.50437e-06
9.68347e-06
-2.57067e-06
9.44268e-06
-2.62517e-06
9.20216e-06
-2.66816e-06
8.96183e-06
-2.70067e-06
8.72166e-06
-2.72393e-06
8.48178e-06
-2.73922e-06
8.24241e-06
-2.74776e-06
8.00393e-06
-2.75082e-06
7.7668e-06
-2.74958e-06
7.53156e-06
-2.74516e-06
7.29883e-06
-2.73856e-06
7.06922e-06
-2.73062e-06
6.84335e-06
-2.72199e-06
-2.71318e-06
-4.12002e-09
-3.15086e-07
-1.28142e-08
-1.70203e-07
-2.13928e-08
-1.92397e-07
-2.92034e-08
-2.0664e-07
-3.65545e-08
-2.15965e-07
-4.36322e-08
-2.23742e-07
-5.05175e-08
-2.30908e-07
-5.72332e-08
-2.37763e-07
-6.3757e-08
-2.44412e-07
-7.00148e-08
-2.50881e-07
-7.58535e-08
-2.5715e-07
-8.09842e-08
-2.63158e-07
-8.48897e-08
-2.68791e-07
-8.67335e-08
-2.73853e-07
-8.5251e-08
-2.78022e-07
-7.86249e-08
-2.80825e-07
-6.43978e-08
-2.81618e-07
-3.94272e-08
-2.79549e-07
7.49131e-12
-2.73464e-07
5.80231e-08
-2.61978e-07
1.38842e-07
-2.43497e-07
2.46418e-07
-2.16339e-07
3.84453e-07
-1.78837e-07
5.57218e-07
-1.29525e-07
7.69842e-07
-6.72152e-08
1.02878e-06
9.55757e-09
1.34183e-06
1.02478e-07
1.71702e-06
2.13205e-07
2.15955e-06
3.44231e-07
2.66926e-06
4.97805e-07
3.23996e-06
6.75216e-07
3.86028e-06
8.75631e-07
4.51531e-06
1.09593e-06
5.18733e-06
1.33172e-06
5.8584e-06
1.57761e-06
6.51254e-06
1.82726e-06
7.13697e-06
2.0742e-06
7.723e-06
2.3133e-06
8.26713e-06
2.54014e-06
8.76845e-06
2.75219e-06
9.22669e-06
2.94907e-06
9.64261e-06
3.13052e-06
1.00183e-05
3.29604e-06
1.03563e-05
3.44578e-06
1.06602e-05
3.57999e-06
1.09336e-05
3.69915e-06
1.11806e-05
3.80392e-06
1.14053e-05
3.89516e-06
1.16114e-05
3.97376e-06
1.18021e-05
4.04061e-06
1.19801e-05
4.09651e-06
1.21479e-05
4.1421e-06
1.2307e-05
4.17783e-06
1.24588e-05
4.204e-06
1.26042e-05
4.22072e-06
1.27438e-05
4.22784e-06
1.28781e-05
4.22533e-06
1.30069e-05
4.21285e-06
1.31303e-05
4.18989e-06
1.32481e-05
4.15572e-06
1.336e-05
4.10988e-06
1.34653e-05
4.05181e-06
1.35634e-05
3.98059e-06
1.36535e-05
3.89517e-06
1.37348e-05
3.79458e-06
1.38063e-05
3.67782e-06
1.38668e-05
3.54374e-06
1.3915e-05
3.39097e-06
1.39494e-05
3.21809e-06
1.39685e-05
3.02357e-06
1.39704e-05
2.80573e-06
1.39532e-05
2.56258e-06
1.39148e-05
2.29196e-06
1.38529e-05
1.99154e-06
1.3768e-05
1.6176e-06
1.3663e-05
1.21157e-06
1.35395e-05
8.3456e-07
1.33993e-05
4.84959e-07
1.32446e-05
1.61641e-07
1.30775e-05
-1.35643e-07
1.28989e-05
-4.07196e-07
1.27086e-05
-6.55174e-07
1.25071e-05
-8.81932e-07
1.22951e-05
-1.08892e-06
1.20736e-05
-1.27727e-06
1.18434e-05
-1.44817e-06
1.16059e-05
-1.60281e-06
1.13623e-05
-1.74245e-06
1.11141e-05
-1.86835e-06
1.08627e-05
-1.98131e-06
1.06089e-05
-2.08199e-06
1.03538e-05
-2.17096e-06
1.00978e-05
-2.24836e-06
9.84093e-06
-2.31382e-06
9.58286e-06
-2.3671e-06
9.3236e-06
-2.4089e-06
9.06354e-06
-2.4406e-06
8.80307e-06
-2.46347e-06
8.54265e-06
-2.4788e-06
8.28283e-06
-2.48793e-06
8.02419e-06
-2.49218e-06
7.76744e-06
-2.49282e-06
7.5133e-06
-2.49102e-06
7.26252e-06
-2.48779e-06
7.01584e-06
-2.48394e-06
6.77396e-06
-2.48011e-06
6.5375e-06
-2.47673e-06
-2.47402e-06
-3.6113e-09
-3.11473e-07
-1.05044e-08
-1.63307e-07
-1.67636e-08
-1.86144e-07
-2.22067e-08
-2.01201e-07
-2.71884e-08
-2.10985e-07
-3.18954e-08
-2.19036e-07
-3.64194e-08
-2.26385e-07
-4.08045e-08
-2.33378e-07
-4.50639e-08
-2.40152e-07
-4.91826e-08
-2.46762e-07
-5.31138e-08
-2.53219e-07
-5.67708e-08
-2.59501e-07
-5.9998e-08
-2.65564e-07
-6.25134e-08
-2.71338e-07
-6.38272e-08
-2.76708e-07
-6.31662e-08
-2.81486e-07
-5.94014e-08
-2.85383e-07
-5.09604e-08
-2.8799e-07
-3.56761e-08
-2.88748e-07
-1.0733e-08
-2.86921e-07
2.73198e-08
-2.8155e-07
8.23938e-08
-2.71414e-07
1.58633e-07
-2.55078e-07
2.60053e-07
-2.30946e-07
3.90205e-07
-1.97368e-07
5.52555e-07
-1.52793e-07
7.50994e-07
-9.59611e-08
9.90079e-07
-2.58804e-08
1.27536e-06
5.89507e-08
1.61312e-06
1.60047e-07
2.00967e-06
2.78658e-07
2.4685e-06
4.16806e-07
2.98821e-06
5.76214e-07
3.56229e-06
7.57642e-07
4.17993e-06
9.59975e-07
4.82721e-06
1.17998e-06
5.48821e-06
1.41321e-06
6.14689e-06
1.65463e-06
6.78927e-06
1.89776e-06
7.4046e-06
2.13686e-06
7.98663e-06
2.36704e-06
8.53246e-06
2.58469e-06
9.04012e-06
2.78838e-06
9.5084e-06
2.9775e-06
9.93734e-06
3.15105e-06
1.0328e-05
3.3085e-06
1.06824e-05
3.44953e-06
1.10033e-05
3.57419e-06
1.12943e-05
3.68283e-06
1.15588e-05
3.77609e-06
1.18005e-05
3.8548e-06
1.20228e-05
3.91983e-06
1.22286e-05
3.972e-06
1.24205e-05
4.01206e-06
1.26007e-05
4.04056e-06
1.27705e-05
4.05799e-06
1.29313e-05
4.06462e-06
1.30838e-05
4.06028e-06
1.32287e-05
4.04506e-06
1.33665e-05
4.01786e-06
1.34968e-05
3.97956e-06
1.36192e-05
3.92946e-06
1.37333e-05
3.86649e-06
1.38387e-05
3.78973e-06
1.39349e-05
3.69846e-06
1.40206e-05
3.5921e-06
1.40947e-05
3.46965e-06
1.41559e-05
3.32975e-06
1.42028e-05
3.17116e-06
1.42337e-05
2.99272e-06
1.42464e-05
2.79295e-06
1.4239e-05
2.57e-06
1.42092e-05
2.32181e-06
1.41544e-05
2.04634e-06
1.40744e-05
1.69754e-06
1.3972e-05
1.31399e-06
1.38486e-05
9.5798e-07
1.37057e-05
6.27832e-07
1.35452e-05
3.22182e-07
1.33694e-05
4.01377e-08
1.31808e-05
-2.18614e-07
1.29804e-05
-4.54786e-07
1.27683e-05
-6.69829e-07
1.25451e-05
-8.65689e-07
1.23119e-05
-1.04407e-06
1.20701e-05
-1.20635e-06
1.1821e-05
-1.35369e-06
1.15657e-05
-1.4872e-06
1.13054e-05
-1.60799e-06
1.10407e-05
-1.71668e-06
1.07724e-05
-1.81366e-06
1.05006e-05
-1.8992e-06
1.02258e-05
-1.9735e-06
9.94835e-06
-2.0364e-06
9.66882e-06
-2.08757e-06
9.38762e-06
-2.1277e-06
9.10538e-06
-2.15836e-06
8.82282e-06
-2.1809e-06
8.54062e-06
-2.19661e-06
8.25954e-06
-2.20685e-06
7.98037e-06
-2.21301e-06
7.70397e-06
-2.21643e-06
7.43123e-06
-2.21828e-06
7.16302e-06
-2.21957e-06
6.90014e-06
-2.22106e-06
6.64334e-06
-2.22331e-06
6.39324e-06
-2.22663e-06
6.15036e-06
-2.23115e-06
5.91511e-06
-2.23685e-06
-2.24358e-06
-3.11874e-09
-3.08356e-07
-8.1513e-09
-1.58272e-07
-1.19364e-08
-1.82355e-07
-1.51006e-08
-1.98034e-07
-1.78497e-08
-2.08235e-07
-2.03252e-08
-2.16559e-07
-2.2604e-08
-2.24105e-07
-2.47267e-08
-2.31255e-07
-2.67121e-08
-2.38166e-07
-2.85648e-08
-2.44909e-07
-3.02743e-08
-2.51509e-07
-3.18065e-08
-2.57968e-07
-3.30997e-08
-2.64271e-07
-3.40543e-08
-2.70384e-07
-3.4506e-08
-2.76256e-07
-3.41785e-08
-2.81813e-07
-3.26215e-08
-2.8694e-07
-2.91521e-08
-2.91459e-07
-2.27903e-08
-2.95109e-07
-1.21733e-08
-2.97538e-07
4.55263e-09
-2.98275e-07
2.98449e-08
-2.96705e-07
6.67951e-08
-2.92027e-07
1.19038e-07
-2.83188e-07
1.90572e-07
-2.68902e-07
2.85452e-07
-2.47672e-07
4.07383e-07
-2.17891e-07
5.59465e-07
-1.77962e-07
7.44826e-07
-1.2641e-07
9.66948e-07
-6.20754e-08
1.22973e-06
1.58759e-08
1.53766e-06
1.08872e-07
1.8955e-06
2.18377e-07
2.30783e-06
3.45317e-07
2.77685e-06
4.9095e-07
3.30052e-06
6.56309e-07
3.87221e-06
8.41517e-07
4.48157e-06
1.04526e-06
5.11538e-06
1.26395e-06
5.75953e-06
1.49271e-06
6.40061e-06
1.72596e-06
7.0271e-06
1.9582e-06
7.63103e-06
2.18445e-06
8.20786e-06
2.40067e-06
8.75392e-06
2.60499e-06
9.26611e-06
2.79631e-06
9.74255e-06
2.97309e-06
1.01827e-05
3.13402e-06
1.05872e-05
3.27836e-06
1.09575e-05
3.4058e-06
1.12959e-05
3.51641e-06
1.16051e-05
3.61058e-06
1.18882e-05
3.68891e-06
1.21482e-05
3.75212e-06
1.23878e-05
3.80094e-06
1.26097e-05
3.83608e-06
1.28162e-05
3.8581e-06
1.30091e-05
3.8674e-06
1.319e-05
3.86414e-06
1.33589e-05
3.84897e-06
1.35163e-05
3.8221e-06
1.36639e-05
3.78194e-06
1.38011e-05
3.72923e-06
1.39283e-05
3.66254e-06
1.40448e-05
3.58197e-06
1.41493e-05
3.48766e-06
1.42408e-05
3.37812e-06
1.43186e-05
3.25192e-06
1.43814e-05
3.10836e-06
1.44272e-05
2.94693e-06
1.44537e-05
2.76647e-06
1.44587e-05
2.56502e-06
1.44399e-05
2.34055e-06
1.43947e-05
2.09157e-06
1.43222e-05
1.77006e-06
1.42247e-05
1.41151e-06
1.41036e-05
1.07904e-06
1.39605e-05
7.7098e-07
1.37968e-05
4.85899e-07
1.36143e-05
2.22594e-07
1.34155e-05
-1.98181e-08
1.32027e-05
-2.42004e-07
1.29778e-05
-4.44948e-07
1.27423e-05
-6.30172e-07
1.24974e-05
-7.99159e-07
1.22442e-05
-9.53173e-07
1.19838e-05
-1.09324e-06
1.17166e-05
-1.22004e-06
1.14427e-05
-1.33404e-06
1.11621e-05
-1.43608e-06
1.08752e-05
-1.52683e-06
1.05828e-05
-1.60674e-06
1.02854e-05
-1.67615e-06
9.98436e-06
-1.73533e-06
9.68111e-06
-1.78432e-06
9.37676e-06
-1.82334e-06
9.07193e-06
-1.85354e-06
8.76734e-06
-1.87631e-06
8.4638e-06
-1.89306e-06
8.16221e-06
-1.90526e-06
7.86356e-06
-1.91436e-06
7.56885e-06
-1.92172e-06
7.27909e-06
-1.92852e-06
6.99523e-06
-1.93571e-06
6.71813e-06
-1.94396e-06
6.44851e-06
-1.95369e-06
6.18698e-06
-1.96509e-06
5.93399e-06
-1.97815e-06
5.68986e-06
-1.99271e-06
5.45478e-06
-2.00851e-06
5.22887e-06
-2.02522e-06
5.01212e-06
-2.04248e-06
4.80447e-06
-2.05991e-06
-2.07718e-06
-2.67344e-09
-3.05685e-07
-6.03425e-09
-1.54914e-07
-7.77024e-09
-1.80621e-07
-8.96128e-09
-1.96844e-07
-9.78685e-09
-2.07411e-07
-1.03585e-08
-2.1599e-07
-1.07324e-08
-2.23733e-07
-1.09353e-08
-2.31053e-07
-1.09769e-08
-2.38126e-07
-1.08571e-08
-2.4503e-07
-1.05687e-08
-2.51798e-07
-1.00928e-08
-2.58445e-07
-9.39768e-09
-2.64966e-07
-8.43738e-09
-2.71344e-07
-7.14412e-09
-2.7755e-07
-5.41557e-09
-2.83542e-07
-3.09081e-09
-2.89265e-07
9.07273e-11
-2.94641e-07
4.53929e-09
-2.99559e-07
1.08541e-08
-3.03853e-07
1.98684e-08
-3.0729e-07
3.27238e-08
-3.09561e-07
5.09644e-08
-3.10268e-07
7.66688e-08
-3.08893e-07
1.12526e-07
-3.04759e-07
1.61824e-07
-2.96971e-07
2.28327e-07
-2.84394e-07
3.16018e-07
-2.65654e-07
4.28803e-07
-2.39194e-07
5.70126e-07
-2.03398e-07
7.42706e-07
-1.56703e-07
9.49263e-07
-9.7685e-08
1.19289e-06
-2.52476e-08
1.47689e-06
6.13168e-08
1.80471e-06
1.63122e-07
2.17954e-06
2.81482e-07
2.60392e-06
4.17137e-07
3.07898e-06
5.70198e-07
3.60215e-06
7.40775e-07
4.16681e-06
9.28056e-07
4.76287e-06
1.1299e-06
5.37826e-06
1.34282e-06
6.00094e-06
1.56176e-06
6.62041e-06
1.7812e-06
7.2287e-06
1.99669e-06
7.81991e-06
2.20511e-06
8.38891e-06
2.40409e-06
8.93147e-06
2.59146e-06
9.44445e-06
2.76538e-06
9.92584e-06
2.92441e-06
1.03747e-05
3.06754e-06
1.07911e-05
3.19417e-06
1.1176e-05
3.30406e-06
1.15308e-05
3.39729e-06