/*--------------------------------*- C++ -*----------------------------------*\
  =========                 |
  \\      /  F ield         | OpenFOAM: The Open Source CFD Toolbox
   \\    /   O peration     | Website:  https://openfoam.org
    \\  /    A nd           | Version:  10
     \\/     M anipulation  |
\*---------------------------------------------------------------------------*/
FoamFile
{
    format      ascii;
    class       volScalarField;
    location    "19000";
    object      yPlus;
}
// * * * * * * * * * * * * * * * * * * * * * * * * * * * * * * * * * * * * * //

dimensions      [0 0 0 0 0 0 0];

internalField   uniform 0;

boundaryField
{
    right
    {
        type            cyclic;
    }
    left
    {
        type            cyclic;
    }
    outerWall
    {
        type            calculated;
        value           nonuniform List<scalar> 0();
    }
    stirrerWall
    {
        type            calculated;
        value           nonuniform List<scalar> 
98
(
0.348279
0.345799
0.343475
0.341461
0.339953
0.3392
0.339523
0.341333
0.345169
0.351712
0.361813
0.376525
0.397168
0.425559
0.464909
0.520636
0.609461
0.805597
1.44135
3.89716
12.2079
10.3268
8.5531
7.37755
6.71827
6.2949
5.99062
5.76309
5.58758
5.44696
5.33087
5.23303
5.14914
5.07615
5.01187
4.95442
4.90267
4.85578
4.81305
4.77395
4.73809
4.70517
4.67495
4.64725
4.62195
4.59891
4.57808
4.55937
4.54274
4.52812
4.51547
4.50472
4.49574
4.48827
4.48183
4.47538
4.4665
4.44976
4.4252
4.31343
11.3685
11.4316
11.2334
11.5972
11.6983
11.7551
11.7236
11.4266
11.5311
11.6439
11.8186
11.9995
12.1855
12.3766
12.573
12.7753
12.9838
13.1992
13.4221
13.6536
13.8949
14.1475
14.4136
14.6957
14.993
15.3072
15.6442
16.01
16.4266
16.8739
17.3696
17.9277
18.5654
19.2999
20.144
21.1219
22.2251
23.6328
)
;
    }
    top
    {
        type            empty;
    }
    bottom
    {
        type            empty;
    }
    procBoundary0to1
    {
        type            processor;
        value           uniform 0;
    }
    procBoundary0to3
    {
        type            processor;
        value           uniform 0;
    }
}


// ************************************************************************* //
