/*--------------------------------*- C++ -*----------------------------------*\
  =========                 |
  \\      /  F ield         | OpenFOAM: The Open Source CFD Toolbox
   \\    /   O peration     | Website:  https://openfoam.org
    \\  /    A nd           | Version:  10
     \\/     M anipulation  |
\*---------------------------------------------------------------------------*/
FoamFile
{
    format      ascii;
    class       volScalarField;
    location    "46000";
    object      nut;
}
// * * * * * * * * * * * * * * * * * * * * * * * * * * * * * * * * * * * * * //

dimensions      [0 2 -1 0 0 0 0];

internalField   nonuniform List<scalar> 
17808
(
2.90133e-06
2.12603e-05
3.70402e-05
5.24088e-05
6.8619e-05
8.54033e-05
0.000102645
0.000120285
0.00013829
0.000156642
0.000175329
0.000194343
0.000213683
0.000233345
0.00025333
0.000273639
0.000294275
0.000315238
0.000336533
0.000358163
0.000380131
0.000402442
0.0004251
0.000448109
0.000471474
0.0004952
0.000519292
0.000543755
0.000568594
0.000593814
0.000619422
0.000645421
0.000671819
0.000698621
0.000725832
0.000753458
0.000781506
0.00080998
0.000838887
0.000868234
0.000898025
0.000928267
0.000958966
0.000990128
0.00102176
0.00105387
0.00108645
0.00111952
0.00115309
0.00118715
0.00122172
0.00125679
0.00129238
0.00132849
0.00136512
0.00140229
0.00143998
0.00147821
0.00151699
0.00155631
0.00159617
0.0016366
0.00167757
0.0017191
0.00176119
0.00180383
0.00184703
0.00189078
0.00193508
0.00197994
0.00202534
0.00207129
0.00211778
0.00216481
0.00221236
0.00226044
0.00230902
0.00235811
0.00240768
0.00245773
0.00250823
0.00255918
0.00261055
0.00266231
0.00271446
0.00276696
0.00281978
0.00287289
0.00292626
0.00297985
0.00303362
0.00308753
2.89168e-06
2.15522e-05
3.70231e-05
5.23932e-05
6.85999e-05
8.53809e-05
0.00010262
0.000120257
0.00013826
0.00015661
0.000175296
0.000194309
0.000213648
0.00023331
0.000253295
0.000273605
0.00029424
0.000315204
0.000336499
0.000358129
0.000380098
0.000402409
0.000425068
0.000448077
0.000471443
0.00049517
0.000519263
0.000543726
0.000568566
0.000593787
0.000619395
0.000645395
0.000671794
0.000698596
0.000725807
0.000753434
0.000781482
0.000809957
0.000838865
0.000868212
0.000898004
0.000928247
0.000958946
0.000990109
0.00102174
0.00105385
0.00108643
0.00111951
0.00115307
0.00118714
0.0012217
0.00125678
0.00129237
0.00132848
0.00136511
0.00140227
0.00143997
0.0014782
0.00151698
0.0015563
0.00159616
0.00163659
0.00167756
0.00171909
0.00176118
0.00180382
0.00184702
0.00189077
0.00193507
0.00197993
0.00202533
0.00207128
0.00211778
0.0021648
0.00221236
0.00226043
0.00230902
0.0023581
0.00240768
0.00245773
0.00250823
0.00255918
0.00261055
0.00266232
0.00271446
0.00276696
0.00281978
0.00287289
0.00292626
0.00297985
0.00303363
0.00308754
2.88696e-06
2.16195e-05
3.70018e-05
5.2373e-05
6.85778e-05
8.53577e-05
0.000102595
0.000120232
0.000138234
0.000156583
0.000175268
0.000194282
0.00021362
0.000233282
0.000253267
0.000273577
0.000294212
0.000315176
0.000336472
0.000358102
0.000380071
0.000402383
0.000425042
0.000448052
0.000471418
0.000495146
0.000519239
0.000543703
0.000568543
0.000593764
0.000619373
0.000645374
0.000671772
0.000698575
0.000725787
0.000753415
0.000781463
0.000809938
0.000838847
0.000868194
0.000897987
0.00092823
0.00095893
0.000990093
0.00102173
0.00105383
0.00108642
0.00111949
0.00115306
0.00118712
0.00122169
0.00125677
0.00129236
0.00132847
0.0013651
0.00140226
0.00143996
0.00147819
0.00151697
0.00155629
0.00159616
0.00163658
0.00167756
0.00171909
0.00176117
0.00180382
0.00184701
0.00189077
0.00193507
0.00197993
0.00202533
0.00207128
0.00211777
0.0021648
0.00221236
0.00226043
0.00230902
0.00235811
0.00240768
0.00245773
0.00250823
0.00255918
0.00261055
0.00266232
0.00271447
0.00276697
0.00281979
0.0028729
0.00292627
0.00297986
0.00303364
0.00308755
2.88621e-06
2.16006e-05
3.69867e-05
5.23557e-05
6.85586e-05
8.53373e-05
0.000102574
0.000120209
0.000138211
0.000156559
0.000175244
0.000194257
0.000213595
0.000233257
0.000253243
0.000273552
0.000294188
0.000315152
0.000336448
0.000358079
0.000380048
0.000402361
0.00042502
0.00044803
0.000471397
0.000495125
0.000519218
0.000543682
0.000568523
0.000593745
0.000619354
0.000645355
0.000671754
0.000698557
0.00072577
0.000753397
0.000781446
0.000809922
0.000838831
0.000868179
0.000897971
0.000928215
0.000958916
0.000990079
0.00102171
0.00105382
0.00108641
0.00111948
0.00115305
0.00118711
0.00122168
0.00125676
0.00129235
0.00132846
0.00136509
0.00140225
0.00143995
0.00147818
0.00151696
0.00155628
0.00159615
0.00163657
0.00167755
0.00171908
0.00176117
0.00180381
0.00184701
0.00189076
0.00193507
0.00197992
0.00202533
0.00207128
0.00211777
0.0021648
0.00221236
0.00226043
0.00230902
0.00235811
0.00240768
0.00245773
0.00250824
0.00255919
0.00261056
0.00266233
0.00271447
0.00276697
0.00281979
0.00287291
0.00292628
0.00297987
0.00303365
0.00308756
2.88596e-06
2.15924e-05
3.69779e-05
5.23439e-05
6.85456e-05
8.53234e-05
0.000102559
0.000120193
0.000138194
0.000156541
0.000175225
0.000194237
0.000213575
0.000233237
0.000253222
0.000273531
0.000294167
0.000315132
0.000336428
0.000358059
0.000380029
0.000402341
0.000425001
0.000448011
0.000471378
0.000495106
0.0005192
0.000543665
0.000568505
0.000593728
0.000619337
0.000645338
0.000671738
0.000698541
0.000725754
0.000753382
0.000781431
0.000809908
0.000838817
0.000868165
0.000897958
0.000928202
0.000958903
0.000990067
0.0010217
0.00105381
0.00108639
0.00111947
0.00115304
0.0011871
0.00122167
0.00125675
0.00129234
0.00132845
0.00136508
0.00140225
0.00143994
0.00147818
0.00151695
0.00155627
0.00159615
0.00163657
0.00167754
0.00171908
0.00176116
0.00180381
0.001847
0.00189076
0.00193506
0.00197992
0.00202533
0.00207128
0.00211777
0.0021648
0.00221236
0.00226043
0.00230902
0.00235811
0.00240768
0.00245773
0.00250824
0.00255919
0.00261056
0.00266233
0.00271448
0.00276698
0.0028198
0.00287292
0.00292629
0.00297988
0.00303366
0.00308757
2.88565e-06
2.15895e-05
3.69719e-05
5.23346e-05
6.85358e-05
8.53127e-05
0.000102547
0.000120181
0.00013818
0.000156527
0.00017521
0.000194221
0.000213559
0.00023322
0.000253205
0.000273514
0.00029415
0.000315114
0.00033641
0.000358041
0.000380011
0.000402324
0.000424984
0.000447995
0.000471362
0.00049509
0.000519184
0.000543649
0.00056849
0.000593713
0.000619322
0.000645324
0.000671724
0.000698528
0.000725741
0.000753369
0.000781418
0.000809895
0.000838804
0.000868153
0.000897946
0.00092819
0.000958891
0.000990056
0.00102169
0.0010538
0.00108638
0.00111946
0.00115303
0.00118709
0.00122166
0.00125674
0.00129233
0.00132844
0.00136507
0.00140224
0.00143994
0.00147817
0.00151695
0.00155627
0.00159614
0.00163656
0.00167754
0.00171907
0.00176116
0.0018038
0.001847
0.00189075
0.00193506
0.00197992
0.00202533
0.00207128
0.00211777
0.0021648
0.00221236
0.00226044
0.00230902
0.00235811
0.00240769
0.00245774
0.00250825
0.00255919
0.00261057
0.00266234
0.00271449
0.00276699
0.00281981
0.00287292
0.0029263
0.00297989
0.00303366
0.00308758
2.8856e-06
2.15854e-05
3.69676e-05
5.23269e-05
6.85272e-05
8.53033e-05
0.000102537
0.00012017
0.000138169
0.000156515
0.000175196
0.000194208
0.000213544
0.000233205
0.000253189
0.000273498
0.000294134
0.000315098
0.000336395
0.000358026
0.000379996
0.000402309
0.000424969
0.00044798
0.000471347
0.000495076
0.00051917
0.000543635
0.000568476
0.000593699
0.000619309
0.000645311
0.000671711
0.000698515
0.000725729
0.000753357
0.000781407
0.000809884
0.000838793
0.000868142
0.000897936
0.00092818
0.000958882
0.000990046
0.00102168
0.00105379
0.00108638
0.00111945
0.00115302
0.00118708
0.00122165
0.00125673
0.00129232
0.00132843
0.00136507
0.00140223
0.00143993
0.00147816
0.00151694
0.00155626
0.00159614
0.00163656
0.00167754
0.00171907
0.00176116
0.0018038
0.001847
0.00189075
0.00193506
0.00197992
0.00202532
0.00207128
0.00211777
0.0021648
0.00221236
0.00226044
0.00230903
0.00235811
0.00240769
0.00245774
0.00250825
0.0025592
0.00261057
0.00266234
0.00271449
0.00276699
0.00281982
0.00287293
0.0029263
0.0029799
0.00303367
0.00308759
2.88582e-06
2.15819e-05
3.69647e-05
5.23208e-05
6.852e-05
8.52952e-05
0.000102529
0.000120161
0.000138159
0.000156504
0.000175185
0.000194196
0.000213532
0.000233192
0.000253176
0.000273485
0.00029412
0.000315084
0.00033638
0.000358012
0.000379982
0.000402295
0.000424955
0.000447966
0.000471334
0.000495063
0.000519157
0.000543623
0.000568464
0.000593687
0.000619297
0.0006453
0.0006717
0.000698504
0.000725718
0.000753347
0.000781397
0.000809874
0.000838784
0.000868132
0.000897926
0.000928171
0.000958873
0.000990037
0.00102167
0.00105378
0.00108637
0.00111944
0.00115301
0.00118708
0.00122165
0.00125672
0.00129232
0.00132843
0.00136506
0.00140223
0.00143992
0.00147816
0.00151694
0.00155626
0.00159613
0.00163656
0.00167753
0.00171906
0.00176115
0.0018038
0.00184699
0.00189075
0.00193506
0.00197992
0.00202532
0.00207128
0.00211777
0.0021648
0.00221236
0.00226044
0.00230903
0.00235812
0.00240769
0.00245774
0.00250825
0.0025592
0.00261058
0.00266235
0.0027145
0.002767
0.00281982
0.00287294
0.00292631
0.00297991
0.00303368
0.0030876
2.88614e-06
2.15798e-05
3.6963e-05
5.2316e-05
6.85138e-05
8.52883e-05
0.000102521
0.000120153
0.00013815
0.000156495
0.000175175
0.000194185
0.000213521
0.00023318
0.000253164
0.000273473
0.000294108
0.000315072
0.000336368
0.000357999
0.000379969
0.000402282
0.000424942
0.000447954
0.000471322
0.000495051
0.000519145
0.000543611
0.000568453
0.000593676
0.000619286
0.000645289
0.00067169
0.000698494
0.000725708
0.000753337
0.000781387
0.000809865
0.000838775
0.000868124
0.000897918
0.000928163
0.000958865
0.00099003
0.00102166
0.00105377
0.00108636
0.00111944
0.001153
0.00118707
0.00122164
0.00125672
0.00129231
0.00132842
0.00136506
0.00140222
0.00143992
0.00147816
0.00151693
0.00155626
0.00159613
0.00163655
0.00167753
0.00171906
0.00176115
0.00180379
0.00184699
0.00189075
0.00193506
0.00197991
0.00202532
0.00207128
0.00211777
0.0021648
0.00221236
0.00226044
0.00230903
0.00235812
0.0024077
0.00245775
0.00250826
0.00255921
0.00261058
0.00266236
0.00271451
0.00276701
0.00281983
0.00287295
0.00292632
0.00297992
0.00303369
0.00308761
2.88649e-06
2.15786e-05
3.69622e-05
5.23123e-05
6.85087e-05
8.52823e-05
0.000102515
0.000120146
0.000138143
0.000156487
0.000175167
0.000194176
0.000213511
0.00023317
0.000253154
0.000273462
0.000294097
0.000315061
0.000336357
0.000357988
0.000379958
0.000402271
0.000424931
0.000447943
0.000471311
0.00049504
0.000519135
0.000543601
0.000568443
0.000593666
0.000619277
0.000645279
0.00067168
0.000698485
0.000725699
0.000753328
0.000781379
0.000809856
0.000838767
0.000868116
0.000897911
0.000928156
0.000958858
0.000990023
0.00102166
0.00105377
0.00108636
0.00111943
0.001153
0.00118707
0.00122163
0.00125671
0.00129231
0.00132842
0.00136505
0.00140222
0.00143992
0.00147815
0.00151693
0.00155625
0.00159613
0.00163655
0.00167753
0.00171906
0.00176115
0.00180379
0.00184699
0.00189075
0.00193505
0.00197991
0.00202532
0.00207128
0.00211777
0.0021648
0.00221236
0.00226044
0.00230903
0.00235812
0.0024077
0.00245775
0.00250826
0.00255921
0.00261059
0.00266236
0.00271451
0.00276701
0.00281984
0.00287296
0.00292633
0.00297993
0.0030337
0.00308762
2.88686e-06
2.15778e-05
3.69622e-05
5.23097e-05
6.85043e-05
8.52771e-05
0.000102509
0.00012014
0.000138136
0.00015648
0.00017516
0.000194168
0.000213503
0.000233162
0.000253144
0.000273452
0.000294087
0.000315051
0.000336346
0.000357977
0.000379948
0.000402261
0.000424921
0.000447933
0.000471301
0.00049503
0.000519125
0.000543591
0.000568433
0.000593657
0.000619267
0.000645271
0.000671672
0.000698477
0.000725691
0.00075332
0.000781371
0.000809849
0.00083876
0.000868109
0.000897904
0.000928149
0.000958852
0.000990017
0.00102165
0.00105376
0.00108635
0.00111943
0.00115299
0.00118706
0.00122163
0.00125671
0.0012923
0.00132841
0.00136505
0.00140222
0.00143991
0.00147815
0.00151693
0.00155625
0.00159612
0.00163655
0.00167753
0.00171906
0.00176115
0.00180379
0.00184699
0.00189074
0.00193505
0.00197991
0.00202532
0.00207128
0.00211778
0.00216481
0.00221237
0.00226045
0.00230904
0.00235813
0.0024077
0.00245776
0.00250827
0.00255922
0.00261059
0.00266237
0.00271452
0.00276702
0.00281985
0.00287296
0.00292634
0.00297994
0.00303371
0.00308763
2.88723e-06
2.15775e-05
3.69628e-05
5.23079e-05
6.85008e-05
8.52726e-05
0.000102504
0.000120134
0.000138131
0.000156474
0.000175153
0.000194161
0.000213495
0.000233154
0.000253136
0.000273444
0.000294078
0.000315041
0.000336337
0.000357968
0.000379938
0.000402251
0.000424911
0.000447923
0.000471291
0.000495021
0.000519116
0.000543582
0.000568424
0.000593648
0.000619259
0.000645262
0.000671664
0.000698469
0.000725683
0.000753313
0.000781364
0.000809842
0.000838753
0.000868103
0.000897898
0.000928143
0.000958846
0.000990012
0.00102165
0.00105376
0.00108635
0.00111942
0.00115299
0.00118706
0.00122163
0.00125671
0.0012923
0.00132841
0.00136505
0.00140221
0.00143991
0.00147815
0.00151693
0.00155625
0.00159612
0.00163655
0.00167752
0.00171906
0.00176114
0.00180379
0.00184699
0.00189074
0.00193505
0.00197991
0.00202533
0.00207128
0.00211778
0.00216481
0.00221237
0.00226045
0.00230904
0.00235813
0.00240771
0.00245776
0.00250827
0.00255923
0.0026106
0.00266237
0.00271453
0.00276703
0.00281986
0.00287297
0.00292635
0.00297995
0.00303372
0.00308764
2.8876e-06
2.15775e-05
3.6964e-05
5.23069e-05
6.8498e-05
8.52687e-05
0.0001025
0.00012013
0.000138126
0.000156469
0.000175147
0.000194155
0.000213489
0.000233147
0.000253129
0.000273436
0.00029407
0.000315033
0.000336329
0.00035796
0.00037993
0.000402243
0.000424903
0.000447915
0.000471283
0.000495012
0.000519107
0.000543573
0.000568416
0.00059364
0.000619251
0.000645255
0.000671656
0.000698461
0.000725676
0.000753306
0.000781357
0.000809836
0.000838747
0.000868097
0.000897892
0.000928138
0.000958841
0.000990007
0.00102164
0.00105375
0.00108634
0.00111942
0.00115299
0.00118705
0.00122162
0.0012567
0.0012923
0.00132841
0.00136505
0.00140221
0.00143991
0.00147815
0.00151693
0.00155625
0.00159612
0.00163655
0.00167752
0.00171906
0.00176114
0.00180379
0.00184699
0.00189074
0.00193505
0.00197992
0.00202533
0.00207128
0.00211778
0.00216481
0.00221237
0.00226045
0.00230904
0.00235813
0.00240771
0.00245777
0.00250828
0.00255923
0.00261061
0.00266238
0.00271453
0.00276704
0.00281986
0.00287298
0.00292636
0.00297996
0.00303373
0.00308765
2.88795e-06
2.15778e-05
3.69655e-05
5.23065e-05
6.84958e-05
8.52655e-05
0.000102496
0.000120125
0.000138121
0.000156464
0.000175142
0.00019415
0.000213483
0.00023314
0.000253122
0.000273429
0.000294063
0.000315026
0.000336321
0.000357952
0.000379922
0.000402235
0.000424895
0.000447907
0.000471275
0.000495004
0.000519099
0.000543566
0.000568408
0.000593633
0.000619244
0.000645247
0.000671649
0.000698455
0.00072567
0.0007533
0.000781351
0.00080983
0.000838741
0.000868091
0.000897887
0.000928133
0.000958836
0.000990002
0.00102164
0.00105375
0.00108634
0.00111941
0.00115298
0.00118705
0.00122162
0.0012567
0.00129229
0.00132841
0.00136504
0.00140221
0.00143991
0.00147815
0.00151693
0.00155625
0.00159612
0.00163655
0.00167752
0.00171906
0.00176114
0.00180379
0.00184699
0.00189075
0.00193506
0.00197992
0.00202533
0.00207128
0.00211778
0.00216481
0.00221237
0.00226046
0.00230905
0.00235814
0.00240772
0.00245777
0.00250829
0.00255924
0.00261061
0.00266239
0.00271454
0.00276705
0.00281987
0.00287299
0.00292637
0.00297997
0.00303375
0.00308766
2.88828e-06
2.15783e-05
3.69674e-05
5.23067e-05
6.84943e-05
8.52628e-05
0.000102492
0.000120121
0.000138117
0.000156459
0.000175137
0.000194145
0.000213477
0.000233135
0.000253116
0.000273423
0.000294056
0.000315019
0.000336314
0.000357945
0.000379915
0.000402227
0.000424888
0.000447899
0.000471268
0.000494997
0.000519092
0.000543559
0.000568401
0.000593626
0.000619237
0.000645241
0.000671643
0.000698448
0.000725664
0.000753294
0.000781346
0.000809824
0.000838736
0.000868086
0.000897882
0.000928128
0.000958832
0.000989998
0.00102163
0.00105374
0.00108633
0.00111941
0.00115298
0.00118705
0.00122162
0.0012567
0.00129229
0.0013284
0.00136504
0.00140221
0.00143991
0.00147815
0.00151693
0.00155625
0.00159612
0.00163655
0.00167752
0.00171906
0.00176115
0.00180379
0.00184699
0.00189075
0.00193506
0.00197992
0.00202533
0.00207129
0.00211779
0.00216482
0.00221238
0.00226046
0.00230905
0.00235814
0.00240772
0.00245778
0.00250829
0.00255925
0.00261062
0.0026624
0.00271455
0.00276706
0.00281988
0.002873
0.00292638
0.00297998
0.00303376
0.00308767
2.88858e-06
2.15789e-05
3.69695e-05
5.23074e-05
6.84934e-05
8.52606e-05
0.000102489
0.000120118
0.000138113
0.000156455
0.000175133
0.00019414
0.000213473
0.00023313
0.000253111
0.000273417
0.00029405
0.000315013
0.000336308
0.000357938
0.000379908
0.000402221
0.000424881
0.000447893
0.000471261
0.00049499
0.000519086
0.000543552
0.000568395
0.000593619
0.000619231
0.000645235
0.000671637
0.000698443
0.000725658
0.000753288
0.00078134
0.000809819
0.000838731
0.000868082
0.000897877
0.000928124
0.000958828
0.000989994
0.00102163
0.00105374
0.00108633
0.00111941
0.00115298
0.00118705
0.00122162
0.0012567
0.00129229
0.0013284
0.00136504
0.00140221
0.00143991
0.00147815
0.00151693
0.00155625
0.00159612
0.00163655
0.00167753
0.00171906
0.00176115
0.00180379
0.00184699
0.00189075
0.00193506
0.00197992
0.00202533
0.00207129
0.00211779
0.00216482
0.00221238
0.00226047
0.00230906
0.00235815
0.00240773
0.00245779
0.0025083
0.00255925
0.00261063
0.00266241
0.00271456
0.00276707
0.00281989
0.00287301
0.00292639
0.00297998
0.00303376
0.00308768
2.88886e-06
2.15797e-05
3.69718e-05
5.23085e-05
6.8493e-05
8.5259e-05
0.000102487
0.000120115
0.00013811
0.000156452
0.000175129
0.000194136
0.000213468
0.000233125
0.000253106
0.000273412
0.000294045
0.000315007
0.000336302
0.000357933
0.000379902
0.000402215
0.000424875
0.000447887
0.000471255
0.000494984
0.00051908
0.000543546
0.000568389
0.000593613
0.000619225
0.000645229
0.000671631
0.000698437
0.000725653
0.000753283
0.000781335
0.000809814
0.000838726
0.000868077
0.000897873
0.00092812
0.000958824
0.000989991
0.00102163
0.00105374
0.00108633
0.00111941
0.00115298
0.00118704
0.00122161
0.00125669
0.00129229
0.0013284
0.00136504
0.00140221
0.00143991
0.00147815
0.00151693
0.00155625
0.00159612
0.00163655
0.00167753
0.00171906
0.00176115
0.00180379
0.00184699
0.00189075
0.00193506
0.00197992
0.00202534
0.00207129
0.00211779
0.00216483
0.00221239
0.00226047
0.00230906
0.00235816
0.00240774
0.00245779
0.00250831
0.00255926
0.00261064
0.00266242
0.00271457
0.00276708
0.0028199
0.00287302
2.88912e-06
2.15806e-05
3.69742e-05
5.231e-05
6.8493e-05
8.52578e-05
0.000102485
0.000120112
0.000138107
0.000156448
0.000175126
0.000194132
0.000213464
0.000233121
0.000253101
0.000273407
0.00029404
0.000315002
0.000336297
0.000357927
0.000379897
0.000402209
0.000424869
0.000447881
0.000471249
0.000494979
0.000519074
0.000543541
0.000568384
0.000593608
0.00061922
0.000645224
0.000671626
0.000698432
0.000725648
0.000753279
0.000781331
0.00080981
0.000838722
0.000868073
0.000897869
0.000928117
0.000958821
0.000989988
0.00102162
0.00105373
0.00108633
0.0011194
0.00115297
0.00118704
0.00122161
0.00125669
0.00129229
0.0013284
0.00136504
0.00140221
0.00143991
0.00147815
0.00151693
0.00155625
0.00159613
0.00163655
0.00167753
0.00171906
0.00176115
0.00180379
0.001847
0.00189075
0.00193506
0.00197993
0.00202534
0.0020713
0.0021178
0.00216483
0.00221239
0.00226048
0.00230907
0.00235816
0.00240774
0.0024578
0.00250831
0.00255927
0.00261065
0.00266243
0.00271458
0.00276709
0.00281991
0.00287303
2.88935e-06
2.15816e-05
3.69767e-05
5.23119e-05
6.84936e-05
8.52571e-05
0.000102483
0.00012011
0.000138104
0.000156445
0.000175122
0.000194129
0.000213461
0.000233117
0.000253097
0.000273403
0.000294036
0.000314998
0.000336292
0.000357922
0.000379892
0.000402204
0.000424864
0.000447876
0.000471244
0.000494973
0.000519069
0.000543535
0.000568378
0.000593603
0.000619215
0.000645219
0.000671621
0.000698427
0.000725643
0.000753274
0.000781326
0.000809806
0.000838718
0.00086807
0.000897866
0.000928113
0.000958817
0.000989985
0.00102162
0.00105373
0.00108632
0.0011194
0.00115297
0.00118704
0.00122161
0.00125669
0.00129229
0.0013284
0.00136504
0.00140221
0.00143991
0.00147815
0.00151693
0.00155625
0.00159613
0.00163655
0.00167753
0.00171906
0.00176115
0.0018038
0.001847
0.00189076
0.00193507
0.00197993
0.00202534
0.0020713
0.0021178
0.00216484
0.0022124
0.00226048
0.00230908
0.00235817
0.00240775
0.00245781
0.00250832
0.00255928
0.00261066
0.00266244
0.00271459
0.00276709
0.00281992
0.00287304
2.88957e-06
2.15826e-05
3.69793e-05
5.2314e-05
6.84945e-05
8.52569e-05
0.000102482
0.000120108
0.000138102
0.000156443
0.00017512
0.000194126
0.000213458
0.000233114
0.000253094
0.000273399
0.000294032
0.000314994
0.000336288
0.000357918
0.000379887
0.0004022
0.000424859
0.000447871
0.000471239
0.000494969
0.000519064
0.000543531
0.000568374
0.000593598
0.00061921
0.000645214
0.000671617
0.000698423
0.000725639
0.00075327
0.000781323
0.000809802
0.000838715
0.000868066
0.000897863
0.00092811
0.000958815
0.000989982
0.00102162
0.00105373
0.00108632
0.0011194
0.00115297
0.00118704
0.00122161
0.00125669
0.00129229
0.0013284
0.00136504
0.00140221
0.00143991
0.00147815
0.00151693
0.00155625
0.00159613
0.00163655
0.00167753
0.00171906
0.00176115
0.0018038
0.001847
0.00189076
0.00193507
0.00197993
0.00202535
0.00207131
0.00211781
0.00216484
0.0022124
0.00226049
0.00230908
0.00235818
0.00240776
0.00245782
0.00250833
0.00255929
0.00261067
0.00266244
0.0027146
2.88976e-06
2.15837e-05
3.69818e-05
5.23163e-05
6.84958e-05
8.5257e-05
0.000102481
0.000120107
0.0001381
0.00015644
0.000175117
0.000194123
0.000213455
0.00023311
0.00025309
0.000273396
0.000294028
0.00031499
0.000336284
0.000357914
0.000379883
0.000402195
0.000424855
0.000447867
0.000471235
0.000494964
0.00051906
0.000543526
0.00056837
0.000593594
0.000619206
0.00064521
0.000671613
0.000698419
0.000725635
0.000753266
0.000781319
0.000809799
0.000838711
0.000868063
0.00089786
0.000928107
0.000958812
0.000989979
0.00102162
0.00105373
0.00108632
0.0011194
0.00115297
0.00118704
0.00122161
0.00125669
0.00129229
0.0013284
0.00136504
0.00140221
0.00143991
0.00147815
0.00151693
0.00155626
0.00159613
0.00163656
0.00167753
0.00171907
0.00176116
0.0018038
0.001847
0.00189076
0.00193507
0.00197994
0.00202535
0.00207131
0.00211781
0.00216485
0.00221241
0.0022605
0.00230909
0.00235819
0.00240777
0.00245783
0.00250834
0.0025593
0.00261068
0.00266245
0.00271461
2.88994e-06
2.15849e-05
3.69844e-05
5.23188e-05
6.84975e-05
8.52576e-05
0.000102481
0.000120105
0.000138098
0.000156438
0.000175115
0.00019412
0.000213452
0.000233107
0.000253087
0.000273392
0.000294025
0.000314986
0.00033628
0.00035791
0.000379879
0.000402191
0.000424851
0.000447863
0.000471231
0.00049496
0.000519056
0.000543523
0.000568366
0.00059359
0.000619202
0.000645207
0.000671609
0.000698416
0.000725632
0.000753263
0.000781316
0.000809796
0.000838708
0.00086806
0.000897857
0.000928105
0.00095881
0.000989977
0.00102161
0.00105373
0.00108632
0.0011194
0.00115297
0.00118704
0.00122161
0.00125669
0.00129229
0.0013284
0.00136504
0.00140221
0.00143991
0.00147815
0.00151693
0.00155626
0.00159613
0.00163656
0.00167754
0.00171907
0.00176116
0.00180381
0.00184701
0.00189077
0.00193508
0.00197994
0.00202536
0.00207132
0.00211782
0.00216485
0.00221242
0.0022605
0.0023091
0.00235819
0.00240778
0.00245784
0.00250835
0.00255931
0.00261069
0.00266247
0.00271462
2.8901e-06
2.15861e-05
3.6987e-05
5.23215e-05
6.84994e-05
8.52585e-05
0.000102481
0.000120105
0.000138097
0.000156436
0.000175113
0.000194118
0.000213449
0.000233105
0.000253085
0.00027339
0.000294022
0.000314983
0.000336277
0.000357907
0.000379876
0.000402188
0.000424848
0.000447859
0.000471227
0.000494957
0.000519052
0.000543519
0.000568362
0.000593587
0.000619199
0.000645203
0.000671606
0.000698412
0.000725629
0.00075326
0.000781313
0.000809793
0.000838706
0.000868058
0.000897855
0.000928103
0.000958807
0.000989975
0.00102161
0.00105372
0.00108632
0.0011194
0.00115297
0.00118704
0.00122161
0.00125669
0.00129229
0.0013284
0.00136504
0.00140221
0.00143991
0.00147815
0.00151693
0.00155626
0.00159614
0.00163656
0.00167754
0.00171907
0.00176116
0.00180381
0.00184701
0.00189077
0.00193508
0.00197995
0.00202536
0.00207132
0.00211782
0.00216486
0.00221243
0.00226051
0.00230911
0.0023582
0.00240779
0.00245784
0.00250836
0.00255932
0.0026107
0.00266248
0.00271463
2.89025e-06
2.15873e-05
3.69895e-05
5.23243e-05
6.85016e-05
8.52598e-05
0.000102481
0.000120104
0.000138095
0.000156435
0.000175111
0.000194116
0.000213447
0.000233102
0.000253082
0.000273387
0.000294019
0.00031498
0.000336274
0.000357903
0.000379872
0.000402185
0.000424844
0.000447856
0.000471224
0.000494953
0.000519049
0.000543516
0.000568359
0.000593584
0.000619196
0.0006452
0.000671603
0.000698409
0.000725626
0.000753257
0.00078131
0.00080979
0.000838703
0.000868055
0.000897852
0.000928101
0.000958806
0.000989974
0.00102161
0.00105372
0.00108632
0.00111939
0.00115297
0.00118704
0.00122161
0.00125669
0.00129229
0.0013284
0.00136504
0.00140221
0.00143991
0.00147815
0.00151694
0.00155626
0.00159614
0.00163656
0.00167754
0.00171908
0.00176117
0.00180381
0.00184702
0.00189077
0.00193509
0.00197995
0.00202537
0.00207133
0.00211783
0.00216487
0.00221243
0.00226052
0.00230911
0.00235821
0.0024078
0.00245786
0.00250837
0.00255933
0.00261071
0.00266249
0.00271464
2.89039e-06
2.15886e-05
3.6992e-05
5.23271e-05
6.8504e-05
8.52613e-05
0.000102482
0.000120104
0.000138095
0.000156434
0.000175109
0.000194114
0.000213445
0.0002331
0.00025308
0.000273384
0.000294016
0.000314977
0.000336271
0.000357901
0.000379869
0.000402182
0.000424841
0.000447853
0.000471221
0.00049495
0.000519046
0.000543513
0.000568356
0.000593581
0.000619193
0.000645197
0.0006716
0.000698407
0.000725623
0.000753255
0.000781308
0.000809788
0.000838701
0.000868053
0.000897851
0.000928099
0.000958804
0.000989972
0.00102161
0.00105372
0.00108631
0.00111939
0.00115297
0.00118704
0.00122161
0.00125669
0.00129229
0.0013284
0.00136504
0.00140221
0.00143992
0.00147816
0.00151694
0.00155627
0.00159614
0.00163657
0.00167755
0.00171908
0.00176117
0.00180382
0.00184702
0.00189078
0.00193509
0.00197996
0.00202537
0.00207133
0.00211784
0.00216487
0.00221244
0.00226053
0.00230912
0.00235822
0.00240781
0.00245787
0.00250838
0.00255934
0.00261072
0.0026625
0.00271465
2.89052e-06
2.15898e-05
3.69945e-05
5.23301e-05
6.85066e-05
8.52632e-05
0.000102483
0.000120104
0.000138094
0.000156433
0.000175108
0.000194113
0.000213443
0.000233098
0.000253078
0.000273382
0.000294014
0.000314975
0.000336269
0.000357898
0.000379867
0.000402179
0.000424838
0.00044785
0.000471218
0.000494947
0.000519043
0.00054351
0.000568353
0.000593578
0.00061919
0.000645195
0.000671598
0.000698404
0.000725621
0.000753253
0.000781306
0.000809786
0.000838699
0.000868052
0.000897849
0.000928097
0.000958803
0.000989971
0.00102161
0.00105372
0.00108631
0.00111939
0.00115297
0.00118704
0.00122161
0.00125669
0.00129229
0.0013284
0.00136505
0.00140221
0.00143992
0.00147816
0.00151694
0.00155627
0.00159614
0.00163657
0.00167755
0.00171908
0.00176117
0.00180382
0.00184702
0.00189078
0.0019351
0.00197996
0.00202538
0.00207134
0.00211784
0.00216488
0.00221245
0.00226054
0.00230913
0.00235823
0.00240782
0.00245788
0.0025084
0.00255935
0.00261073
0.00266251
0.00271466
2.89065e-06
2.15911e-05
3.69968e-05
5.2333e-05
6.85093e-05
8.52653e-05
0.000102484
0.000120105
0.000138094
0.000156432
0.000175107
0.000194111
0.000213442
0.000233097
0.000253076
0.00027338
0.000294012
0.000314973
0.000336266
0.000357895
0.000379864
0.000402176
0.000424836
0.000447847
0.000471216
0.000494945
0.00051904
0.000543507
0.000568351
0.000593576
0.000619188
0.000645192
0.000671595
0.000698402
0.000725619
0.000753251
0.000781304
0.000809784
0.000838698
0.00086805
0.000897848
0.000928096
0.000958802
0.00098997
0.00102161
0.00105372
0.00108631
0.00111939
0.00115297
0.00118704
0.00122161
0.00125669
0.00129229
0.00132841
0.00136505
0.00140222
0.00143992
0.00147816
0.00151694
0.00155627
0.00159615
0.00163657
0.00167755
0.00171909
0.00176118
0.00180383
0.00184703
0.00189079
0.0019351
0.00197997
0.00202539
0.00207135
0.00211785
0.00216489
0.00221246
0.00226054
0.00230914
0.00235824
0.00240783
0.00245789
0.00250841
0.00255937
0.00261075
0.00266252
0.00271467
2.89076e-06
2.15924e-05
3.69991e-05
5.2336e-05
6.85122e-05
8.52676e-05
0.000102486
0.000120106
0.000138095
0.000156432
0.000175106
0.00019411
0.00021344
0.000233095
0.000253074
0.000273378
0.00029401
0.000314971
0.000336264
0.000357893
0.000379862
0.000402174
0.000424834
0.000447845
0.000471213
0.000494943
0.000519038
0.000543505
0.000568348
0.000593573
0.000619186
0.00064519
0.000671593
0.0006984
0.000725617
0.000753249
0.000781302
0.000809783
0.000838696
0.000868049
0.000897846
0.000928095
0.000958801
0.00098997
0.00102161
0.00105372
0.00108631
0.00111939
0.00115297
0.00118704
0.00122161
0.00125669
0.00129229
0.00132841
0.00136505
0.00140222
0.00143992
0.00147816
0.00151695
0.00155627
0.00159615
0.00163658
0.00167756
0.00171909
0.00176118
0.00180383
0.00184703
0.00189079
0.00193511
0.00197998
0.00202539
0.00207136
0.00211786
0.0021649
0.00221247
0.00226055
0.00230915
0.00235825
0.00240784
0.0024579
0.00250842
0.00255938
0.00261076
0.00266254
0.00271469
2.89087e-06
2.15936e-05
3.70014e-05
5.2339e-05
6.85152e-05
8.52701e-05
0.000102487
0.000120107
0.000138095
0.000156432
0.000175106
0.00019411
0.000213439
0.000233094
0.000253073
0.000273377
0.000294008
0.000314969
0.000336262
0.000357891
0.00037986
0.000402172
0.000424831
0.000447843
0.000471211
0.00049494
0.000519036
0.000543503
0.000568346
0.000593571
0.000619184
0.000645189
0.000671592
0.000698399
0.000725615
0.000753248
0.000781301
0.000809781
0.000838695
0.000868048
0.000897846
0.000928094
0.0009588
0.000989969
0.00102161
0.00105372
0.00108631
0.00111939
0.00115297
0.00118704
0.00122161
0.00125669
0.00129229
0.00132841
0.00136505
0.00140222
0.00143992
0.00147817
0.00151695
0.00155628
0.00159615
0.00163658
0.00167756
0.0017191
0.00176119
0.00180383
0.00184704
0.0018908
0.00193511
0.00197998
0.0020254
0.00207136
0.00211787