/*--------------------------------*- C++ -*----------------------------------*\
  =========                 |
  \\      /  F ield         | OpenFOAM: The Open Source CFD Toolbox
   \\    /   O peration     | Website:  https://openfoam.org
    \\  /    A nd           | Version:  10
     \\/     M anipulation  |
\*---------------------------------------------------------------------------*/
FoamFile
{
    format      ascii;
    class       volScalarField;
    location    "46000";
    object      omega;
}
// * * * * * * * * * * * * * * * * * * * * * * * * * * * * * * * * * * * * * //

dimensions      [0 0 -1 0 0 0 0];

internalField   nonuniform List<scalar> 
17808
(
10587.8
4265.89
2438.96
1675.62
1264.73
1010.36
838.117
714.021
620.471
547.477
488.963
441.026
401.046
367.202
338.187
313.039
291.039
271.631
254.385
238.962
225.087
212.541
201.143
190.743
181.216
172.459
164.382
156.91
149.978
143.531
137.52
131.904
126.645
121.711
117.073
112.707
108.589
104.7
101.022
97.538
94.2345
91.0979
88.1166
85.2798
82.5777
80.0015
77.5431
75.195
72.9504
70.8032
68.7474
66.7779
64.8898
63.0785
61.3399
59.67
58.0654
56.5226
55.0385
53.6102
52.235
50.9103
49.6339
48.4034
47.2169
46.0725
44.9684
43.9028
42.8741
41.8808
40.9214
39.9946
39.0991
38.2337
37.3973
36.5889
35.8074
35.0518
34.3213
33.6151
32.9323
32.2722
31.6341
31.0172
30.4211
29.845
29.2884
28.7508
28.2316
27.7305
27.247
26.7806
10584.5
4266.46
2440.34
1676.91
1265.79
1011.2
838.786
714.558
620.906
547.834
489.258
441.271
401.252
367.376
338.335
313.166
291.148
271.725
254.467
239.033
225.15
212.596
201.191
190.785
181.254
172.492
164.411
156.936
150.002
143.552
137.539
131.921
126.66
121.725
117.086
112.718
108.599
104.709
101.03
97.5456
94.2413
91.1042
88.1223
85.285
82.5825
80.0059
77.5471
75.1986
72.9538
70.8062
68.7502
66.7805
64.8922
63.0807
61.3419
59.6719
58.0672
56.5242
55.04
53.6116
52.2363
50.9116
49.635
48.4045
47.218
46.0735
44.9694
43.9037
42.875
41.8816
40.9222
39.9953
39.0998
38.2344
37.398
36.5895
35.8079
35.0524
34.3219
33.6156
32.9328
32.2727
31.6345
31.0177
30.4215
29.8454
29.2888
28.7512
28.232
27.7309
27.2473
26.781
10584.4
4266.17
2441.16
1677.63
1266.35
1011.66
839.162
714.873
621.174
548.064
489.457
441.445
401.404
367.509
338.451
313.268
291.237
271.804
254.537
239.095
225.204
212.645
201.234
190.824
181.288
172.523
164.439
156.961
150.024
143.572
137.557
131.937
126.675
121.738
117.098
112.729
108.609
104.718
101.038
97.553
94.2481
91.1103
88.1279
85.2901
82.5871
80.0101
77.551
75.2022
72.957
70.8092
68.753
66.7831
64.8945
63.0829
61.3439
59.6738
58.0688
56.5258
55.0414
53.6129
52.2375
50.9127
49.6361
48.4056
47.219
46.0745
44.9702
43.9045
42.8757
41.8823
40.9228
39.996
39.1004
38.235
37.3985
36.59
35.8084
35.0529
34.3224
33.6161
32.9333
32.2731
31.635
31.0181
30.4219
29.8458
29.2892
28.7515
28.2324
27.7312
27.2477
26.7813
10584.6
4265.71
2441.76
1678.16
1266.78
1012
839.441
715.104
621.37
548.233
489.605
441.575
401.519
367.611
338.542
313.35
291.311
271.87
254.596
239.148
225.252
212.688
201.273
190.859
181.32
172.551
164.465
156.984
150.045
143.591
137.575
131.953
126.689
121.751
117.109
112.74
108.619
104.727
101.046
97.5604
94.2548
91.1165
88.1335
85.2952
82.5919
80.0145
77.5549
75.2058
72.9604
70.8123
68.7558
66.7857
64.8969
63.0851
61.346
59.6757
58.0706
56.5274
55.0429
53.6143
52.2388
50.9139
49.6373
48.4066
47.22
46.0754
44.9711
43.9054
42.8765
41.8831
40.9235
39.9966
39.101
38.2356
37.3991
36.5906
35.809
35.0534
34.3228
33.6165
32.9337
32.2736
31.6354
31.0185
30.4223
29.8462
29.2895
28.7519
28.2327
27.7316
27.248
26.7816
10585.2
4264.87
2442.02
1678.45
1267.05
1012.24
839.645
715.277
621.518
548.361
489.718
441.676
401.609
367.692
338.616
313.417
291.371
271.925
254.646
239.193
225.293
212.725
201.307
190.89
181.348
172.577
164.488
157.005
150.064
143.609
137.591
131.968
126.703
121.763
117.121
112.75
108.628
104.736
101.054
97.5676
94.2614
91.1226
88.1391
85.3004
82.5966
80.0188
77.5589
75.2095
72.9638
70.8154
68.7587
66.7883
64.8994
63.0873
61.348
59.6776
58.0724
56.529
55.0445
53.6157
52.2402
50.9152
49.6384
48.4077
47.221
46.0764
44.9721
43.9062
42.8773
41.8838
40.9243
39.9973
39.1017
38.2362
37.3997
36.5911
35.8095
35.0539
34.3233
33.617
32.9342
32.274
31.6358
31.0189
30.4227
29.8465
29.2899
28.7523
28.2331
27.7319
27.2483
26.7819
10586.1
4263.88
2442.07
1678.58
1267.22
1012.4
839.784
715.398
621.624
548.456
489.803
441.752
401.679
367.756
338.674
313.47
291.42
271.97
254.687
239.231
225.328
212.757
201.337
190.917
181.373
172.6
164.509
157.025
150.082
143.625
137.606
131.982
126.715
121.775
117.131
112.76
108.637
104.744
101.062
97.5747
94.268
91.1286
88.1446
85.3055
82.6013
80.0231
77.5629
75.2132
72.9671
70.8185
68.7616
66.791
64.9018
63.0896
61.3502
59.6796
58.0742
56.5307
55.046
53.6172
52.2415
50.9164
49.6396
48.4089
47.2221
46.0774
44.973
43.9071
42.8782
41.8846
40.925
39.998
39.1023
38.2368
37.4003
36.5917
35.81
35.0544
34.3238
33.6175
32.9346
32.2744
31.6362
31.0193
30.4231
29.8469
29.2903
28.7526
28.2334
27.7323
27.2487
26.7823
10587.3
4262.93
2442.01
1678.64
1267.33
1012.51
839.884
715.486
621.702
548.526
489.866
441.811
401.733
367.806
338.72
313.513
291.46
272.007
254.722
239.263
225.358
212.785
201.362
190.94
181.395
172.62
164.528
157.042
150.098
143.64
137.62
131.994
126.727
121.786
117.142
112.769
108.646
104.752
101.069
97.5815
94.2743
91.1344
88.15
85.3105
82.6059
80.0274
77.5669
75.2168
72.9705
70.8217
68.7645
66.7937
64.9043
63.0919
61.3523
59.6815
58.076
56.5324
55.0476
53.6187
52.2429
50.9177
49.6408
48.41
47.2232
46.0784
44.974
43.908
42.879
41.8854
40.9258
39.9987
39.103
38.2374
37.4009
36.5923
35.8106
35.0549
34.3243
33.618
32.9351
32.2749
31.6366
31.0197
30.4235
29.8473
29.2907
28.753
28.2338
27.7326
27.249
26.7826
10588.5
4262.06
2441.88
1678.66
1267.4
1012.59
839.961
715.555
621.763
548.58
489.916
441.856
401.775
367.845
338.757
313.548
291.492
272.037
254.75
239.29
225.383
212.808
201.384
190.961
181.414
172.638
164.545
157.058
150.113
143.654
137.632
132.006
126.738
121.796
117.151
112.778
108.654
104.76
101.076
97.5881
94.2803
91.14
88.1553
85.3153
82.6104
80.0316
77.5707
75.2204
72.9739
70.8248
68.7674
66.7963
64.9068
63.0943
61.3545
59.6835
58.0779
56.5342
55.0492
53.6202
52.2443
50.9191
49.6421
48.4112
47.2243
46.0795
44.9749
43.909
42.8799
41.8862
40.9265
39.9994
39.1037
38.2381
37.4015
36.5929
35.8112
35.0554
34.3248
33.6185
32.9355
32.2753
31.6371
31.0202
30.4239
29.8477
29.291
28.7534
28.2342
27.733
27.2494
26.7829
10589.8
4261.27
2441.71
1678.64
1267.45
1012.65
840.018
715.607
621.811
548.623
489.955
441.893
401.809
367.877
338.787
313.576
291.519
272.062
254.774
239.312
225.404
212.828
201.403
190.979
181.43
172.654
164.559
157.071
150.126
143.666
137.644
132.017
126.748
121.805
117.16
112.786
108.662
104.767
101.083
97.5942
94.2861
91.1454
88.1603
85.32
82.6147
80.0356
77.5745
75.224
72.9772
70.8278
68.7702
66.799
64.9093
63.0966
61.3566
59.6856
58.0798
56.5359
55.0509
53.6217
52.2457
50.9204
49.6433
48.4124
47.2254
46.0805
44.9759
43.9099
42.8808
41.8871
40.9273
40.0002
39.1044
38.2388
37.4021
36.5935
35.8117
35.056
34.3254
33.619
32.936
32.2758
31.6375
31.0206
30.4243
29.8481
29.2914
28.7537
28.2345
27.7333
27.2497
26.7833
10591
4260.54
2441.5
1678.6
1267.47
1012.69
840.061
715.648
621.848
548.657
489.986
441.921
401.836
367.903
338.811
313.599
291.541
272.083
254.794
239.331
225.422
212.845
201.419
190.994
181.445
172.667
164.572
157.084
150.137
143.677
137.654
132.026
126.757
121.814
117.168
112.794
108.669
104.773
101.089
97.6
94.2915
91.1505
88.165
85.3244
82.6189
80.0395
77.5782
75.2274
72.9804
70.8308
68.773
66.8016
64.9117
63.0988
61.3587
59.6875
58.0816
56.5377
55.0525
53.6232
52.2472
50.9217
49.6446
48.4136
47.2265
46.0816
44.977
43.9108
42.8817
41.8879
40.9281
40.0009
39.1051
38.2394
37.4028
36.5941
35.8123
35.0565
34.3259
33.6195
32.9365
32.2762
31.638
31.021
30.4247
29.8485
29.2918
28.7541
28.2349
27.7337
27.2501
26.7836
10592.2
4259.88
2441.27
1678.55
1267.47
1012.71
840.091
715.679
621.877
548.684
490.011
441.944
401.858
367.923
338.831
313.618
291.559
272.101
254.81
239.347
225.437
212.859
201.432
191.007
181.457
172.679
164.583
157.094
150.147
143.686
137.663
132.035
126.765
121.821
117.175
112.8
108.675
104.779
101.095
97.6055
94.2966
91.1553
88.1696
85.3287
82.6229
80.0433
77.5817
75.2307
72.9835
70.8337
68.7757
66.8042
64.9141
63.1011
61.3608
59.6895
58.0835
56.5394
55.0541
53.6248
52.2486
50.9231
49.6459
48.4148
47.2277
46.0827
44.978
43.9118
42.8826
41.8887
40.9289
40.0017
39.1058
38.2401
37.4034
36.5947
35.8129
35.0571
34.3264
33.62
32.937
32.2767
31.6384
31.0214
30.4251
29.8489
29.2922
28.7545
28.2353
27.734
27.2504
26.7839
10593.3
4259.29
2441.03
1678.48
1267.46
1012.73
840.113
715.702
621.899
548.705
490.03
441.963
401.875
367.94
338.847
313.633
291.574
272.115
254.824
239.36
225.45
212.872
201.444
191.018
181.468
172.689
164.593
157.104
150.156
143.695
137.671
132.042
126.772
121.828
117.182
112.807
108.681
104.785
101.1
97.6105
94.3014
91.1598
88.1738
85.3327
82.6267
80.0468
77.585
75.2339
72.9864
70.8365
68.7784
66.8066
64.9165
63.1033
61.3629
59.6915
58.0853
56.5411
55.0557
53.6263
52.25
50.9244
49.6471
48.416
47.2288
46.0838
44.979
43.9128
42.8835
41.8896
40.9297
40.0025
39.1065
38.2408
37.4041
36.5953
35.8135
35.0577
34.327
33.6205
32.9375
32.2772
31.6389
31.0219
30.4256
29.8493
29.2926
28.7549
28.2356
27.7344
27.2507
26.7843
10594.3
4258.77
2440.79
1678.4
1267.44
1012.73
840.126
715.719
621.916
548.721
490.046
441.978
401.89
367.954
338.861
313.646
291.587
272.127
254.836
239.371
225.461
212.882
201.454
191.028
181.477
172.698
164.602
157.112
150.164
143.702
137.678
132.049
126.779
121.835
117.188
112.812
108.687
104.79
101.105
97.6152
94.3058
91.164
88.1778
85.3365
82.6302
80.0502
77.5882
75.2369
72.9893
70.8392
68.7809
66.809
64.9187
63.1054
61.3649
59.6933
58.0871
56.5428
55.0573
53.6278
52.2514
50.9258
49.6484
48.4172
47.23
46.0848
44.98
43.9137
42.8844
41.8905
40.9305
40.0032
39.1073
38.2415
37.4047
36.5959
35.8141
35.0582
34.3275
33.621
32.938
32.2777
31.6393
31.0223
30.426
29.8497
29.293
28.7553
28.236
27.7348
27.2511
26.7846
10595.3
4258.3
2440.55
1678.32
1267.41
1012.73
840.134
715.73
621.929
548.734
490.058
441.99
401.901
367.965
338.871
313.657
291.597
272.137
254.846
239.381
225.47
212.891
201.463
191.036
181.485
172.706
164.609
157.119
150.171
143.709
137.685
132.056
126.785
121.84
117.193
112.818
108.692
104.795
101.11
97.6195
94.3099
91.1679
88.1815
85.34
82.6336
80.0534
77.5913
75.2397
72.992
70.8418
68.7833
66.8113
64.9209
63.1075
61.3669
59.6952
58.0888
56.5444
55.0589
53.6292
52.2528
50.9271
49.6497
48.4184
47.2311
46.0859
44.981
43.9147
42.8853
41.8913
40.9314
40.004
39.108
38.2422
37.4054
36.5966
35.8147
35.0588
34.328
33.6215
32.9385
32.2782
31.6398
31.0228
30.4264
29.8502
29.2934
28.7557
28.2364
27.7351
27.2515
26.785
10596.1
4257.89
2440.32
1678.23
1267.38
1012.72
840.136
715.737
621.938
548.743
490.068
441.999
401.91
367.974
338.88
313.665
291.605
272.146
254.854
239.389
225.478
212.899
201.471
191.043
181.493
172.713
164.616
157.126
150.177
143.715
137.69
132.061
126.79
121.845
117.198
112.822
108.696
104.799
101.114
97.6234
94.3137
91.1715
88.1849
85.3433
82.6367
80.0564
77.5941
75.2424
72.9946
70.8442
68.7857
66.8136
64.923
63.1095
61.3687
59.697
58.0905
56.546
55.0604
53.6307
52.2542
50.9284
49.6509
48.4195
47.2322
46.087
44.982
43.9157
42.8862
41.8922
40.9322
40.0048
39.1088
38.2429
37.4061
36.5972
35.8153
35.0594
34.3286
33.6221
32.939
32.2786
31.6403
31.0232
30.4269
29.8506
29.2938
28.7561
28.2368
27.7355
27.2518
26.7853
10596.9
4257.52
2440.1
1678.14
1267.34
1012.7
840.134
715.741
621.943
548.75
490.075
442.006
401.917
367.981
338.887
313.673
291.612
272.153
254.861
239.396
225.485
212.905
201.477
191.05
181.499
172.719
164.622
157.131
150.183
143.72
137.695
132.066
126.795
121.85
117.202
112.826
108.7
104.803
101.118
97.627
94.3172
91.1748
88.1881
85.3463
82.6396
80.0592
77.5968
75.245
72.997
70.8466
68.7879
66.8157
64.925
63.1114
61.3706
59.6987
58.0922
56.5476
55.0619
53.6321
52.2555
50.9297
49.6521
48.4207
47.2333
46.088
44.983
43.9166
42.8871
41.8931
40.933
40.0056
39.1095
38.2436
37.4067
36.5978
35.8159
35.06
34.3292
33.6226
32.9395
32.2791
31.6408
31.0237
30.4273
29.851
29.2942
28.7565
28.2372
27.7359
27.2522
26.7857
10597.7
4257.2
2439.89
1678.05
1267.3
1012.69
840.128
715.741
621.946
548.754
490.079
442.011
401.923
367.987
338.893
313.678
291.618
272.158
254.867
239.402
225.49
212.911
201.483
191.055
181.504
172.724
164.627
157.136
150.187
143.725
137.7
132.07
126.799
121.854
117.206
112.83
108.704
104.807
101.121
97.6303
94.3203
91.1779
88.1911
85.3491
82.6424
80.0618
77.5993
75.2474
72.9993
70.8487
68.79
66.8177
64.9269
63.1132
61.3723
59.7003
58.0937
56.5491
55.0633
53.6334
52.2568
50.9309
49.6533
48.4218
47.2344
46.0891
44.984
43.9175
42.888
41.8939
40.9338
40.0063
39.1102
38.2443
37.4074
36.5985
35.8165
35.0606
34.3297
33.6231
32.94
32.2796
31.6412
31.0241
30.4278
29.8514
29.2947
28.7569
10598.3
4256.92
2439.69
1677.96
1267.26
1012.67
840.12
715.738
621.947
548.756
490.082
442.015
401.927
367.991
338.897
313.683
291.623
272.163
254.871
239.407
225.495
212.916
201.487
191.06
181.509
172.729
164.631
157.14
150.192
143.729
137.704
132.074
126.803
121.858
117.21
112.834
108.707
104.81
101.124
97.6333
94.3232
91.1807
88.1938
85.3518
82.6449
80.0642
77.6016
75.2496
73.0014
70.8508
68.7919
66.8195
64.9287
63.1149
61.3739
59.7019
58.0952
56.5505
55.0647
53.6348
52.2581
50.9321
49.6545
48.4229
47.2355
46.0901
44.985
43.9185
42.8889
41.8948
40.9346
40.0071
39.111
38.245
37.4081
36.5991
35.8171
35.0611
34.3303
33.6237
32.9405
32.2801
31.6417
31.0246
30.4282
29.8519
29.2951
28.7574
10598.9
4256.66
2439.5
1677.87
1267.22
1012.65
840.109
715.733
621.945
548.756
490.084
442.017
401.929
367.994
338.901
313.686
291.627
272.167
254.875
239.411
225.499
212.92
201.491
191.064
181.513
172.732
164.635
157.144
150.195
143.733
137.707
132.078
126.806
121.861
117.213
112.837
108.71
104.813
101.127
97.6361
94.3259
91.1832
88.1962
85.3542
82.6472
80.0664
77.6037
75.2517
73.0034
70.8527
68.7938
66.8213
64.9304
63.1166
61.3755
59.7034
58.0967
56.5519
55.066
53.636
52.2593
50.9333
49.6556
48.424
47.2365
46.0911
44.9859
43.9194
42.8898
41.8956
40.9354
40.0078
39.1117
38.2457
37.4087
36.5997
35.8177
35.0617
34.3308
33.6242
32.9411
32.2806
31.6422
31.0251
30.4287
29.8524
29.2956
28.7579
10599.5
4256.43
2439.33
1677.78
1267.17
1012.62
840.096
715.726
621.942
548.755
490.084
442.018
401.931
367.996
338.903
313.689
291.629
272.17
254.879
239.414
225.503
212.923
201.495
191.067
181.516
172.736
164.638
157.147
150.199
143.736
137.711
132.081
126.809
121.864
117.216
112.84
108.713
104.816
101.129
97.6386
94.3283
91.1856
88.1985
85.3564
82.6493
80.0685
77.6057
75.2536
73.0053
70.8545
68.7955
66.823
64.932
63.1181
61.377
59.7049
58.0981
56.5532
55.0673
53.6373
52.2605
50.9344
49.6567
48.4251
47.2375
46.092
44.9869
43.9203
42.8906
41.8964
40.9362
40.0086
39.1124
38.2464
37.4094
36.6004
35.8183
35.0623
34.3314
33.6247
32.9416
32.2811
31.6427
31.0256
30.4292
10599.9
4256.23
2439.17
1677.7
1267.13
1012.6
840.082
715.718
621.937
548.753
490.083
442.017
401.931
367.997
338.904
313.691
291.631
272.172
254.881
239.416
225.505
212.926
201.498
191.07
181.519
172.739
164.641
157.15
150.201
143.739
137.713
132.083
126.812
121.866
117.218
112.842
108.715
104.818
101.132
97.6409
94.3305
91.1878
88.2006
85.3584
82.6513
80.0704
77.6076
75.2554
73.007
70.8562
68.7971
66.8246
64.9335
63.1196
61.3784
59.7062
58.0994
56.5545
55.0685
53.6384
52.2616
50.9355
49.6577
48.4261
47.2385
46.093
44.9878
43.9211
42.8915
41.8972
40.9369
40.0093
39.1131
38.247
37.41
36.601
35.8189
35.0629
34.3319
33.6253
32.9421
32.2816
31.6432
31.0261
30.4297
10600.4
4256.05
2439.02
1677.62
1267.09
1012.57
840.067
715.709
621.931
548.749
490.08
442.016
401.93
367.997
338.905
313.692
291.633
272.174
254.883
239.419
225.507
212.928
201.5
191.073
181.521
172.741
164.644
157.153
150.204
143.741
137.716
132.086
126.814
121.869
117.221
112.844
108.718
104.82
101.134
97.6429
94.3326
91.1897
88.2025
85.3603
82.6531
80.0722
77.6093
75.2571
73.0086
70.8578
68.7987
66.826
64.935
63.1209
61.3797
59.7075
58.1006
56.5557
55.0696
53.6395
52.2627
50.9365
49.6587
48.427
47.2394
46.0939
44.9887
43.922
42.8923
41.898
40.9377
40.01
39.1138
38.2477
37.4107
36.6016
35.8195
35.0634
34.3325
33.6258
32.9426
32.2821
31.6437
31.0266
30.4302
10600.8
4255.89
2438.88
1677.54
1267.04
1012.55
840.052
715.698
621.924
548.744
490.077
442.014
401.929
367.996
338.905
313.692
291.634
272.175
254.884
239.42
225.509
212.93
201.502
191.075
181.524
172.743
164.646
157.155
150.206
143.743
137.718
132.088
126.816
121.871
117.223
112.846
108.72
104.822
101.136
97.6448
94.3344
91.1915
88.2043
85.362
82.6548
80.0738
77.6109
75.2586
73.0101
70.8592
68.8001
66.8274
64.9363
63.1222
61.381
59.7087
58.1018
56.5568
55.0707
53.6406
52.2637
50.9375
49.6597
48.428
47.2403
46.0948
44.9895
43.9228
42.893
41.8987
40.9384
40.0107
39.1145
38.2483
37.4113
36.6022
35.8201
35.064
34.333
33.6263
32.9431
32.2826
31.6442
31.0271
30.4307
10601.2
4255.74
2438.76
1677.47
1267
1012.52
840.036
715.687
621.916
548.738
490.073
442.011
401.927
367.995
338.904
313.692
291.634
272.175
254.885
239.421
225.51
212.932
201.504
191.076
181.525
172.745
164.648
157.157
150.208
143.745
137.72
132.09
126.818
121.873
117.225
112.848
108.721
104.824
101.138
97.6465
94.3361
91.1931
88.2059
85.3635
82.6563
80.0753
77.6123
75.26
73.0115
70.8606
68.8014
66.8287
64.9375
63.1234
61.3822
59.7098
58.1029
56.5579
55.0718
53.6416
52.2647
50.9385
49.6606
48.4289
47.2412
46.0956
44.9903
43.9236
42.8938
41.8995
40.9391
40.0114
39.1151
38.249
37.4119
36.6028
35.8207
35.0645
34.3336
33.6269
32.9436
32.2831
31.6447
31.0276
30.4312
10601.5
4255.61
2438.64
1677.4
1266.96
1012.5
840.02
715.676
621.908
548.732
490.068
442.007
401.924
367.993
338.903
313.691
291.633
272.176
254.885
239.422
225.511
212.933
201.505
191.078
181.527
172.747
164.649
157.159
150.21
143.747
137.722
132.092
126.82
121.874
117.226
112.85
108.723
104.825
101.139
97.648
94.3376
91.1946
88.2073
85.365
82.6577
80.0767
77.6137
75.2613
73.0128
70.8618
68.8026
66.8299
64.9387
63.1245
61.3832
59.7109
58.1039
56.5589
55.0727
53.6425
52.2656
50.9394
49.6615
48.4297
47.242
46.0964
44.9911
43.9243
42.8945
41.9002
40.9398
40.0121
39.1158
38.2496
37.4125
36.6034
35.8212
35.0651
34.3341
33.6274
32.9441
32.2836
31.6452
31.028
30.4316
10601.9
4255.48
2438.53
1677.33
1266.92
1012.48
840.004
715.664
621.899
548.725
490.062
442.003
401.921
367.99
338.901
313.69
291.633
272.175
254.885
239.422
225.512
212.933
201.506
191.079
181.528
172.748
164.651
157.16
150.211
143.748
137.723
132.093
126.821
121.876
117.228
112.851
108.724
104.827
101.141
97.6494
94.3389
91.196
88.2087
85.3663
82.659
80.0779
77.6149
75.2625
73.014
70.863
68.8037
66.831
64.9398
63.1256
61.3843
59.7119
58.1049
56.5598
55.0737
53.6434
52.2665
50.9402
49.6623
48.4305
47.2428
46.0972
44.9918
43.9251
42.8953
41.9009
40.9405
40.0127
39.1164
38.2502
37.4131
36.6039
35.8218
35.0656
34.3346
33.6279
32.9446
32.2841
31.6456
31.0285
30.4321
10602.1
4255.37
2438.43
1677.27
1266.89
1012.45
839.988
715.653
621.89
548.717
490.056
441.998
401.917
367.987
338.899
313.688
291.631
272.174
254.885
239.422
225.512
212.934
201.506
191.079
181.529
172.749
164.652
157.161
150.212
143.749
137.724
132.094
126.823
121.877
117.229
112.853
108.726
104.828
101.142
97.6507
94.3402
91.1972
88.2099
85.3674
82.6601
80.0791
77.616
75.2636
73.0151
70.864
68.8048
66.832
64.9407
63.1266
61.3852
59.7128
58.1058
56.5607
55.0745
53.6443
52.2673
50.941
49.6631
48.4313
47.2436
46.0979
44.9926
43.9258
42.8959
41.9015
40.9411
40.0134
39.117
38.2508
37.4136
36.6045
35.8223
35.0661
34.3351
33.6284
32.9451
32.2846
31.6461
31.029
30.4325
10602.4
4255.26
2438.34
1677.21
1266.85
1012.43
839.973
715.641
621.88
548.71
490.05
441.993
401.913
367.984
338.896
313.686
291.63
272.173
254.884
239.421
225.512
212.934
201.506
191.08
181.529
172.75
164.652
157.162
150.213
143.75
137.725
132.095
126.824
121.878
117.23
112.854
108.727
104.829
101.143
97.6518
94.3413
91.1983
88.2109
85.3685
82.6612
80.0801
77.6171
75.2647
73.0161
70.865
68.8057
66.8329
64.9417
63.1275
61.3861
59.7137
58.1066
56.5615
55.0753
53.6451
52.2681
50.9418
49.6638
48.432
47.2443
46.0986
44.9932
43.9264
42.8966
41.9022
40.9417
40.014
39.1176
38.2514
37.4142
36.605
35.8228
35.0667
34.3356
33.6289
32.9456
32.2851
31.6466
31.0294
30.433
10602.7
4255.16
2438.26
1677.16
1266.82
1012.41
839.958
715.63
621.871
548.702
490.043
441.987
401.908
367.98
338.892
313.683
291.628
272.172
254.883
239.421
225.511
212.934
201.506
191.08
181.53
172.75
164.653
157.163
150.214
143.751
137.726
132.096
126.825
121.879
117.231
112.855
108.728
104.83
101.144
97.6528
94.3423
91.1993
88.2119
85.3695
82.6622
80.081
77.618
75.2656
73.017
70.8659
68.8066
66.8338
64.9425
63.1283
61.3869
59.7145
58.1074
56.5623
55.0761
53.6458
52.2688
50.9425
49.6646
48.4327
47.245
46.0993
44.9939
43.9271
42.8972
41.9028
40.9423
40.0145
39.1181
38.2519
37.4147
36.6055
35.8233
35.0672
34.3361
33.6294
32.9461
32.2856
31.647
31.0299
30.4334
10602.9
4255.06
2438.18
1677.11
1266.79
1012.39
839.944
715.619
621.862
548.694
490.037
441.981
401.903
367.975
338.889
313.68
291.625
272.17
254.882
239.42
225.511
212.933
201.506
191.08
181.53
172.75
164.653
157.163
150.214
143.752
137.727
132.097
126.826
121.88
117.232
112.856
108.729
104.831
101.145
97.6536
94.3431
91.2001
88.2128
85.3704
82.663
80.0819
77.6189
75.2664
73.0178
70.8667
68.8074
66.8346
64.9433
63.1291
61.3877
59.7152
58.1082
56.563
55.0768
53.6465
52.2695
50.9432
49.6652
48.4334
47.2456
46.0999
44.9945
43.9277
42.8978
41.9033
40.9429
40.0151
39.1187
38.2524
37.4152
36.606
35.8238
35.0676
34.3366
33.6298
32.9466
32.286
31.6475
31.0303
30.4338
10603.2
4254.96
2438.1
1677.06
1266.76
1012.37
839.93
715.608
621.853
548.686
490.03
441.975
401.898
367.971
338.885
313.677
291.623
272.167
254.88
239.418
225.51
212.932
201.506
191.08
181.53
172.75
164.654
157.163
150.215
143.752
137.727
132.098
126.826
121.881
117.233
112.856
108.729
104.832
101.146
97.6544
94.3439
91.2009
88.2136
85.3711
82.6638
80.0827
77.6196
75.2672
73.0186
70.8675
68.8082
66.8353
64.944
63.1298
61.3884
59.7159
58.1088
56.5637
55.0775
53.6472
52.2701
50.9438
49.6658
48.434
47.2462
46.1005
44.9951
43.9283
42.8984
41.9039
40.9434
40.0156
39.1192
38.2529
37.4157
36.6065
35.8243
35.0681
34.3371
33.6303
32.947
32.2865
31.6479
31.0307
30.4342
10603.4
4254.88
2438.03
1677.01
1266.73
1012.35
839.917
715.598
621.844
548.678
490.023
441.969
401.892
367.966
338.881
313.673
291.62
272.165
254.878
239.417
225.508
212.931
201.505
191.079
181.529
172.75
164.654
157.163
150.215
143.753
137.728
132.098
126.827
121.881
117.233
112.857
108.73
104.832
101.146
97.6551
94.3446
91.2016
88.2143
85.3718
82.6645
80.0834
77.6203
75.2679
73.0192
70.8681
68.8088
66.836
64.9447
63.1304
61.389
59.7166
58.1095
56.5643
55.0781
53.6478
52.2707
50.9444
49.6664
48.4346
47.2468
46.1011
44.9957
43.9288
42.8989
41.9044
40.9439
40.0161
39.1197
38.2534
37.4162
36.607
35.8248
35.0686
34.3375
33.6307
32.9474
32.2869
31.6483
31.0311
30.4346
10603.6
4254.79
2437.97
1676.97
1266.7
1012.34
839.905
715.588
621.835
548.671
490.016
441.962
401.886
367.961
338.876
313.67
291.616
272.162
254.875
239.415
225.507
212.93
201.504
191.079
181.529
172.75
164.653
157.163
150.215
143.753
137.728
132.098
126.827
121.882
117.234
112.857
108.731
104.833
101.147
97.6557
94.3452
91.2022
88.2149
85.3725
82.6651
80.084
77.6209
75.2685
73.0199
70.8688
68.8094
66.8366
64.9453
63.131
61.3896
59.7172
58.11
56.5649
55.0787
53.6484
52.2713
50.945
49.667
48.4351
47.2473
46.1016
44.9962
43.9293
42.8994
41.9049
40.9444
40.0166
39.1202
38.2539
37.4167
36.6075
35.8252
35.069
34.3379
33.6312
32.9479
32.2873
31.6487
31.0315
30.435
10603.8
4254.7
2437.9
1676.93
1266.68
1012.32
839.894
715.579
621.827
548.663
490.009
441.956
401.881
367.956
338.872
313.665
291.613
272.159
254.873
239.413
225.505
212.929
201.503
191.078
181.528
172.749
164.653
157.163
150.215
143.753
137.728
132.098
126.827
121.882
117.234
112.858
108.731
104.833
101.147
97.6562
94.3457
91.2027
88.2154
85.373
82.6657
80.0845
77.6215
75.2691
73.0204
70.8693
68.81
66.8371
64.9458
63.1316
61.3902
59.7177
58.1106
56.5654
55.0792
53.6489
52.2718
50.9455
49.6675
48.4356
47.2478
46.1021
44.9967
43.9298
42.8999
41.9054
40.9449
40.0171
39.1206
38.2543
37.4171
36.6079
35.8256
35.0694
34.3384
33.6316
32.9483
32.2877
31.6491
31.0319
30.4354
10604
4254.62
2437.84
1676.89
1266.65
1012.3
839.883
715.57
621.82
548.656
490.002
441.95
401.875
367.95
338.867
313.661
291.609
272.156
254.87
239.41
225.503
212.927
201.502
191.076
181.527
172.749
164.653
157.163
150.215
143.753
137.728
132.099
126.827
121.882
117.234
112.858
108.731
104.834
101.148
97.6566
94.3461
91.2032
88.2159
85.3735
82.6661
80.085
77.622
75.2695
73.0209
70.8698
68.8105
66.8376
64.9463
63.1321
61.3907
59.7182
58.1111
56.5659
55.0797
53.6494
52.2723
50.946
49.668
48.4361
47.2483
46.1026
44.9971
43.9303
42.9003
41.9058
40.9453
40.0175
39.121
38.2548
37.4175
36.6083
35.8261
35.0698
34.3388
33.632
32.9487
32.2881
31.6495
31.0323
30.4358
10604.2
4254.53
2437.79
1676.85
1266.63
1012.29
839.872
715.562
621.813
548.65
489.996
441.944
401.869
367.945
338.862
313.657
291.605
272.153
254.867
239.408
225.501
212.925
201.5
191.075
181.526
172.748
164.652
157.162
150.214
143.752
137.728
132.098
126.827
121.882
117.234
112.858
108.732
104.834
101.148
97.6569
94.3465
91.2035
88.2163
85.3739
82.6665
80.0854
77.6224
75.27
73.0213
70.8702
68.8109
66.8381
64.9468
63.1325
61.3911
59.7186
58.1115
56.5664
55.0801
53.6498
52.2727
50.9464
49.6684
48.4365
47.2487
46.103
44.9976
43.9307
42.9008
41.9063
40.9458
40.0179
39.1214
38.2552
37.4179
36.6087
35.8265
35.0702
34.3392
33.6324
32.9491
32.2885
31.6499
31.0327
10604.4
4254.45
2437.73
1676.81
1266.61
1012.28
839.863
715.554
621.806
548.643
489.99
441.938
401.863
367.94
338.857
313.652
291.601
272.149
254.864
239.405
225.498
212.923
201.498
191.074
181.525
172.747
164.651
157.162
150.214
143.752
137.728
132.098
126.827
121.882
117.234
112.858
108.732
104.834
101.148
97.6571
94.3467
91.2038
88.2166
85.3742
82.6669
80.0858
77.6228
75.2703
73.0217
70.8706
68.8113
66.8385
64.9472
63.1329
61.3915
59.719
58.1119
56.5668
55.0805
53.6502
52.2731
50.9468
49.6688
48.4369
47.2491
46.1034
44.998
43.9311
42.9012
41.9067
40.9461
40.0183
39.1218
38.2555
37.4183
36.6091
35.8268
35.0706
34.3395
33.6327
32.9494
32.2889
31.6503
31.0331
10604.6
4254.36
2437.67
1676.78
1266.58
1012.26
839.854
715.547
621.8
548.637
489.984
441.932
401.858
367.934
338.852
313.648
291.597
272.145
254.861
239.402
225.496
212.921
201.496
191.072
181.523
172.746
164.65
157.161
150.213
143.752
137.727
132.098
126.827
121.882
117.234
112.858
108.732
104.834
101.148
97.6573
94.3469
91.204
88.2168
85.3744
82.6672
80.0861
77.6231
75.2706
73.022
70.871
68.8116
66.8388
64.9475
63.1333
61.3918
59.7194
58.1123
56.5671
55.0809
53.6506
52.2735
50.9472
49.6692
48.4373
47.2495
46.1038
44.9983
43.9314
42.9015
41.907
40.9465
40.0187
39.1222
38.2559
37.4187
36.6094
35.8272
35.071
34.3399
33.6331
32.9498
32.2892
31.6507
31.0335
10604.8
4254.27
2437.62
1676.74
1266.56
1012.25
839.845
715.541
621.794
548.632
489.978
441.926
401.852
367.929
338.847
313.643
291.593
272.141
254.857
239.399
225.493
212.918
201.494
191.07
181.522
172.744
164.649
157.16
150.212
143.751
137.727
132.098
126.827
121.882
117.234
112.858
108.732
104.834
101.148
97.6574
94.347
91.2042
88.217
85.3746
82.6674
80.0863
77.6233
75.2709
73.0223
70.8712
68.8119
66.8391
64.9478
63.1336
61.3921
59.7197
58.1126
56.5674
55.0812
53.6509
52.2738
50.9475
49.6695
48.4376
47.2498
46.1041
44.9987
43.9318
42.9019
41.9074
40.9469
40.019
39.1225
38.2562
37.419
36.6098
35.8275
35.0713
34.3402
33.6334
32.9501
32.2896
31.651
31.0338
10604.9
4254.19
2437.56
1676.71
1266.54
1012.24
839.836
715.535
621.789
548.626
489.973
441.921
401.847
367.924
338.842
313.638
291.588
272.137
254.853
239.395
225.49
212.916
201.492
191.068
181.52
172.743
164.648
157.159
150.212
143.75
137.726
132.097
126.826
121.881
117.234
112.858
108.731
104.834
101.148
97.6574
94.3471
91.2043
88.2171
85.3747
82.6675
80.0865
77.6235
75.2711
73.0225
70.8714
68.8122
66.8393
64.948
63.1338
61.3924
59.7199
58.1128
56.5677
55.0815
53.6512
52.2741
50.9478
49.6698
48.4379
47.2501
46.1044
44.999
43.9321
42.9022
41.9077
40.9472
40.0193
39.1228
38.2566
37.4193
36.6101
35.8278
35.0716
34.3405
33.6338
32.9505
32.2899
31.6513
31.0341
10605.1
4254.1
2437.51
1676.67
1266.52
1012.22
839.828
715.529
621.784
548.622
489.968
441.916
401.842
367.919
338.837
313.634
291.584
272.133
254.85
239.392
225.487
212.913
201.489
191.066
181.518
172.741
164.646
157.158
150.21
143.749
137.725
132.096
126.826
121.881
117.233
112.858
108.731
104.834
101.148
97.6573
94.347
91.2043
88.2171
85.3748
82.6676
80.0866
77.6236
75.2712
73.0227
70.8716
68.8123
66.8395
64.9482
63.134
61.3926
59.7202
58.1131
56.568
55.0817
53.6514
52.2744
50.948
49.6701
48.4382
47.2504
46.1047
44.9992
43.9324
42.9025
41.908
40.9474
40.0196
39.1231
38.2568
37.4196
36.6104
35.8281
35.0719
34.3408
33.6341
32.9508
32.2902
31.6516
31.0344
10605.3
4254.01
2437.46
1676.64
1266.5
1012.21
839.821
715.523
621.779
548.617
489.963
441.911
401.837
367.914
338.832
313.629
291.579
272.129
254.846
239.388
225.484
212.91
201.487
191.064
181.516
172.739
164.645
157.156
150.209
143.748
137.724
132.096
126.825
121.88
117.233
112.857
108.731
104.834
101.148
97.6571
94.3469
91.2042
88.2171
85.3748
82.6676
80.0866
77.6237
75.2713
73.0228
70.8717
68.8125
66.8396
64.9484
63.1342
61.3928
59.7203
58.1133
56.5681
55.0819
53.6516
52.2746
50.9483
49.6703
48.4384
47.2506
46.1049
44.9995
43.9326
42.9027
41.9082
40.9477
40.0199
39.1234
38.2571
37.4199
36.6107
35.8284
35.0722
34.3411
33.6343
32.951
32.2905
31.6519
31.0346
10605.4
4253.92
2437.4
1676.6
1266.48
1012.2
839.813
715.518
621.775
548.613
489.959
441.907
401.832
367.909
338.828
313.624
291.575
272.125
254.842
239.385
225.48
212.907
201.484
191.061
181.514
172.738
164.643
157.155
150.208
143.747
137.723
132.095
126.824
121.88