/*--------------------------------*- C++ -*----------------------------------*\
  =========                 |
  \\      /  F ield         | OpenFOAM: The Open Source CFD Toolbox
   \\    /   O peration     | Website:  https://openfoam.org
    \\  /    A nd           | Version:  10
     \\/     M anipulation  |
\*---------------------------------------------------------------------------*/
FoamFile
{
    format      ascii;
    class       volScalarField;
    location    "46000";
    object      p;
}
// * * * * * * * * * * * * * * * * * * * * * * * * * * * * * * * * * * * * * //

dimensions      [0 2 -2 0 0 0 0];

internalField   nonuniform List<scalar> 
17808
(
10.597
10.6288
10.6476
10.6568
10.6634
10.6666
10.6676
10.6668
10.6645
10.6611
10.6567
10.6515
10.6455
10.6388
10.6315
10.6237
10.6153
10.6063
10.5969
10.5871
10.5767
10.5659
10.5547
10.543
10.5309
10.5184
10.5054
10.492
10.4782
10.464
10.4493
10.4342
10.4186
10.4026
10.3862
10.3693
10.3519
10.3342
10.3159
10.2972
10.278
10.2583
10.2381
10.2175
10.1963
10.1746
10.1525
10.1298
10.1065
10.0828
10.0585
10.0336
10.0082
9.98218
9.9556
9.92844
9.90067
9.8723
9.84331
9.8137
9.78344
9.75254
9.72098
9.68875
9.65585
9.62225
9.58795
9.55293
9.5172
9.48072
9.4435
9.40551
9.36675
9.32721
9.28687
9.24572
9.20374
9.16093
9.11726
9.07273
9.02733
8.98103
8.93382
8.8857
8.83664
8.78663
8.73565
8.6837
8.63076
8.5768
8.52182
8.4658
10.6802
10.6854
10.6803
10.6775
10.6764
10.6746
10.6722
10.6693
10.6656
10.6612
10.6562
10.6505
10.6442
10.6373
10.6299
10.622
10.6135
10.6046
10.5952
10.5853
10.575
10.5643
10.5531
10.5414
10.5294
10.5169
10.504
10.4906
10.4768
10.4626
10.448
10.4329
10.4174
10.4015
10.3851
10.3682
10.3509
10.3332
10.315
10.2963
10.2771
10.2575
10.2374
10.2167
10.1956
10.174
10.1518
10.1292
10.106
10.0822
10.0579
10.0331
10.0077
9.98172
9.95517
9.92802
9.90028
9.87193
9.84296
9.81336
9.78312
9.75224
9.72069
9.68848
9.65558
9.622
9.58771
9.55271
9.51698
9.48052
9.4433
9.40533
9.36658
9.32704
9.28671
9.24556
9.20359
9.16079
9.11713
9.07261
9.0272
8.98091
8.93371
8.88559
8.83653
8.78653
8.73556
8.68361
8.63067
8.57672
8.52174
8.46572
10.7199
10.718
10.7091
10.7036
10.698
10.6919
10.6859
10.6799
10.6738
10.6674
10.6608
10.6539
10.6466
10.639
10.6309
10.6225
10.6137
10.6045
10.5949
10.5849
10.5744
10.5636
10.5523
10.5406
10.5285
10.516
10.5031
10.4897
10.4759
10.4617
10.4471
10.4321
10.4166
10.4006
10.3843
10.3675
10.3502
10.3324
10.3143
10.2956
10.2765
10.2568
10.2367
10.2161
10.195
10.1734
10.1513
10.1286
10.1055
10.0817
10.0575
10.0327
10.0073
9.98132
9.95478
9.92766
9.89993
9.87159
9.84263
9.81305
9.78283
9.75195
9.72042
9.68822
9.65534
9.62176
9.58748
9.55249
9.51677
9.48031
9.44311
9.40514
9.36639
9.32687
9.28654
9.2454
9.20343
9.16063
9.11697
9.07245
9.02706
8.98077
8.93357
8.88545
8.8364
8.78639
8.73543
8.68348
8.63054
8.57659
8.52161
8.4656
10.7217
10.7196
10.7136
10.7097
10.7044
10.6985
10.6925
10.686
10.6793
10.6723
10.665
10.6575
10.6496
10.6414
10.6329
10.6241
10.6149
10.6054
10.5955
10.5852
10.5746
10.5636
10.5522
10.5404
10.5282
10.5156
10.5026
10.4892
10.4754
10.4612
10.4466
10.4315
10.416
10.4001
10.3837
10.3669
10.3496
10.3319
10.3137
10.295
10.2759
10.2563
10.2362
10.2156
10.1945
10.1729
10.1508
10.1282
10.105
10.0813
10.0571
10.0323
10.0069
9.98096
9.95444
9.92732
9.89961
9.87128
9.84234
9.81276
9.78255
9.75169
9.72016
9.68797
9.6551
9.62153
9.58726
9.55227
9.51656
9.48011
9.44291
9.40495
9.36621
9.32668
9.28636
9.24522
9.20326
9.16046
9.11681
9.07229
9.0269
8.98061
8.93341
8.8853
8.83625
8.78624
8.73528
8.68333
8.63039
8.57644
8.52146
8.46545
10.7231
10.7204
10.7153
10.7114
10.7061
10.7006
10.6947
10.6884
10.6817
10.6747
10.6673
10.6596
10.6516
10.6432
10.6345
10.6255
10.6161
10.6064
10.5963
10.5859
10.5751
10.5639
10.5524
10.5405
10.5282
10.5155
10.5025
10.489
10.4751
10.4609
10.4462
10.4311
10.4156
10.3996
10.3832
10.3664
10.3491
10.3314
10.3132
10.2946
10.2754
10.2558
10.2357
10.2152
10.1941
10.1725
10.1504
10.1278
10.1046
10.0809
10.0567
10.0319
10.0065
9.98062
9.9541
9.927
9.8993
9.87098
9.84205
9.81248
9.78228
9.75143
9.71992
9.68773
9.65487
9.62131
9.58704
9.55206
9.51636
9.47992
9.44272
9.40476
9.36603
9.32651
9.28619
9.24506
9.2031
9.16031
9.11666
9.07215
9.02675
8.98047
8.93327
8.88516
8.83611
8.78611
8.73514
8.6832
8.63026
8.57631
8.52133
8.46532
10.7283
10.7251
10.7201
10.7156
10.71
10.7042
10.698
10.6914
10.6845
10.6772
10.6697
10.6618
10.6535
10.645
10.6361
10.6269
10.6173
10.6074
10.5972
10.5866
10.5757
10.5644
10.5528
10.5408
10.5284
10.5156
10.5025
10.4889
10.475
10.4607
10.446
10.4308
10.4153
10.3993
10.3829
10.366
10.3488
10.331
10.3128
10.2942
10.275
10.2554
10.2354
10.2148
10.1937
10.1721
10.15
10.1274
10.1043
10.0806
10.0564
10.0316
10.0062
9.9803
9.95379
9.9267
9.89901
9.8707
9.84178
9.81222
9.78203
9.75118
9.71968
9.6875
9.65464
9.62109
9.58684
9.55186
9.51617
9.47973
9.44254
9.40459
9.36586
9.32635
9.28603
9.24491
9.20295
9.16016
9.11651
9.072
9.02661
8.98033
8.93314
8.88503
8.83598
8.78598
8.73502
8.68307
8.63013
8.57618
8.52121
8.46519
10.7325
10.729
10.7242
10.7195
10.7137
10.7078
10.7013
10.6945
10.6874
10.6799
10.6721
10.664
10.6556
10.6468
10.6378
10.6284
10.6187
10.6086
10.5983
10.5875
10.5765
10.5651
10.5533
10.5412
10.5287
10.5159
10.5027
10.4891
10.4751
10.4607
10.4459
10.4308
10.4152
10.3991
10.3827
10.3658
10.3485
10.3308
10.3125
10.2939
10.2747
10.2551
10.235
10.2145
10.1934
10.1718
10.1497
10.1271
10.104
10.0803
10.056
10.0313
10.0059
9.98001
9.95351
9.92643
9.89874
9.87044
9.84152
9.81198
9.78179
9.75095
9.71945
9.68728
9.65443
9.62089
9.58664
9.55167
9.51598
9.47955
9.44237
9.40442
9.3657
9.32619
9.28588
9.24475
9.20281
9.16002
9.11637
9.07187
9.02648
8.9802
8.93301
8.8849
8.83585
8.78586
8.73489
8.68295
8.63001
8.57606
8.52109
8.46507
10.7351
10.7314
10.7267
10.7219
10.7162
10.7102
10.7037
10.6968
10.6896
10.6821
10.6742
10.6659
10.6574
10.6485
10.6393
10.6298
10.62
10.6098
10.5993
10.5885
10.5774
10.5658
10.554
10.5418
10.5292
10.5163
10.503
10.4893
10.4753
10.4609
10.446
10.4308
10.4152
10.3991
10.3826
10.3657
10.3484
10.3306
10.3124
10.2937
10.2745
10.2549
10.2348
10.2142
10.1931
10.1715
10.1494
10.1268
10.1037
10.08
10.0558
10.031
10.0057
9.97975
9.95326
9.92618
9.89849
9.8702
9.84129
9.81175
9.78157
9.75074
9.71924
9.68708
9.65424
9.6207
9.58645
9.55149
9.5158
9.47938
9.4422
9.40426
9.36554
9.32604
9.28573
9.24461
9.20266
9.15988
9.11624
9.07174
9.02635
8.98007
8.93289
8.88478
8.83573
8.78574
8.73478
8.68283
8.6299
8.57595
8.52098
8.46496
10.737
10.7332
10.7287
10.7237
10.718
10.712
10.7055
10.6986
10.6913
10.6837
10.6758
10.6675
10.6589
10.6499
10.6407
10.6311
10.6212
10.6109
10.6004
10.5894
10.5782
10.5666
10.5547
10.5424
10.5298
10.5168
10.5034
10.4897
10.4756
10.4611
10.4462
10.4309
10.4152
10.3991
10.3826
10.3657
10.3483
10.3305
10.3123
10.2936
10.2744
10.2547
10.2346
10.214
10.1929
10.1713
10.1492
10.1266
10.1035
10.0798
10.0556
10.0308
10.0054
9.97953
9.95304
9.92596
9.89828
9.86999
9.84108
9.81154
9.78137
9.75054
9.71905
9.68689
9.65405
9.62052
9.58628
9.55132
9.51564
9.47922
9.44204
9.4041
9.36539
9.32589
9.28559
9.24447
9.20253
9.15975
9.11611
9.07161
9.02623
8.97995
8.93277
8.88466
8.83562
8.78562
8.73467
8.68272
8.62979
8.57584
8.52087
8.46485
10.7388
10.7348
10.7304
10.7254
10.7197
10.7136
10.7071
10.7002
10.6929
10.6852
10.6772
10.6689
10.6602
10.6512
10.6419
10.6322
10.6223
10.612
10.6013
10.5903
10.579
10.5674
10.5554
10.5431
10.5304
10.5173
10.5039
10.4901
10.4759
10.4614
10.4465
10.4311
10.4154
10.3993
10.3827
10.3658
10.3484
10.3305
10.3122
10.2935
10.2743
10.2546
10.2345
10.2139
10.1928
10.1712
10.1491
10.1264
10.1033
10.0796
10.0554
10.0306
10.0052
9.97934
9.95285
9.92576
9.89809
9.8698
9.84089
9.81136
9.78118
9.75036
9.71887
9.68672
9.65388
9.62035
9.58611
9.55116
9.51548
9.47906
9.44189
9.40396
9.36525
9.32575
9.28545
9.24434
9.2024
9.15962
9.11599
9.07149
9.02611
8.97984
8.93266
8.88455
8.83551
8.78552
8.73456
8.68262
8.62969
8.57574
8.52077
8.46475
10.7404
10.7363
10.7319
10.7268
10.7212
10.7151
10.7085
10.7015
10.6942
10.6865
10.6785
10.6701
10.6614
10.6524
10.643
10.6333
10.6233
10.6129
10.6022
10.5912
10.5798
10.5681
10.5561
10.5437
10.5309
10.5178
10.5044
10.4905
10.4763
10.4617
10.4468
10.4314
10.4156
10.3995
10.3829
10.3659
10.3484
10.3306
10.3123
10.2935
10.2743
10.2546
10.2345
10.2138
10.1927
10.1711
10.149
10.1263
10.1032
10.0795
10.0552
10.0304
10.0051
9.97918
9.95268
9.9256
9.89792
9.86963
9.84073
9.81119
9.78102
9.7502
9.71872
9.68656
9.65373
9.6202
9.58597
9.55102
9.51534
9.47893
9.44176
9.40383
9.36512
9.32563
9.28533
9.24422
9.20228
9.15951
9.11588
9.07138
9.026
8.97973
8.93255
8.88445
8.83541
8.78542
8.73446
8.68252
8.62959
8.57565
8.52067
8.46466
10.7417
10.7375
10.7332
10.7281
10.7224
10.7163
10.7097
10.7027
10.6954
10.6877
10.6796
10.6712
10.6625
10.6534
10.644
10.6342
10.6242
10.6138
10.603
10.592
10.5806
10.5688
10.5567
10.5443
10.5315
10.5184
10.5049
10.491
10.4767
10.4621
10.4471
10.4317
10.4159
10.3997
10.3831
10.366
10.3486
10.3307
10.3123
10.2936
10.2743
10.2546
10.2345
10.2138
10.1927
10.171
10.1489
10.1262
10.1031
10.0794
10.0551
10.0303
10.005
9.97905
9.95255
9.92547
9.89779
9.8695
9.84059
9.81105
9.78088
9.75006
9.71858
9.68642
9.65359
9.62006
9.58583
9.55089
9.51521
9.4788
9.44163
9.4037
9.365
9.32551
9.28521
9.24411
9.20217
9.1594
9.11577
9.07128
9.0259
8.97963
8.93245
8.88435
8.83531
8.78532
8.73437
8.68243
8.6295
8.57556
8.52059
8.46457
10.7428
10.7385
10.7343
10.7291
10.7235
10.7173
10.7107
10.7037
10.6964
10.6887
10.6806
10.6721
10.6634
10.6543
10.6449
10.6351
10.625
10.6146
10.6038
10.5927
10.5813
10.5695
10.5574
10.5449
10.5321
10.5189
10.5054
10.4915
10.4772
10.4625
10.4475
10.432
10.4162
10.4
10.3833
10.3662
10.3487
10.3308
10.3125
10.2937
10.2744
10.2547
10.2345
10.2138
10.1927
10.171
10.1489
10.1262
10.103
10.0793
10.055
10.0302
10.0049
9.97896
9.95245
9.92536
9.89768
9.86938
9.84047
9.81094
9.78076
9.74994
9.71846
9.6863
9.65347
9.61994
9.58571
9.55077
9.51509
9.47868
9.44152
9.40359
9.36489
9.3254
9.28511
9.244
9.20207
9.1593
9.11567
9.07118
9.02581
8.97954
8.93236
8.88426
8.83523
8.78524
8.73428
8.68235
8.62942
8.57547
8.5205
8.46449
10.7437
10.7394
10.7353
10.7301
10.7244
10.7182
10.7116
10.7046
10.6973
10.6895
10.6814
10.673
10.6642
10.6551
10.6457
10.6359
10.6257
10.6153
10.6045
10.5934
10.5819
10.5701
10.558
10.5455
10.5326
10.5194
10.5058
10.4919
10.4776
10.4629
10.4478
10.4324
10.4165
10.4002
10.3836
10.3665
10.349
10.331
10.3126
10.2938
10.2745
10.2548
10.2346
10.2139
10.1927
10.171
10.1489
10.1262
10.103
10.0793
10.055
10.0302
10.0048
9.97889
9.95238
9.92529
9.89759
9.8693
9.84038
9.81084
9.78066
9.74984
9.71835
9.6862
9.65337
9.61984
9.58561
9.55066
9.51499
9.47858
9.44142
9.40349
9.36479
9.3253
9.28501
9.24391
9.20198
9.15921
9.11558
9.07109
9.02572
8.97945
8.93228
8.88418
8.83514
8.78516
8.73421
8.68227
8.62934
8.5754
8.52043
8.46442
10.7446
10.7403
10.7361
10.7309
10.7252
10.719
10.7125
10.7054
10.6981
10.6903
10.6822
10.6738
10.665
10.6558
10.6464
10.6366
10.6264
10.616
10.6052
10.594
10.5825
10.5707
10.5585
10.546
10.5331
10.5199
10.5063
10.4923
10.478
10.4633
10.4482
10.4327
10.4168
10.4005
10.3838
10.3667
10.3492
10.3312
10.3128
10.294
10.2747
10.2549
10.2347
10.214
10.1928
10.1711
10.1489
10.1262
10.103
10.0793
10.055
10.0302
10.0048
9.97886
9.95234
9.92524
9.89754
9.86923
9.84031
9.81077
9.78059
9.74976
9.71827
9.68612
9.65328
9.61975
9.58552
9.55058
9.5149
9.47849
9.44133
9.40341
9.36471
9.32522
9.28493
9.24382
9.20189
9.15912
9.1155
9.07101
9.02564
8.97937
8.9322
8.8841
8.83507
8.78509
8.73413
8.6822
8.62927
8.57533
8.52036
8.46435
10.7453
10.741
10.7369
10.7316
10.7259
10.7198
10.7132
10.7062
10.6988
10.691
10.6829
10.6744
10.6656
10.6565
10.647
10.6372
10.6271
10.6166
10.6058
10.5946
10.5831
10.5713
10.5591
10.5465
10.5336
10.5204
10.5068
10.4928
10.4784
10.4637
10.4486
10.433
10.4171
10.4008
10.3841
10.367
10.3494
10.3314
10.313
10.2941
10.2748
10.255
10.2348
10.2141
10.1929
10.1712
10.149
10.1263
10.1031
10.0793
10.055
10.0302
10.0048
9.97885
9.95232
9.92521
9.8975
9.86919
9.84027
9.81072
9.78053
9.7497
9.71821
9.68605
9.65321
9.61968
9.58545
9.5505
9.51483
9.47842
9.44126
9.40333
9.36463
9.32514
9.28485
9.24375
9.20182
9.15905
9.11543
9.07094
9.02557
8.97931
8.93213
8.88404
8.835
8.78502
8.73407
8.68214
8.62921
8.57527
8.52029
8.46428
10.746
10.7417
10.7375
10.7323
10.7266
10.7204
10.7138
10.7068
10.6994
10.6917
10.6835
10.6751
10.6663
10.6571
10.6476
10.6378
10.6276
10.6171
10.6063
10.5951
10.5836
10.5718
10.5596
10.547
10.5341
10.5208
10.5072
10.4932
10.4788
10.4641
10.4489
10.4334
10.4175
10.4011
10.3844
10.3672
10.3497
10.3317
10.3132
10.2943
10.275
10.2552
10.235
10.2142
10.193
10.1713
10.1491
10.1264
10.1031
10.0794
10.0551
10.0302
10.0048
9.97886
9.95233
9.92521
9.89749
9.86918
9.84025
9.81069
9.7805
9.74966
9.71817
9.68601
9.65317
9.61963
9.5854
9.55045
9.51477
9.47836
9.4412
9.40327
9.36457
9.32508
9.28479
9.24369
9.20176
9.15899
9.11537
9.07088
9.02551
8.97924
8.93207
8.88398
8.83495
8.78496
8.73401
8.68208
10.7466
10.7423
10.7381
10.7329
10.7272
10.721
10.7144
10.7074
10.7
10.6922
10.6841
10.6756
10.6668
10.6577
10.6482
10.6383
10.6282
10.6177
10.6068
10.5956
10.5841
10.5722
10.56
10.5475
10.5345
10.5212
10.5076
10.4936
10.4792
10.4644
10.4493
10.4337
10.4178
10.4014
10.3847
10.3675
10.3499
10.3319
10.3135
10.2946
10.2752
10.2554
10.2351
10.2144
10.1931
10.1714
10.1492
10.1265
10.1032
10.0794
10.0551
10.0303
10.0049
9.9789
9.95235
9.92523
9.89751
9.86918
9.84024
9.81068
9.78049
9.74964
9.71815
9.68598
9.65313
9.6196
9.58536
9.55041
9.51473
9.47831
9.44115
9.40322
9.36452
9.32503
9.28474
9.24364
9.20171
9.15894
9.11532
9.07083
9.02546
8.97919
8.93202
8.88393
8.8349
8.78491
8.73396
8.68202
10.7472
10.7428
10.7387
10.7334
10.7278
10.7216
10.715
10.7079
10.7005
10.6928
10.6846
10.6762
10.6673
10.6582
10.6487
10.6388
10.6286
10.6181
10.6073
10.5961
10.5846
10.5727
10.5605
10.5479
10.5349
10.5216
10.508
10.494
10.4796
10.4648
10.4496
10.434
10.4181
10.4017
10.385
10.3678
10.3502
10.3322
10.3137
10.2948
10.2754
10.2556
10.2353
10.2145
10.1933
10.1716
10.1493
10.1266
10.1033
10.0795
10.0552
10.0304
10.0049
9.97895
9.9524
9.92526
9.89754
9.86921
9.84026
9.81069
9.78049
9.74964
9.71814
9.68597
9.65312
9.61958
9.58534
9.55038
9.5147
9.47828
9.44112
9.40319
9.36448
9.32499
9.2847
9.2436
9.20167
9.1589
9.11527
9.07078
9.02541
8.97915
8.93198
8.88388
8.83485
8.78487
8.73391
8.68198
10.7477
10.7433
10.7392
10.7339
10.7283
10.7221
10.7155
10.7084
10.701
10.6933
10.6851
10.6766
10.6678
10.6586
10.6491
10.6393
10.6291
10.6186
10.6077
10.5965
10.585
10.5731
10.5609
10.5483
10.5353
10.522
10.5084
10.4943
10.4799
10.4651
10.4499
10.4344
10.4184
10.402
10.3853
10.3681
10.3504
10.3324
10.3139
10.295
10.2756
10.2558
10.2355
10.2147
10.1935
10.1717
10.1495
10.1267
10.1034
10.0796
10.0553
10.0304
10.005
9.97903
9.95247
9.92532
9.89759
9.86925
9.8403
9.81072
9.78051
9.74966
9.71815
9.68597
9.65312
9.61958
9.58533
9.55037
9.51469
9.47827
9.4411
9.40316
9.36446
9.32497
9.28467
9.24357
9.20164
9.15886
9.11524
9.07075
9.02538
8.97912
8.93194
8.88385
8.83482
10.7482
10.7438
10.7396
10.7344
10.7287
10.7225
10.7159
10.7089
10.7015
10.6937
10.6856
10.6771
10.6682
10.6591
10.6496
10.6397
10.6295
10.619
10.6081
10.5969
10.5854
10.5735
10.5612
10.5487
10.5357
10.5224
10.5087
10.4947
10.4802
10.4654
10.4503
10.4347
10.4187
10.4023
10.3855
10.3683
10.3507
10.3327
10.3142
10.2952
10.2758
10.256
10.2357
10.2149
10.1936
10.1719
10.1496
10.1269
10.1036
10.0798
10.0554
10.0305
10.0051
9.97912
9.95255
9.92539
9.89765
9.86931
9.84035
9.81077
9.78055
9.74969
9.71818
9.686
9.65314
9.61959
9.58534
9.55037
9.51469
9.47826
9.44109
9.40316
9.36445
9.32495
9.28466
9.24355
9.20162
9.15884
9.11522
9.07073
9.02536
8.97909
8.93192
8.88382
8.83478
10.7486
10.7442
10.7401
10.7348
10.7291
10.723
10.7163
10.7093
10.7019
10.6941
10.686
10.6775
10.6687
10.6595
10.65
10.6401
10.6299
10.6194
10.6085
10.5973
10.5858
10.5739
10.5616
10.549
10.5361
10.5227
10.5091
10.495
10.4806
10.4658
10.4506
10.435
10.419
10.4026
10.3858
10.3686
10.351
10.3329
10.3144
10.2955
10.2761
10.2562
10.2359
10.2151
10.1938
10.172
10.1498
10.127
10.1037
10.0799
10.0556
10.0307
10.0052
9.97922
9.95264
9.92548
9.89773
9.86938
9.84041
9.81083
9.7806
9.74974
9.71822
9.68603
9.65317
9.61961
9.58536
9.55039
9.5147
9.47827
9.4411
9.40316
9.36445
9.32495
9.28465
9.24354
9.20161
9.15883
9.11521
9.07071
9.02534
8.97907
8.9319
8.8838
8.83477
10.749
10.7446
10.7405
10.7352
10.7295
10.7234
10.7167
10.7097
10.7023
10.6945
10.6864
10.6779
10.669
10.6599
10.6503
10.6405
10.6303
10.6198
10.6089
10.5977
10.5861
10.5742
10.562
10.5494
10.5364
10.5231
10.5094
10.4953
10.4809
10.4661
10.4509
10.4353
10.4193
10.4029
10.3861
10.3689
10.3512
10.3331
10.3146
10.2957
10.2763
10.2564
10.2361
10.2153
10.194
10.1722
10.15
10.1272
10.1039
10.0801
10.0557
10.0308
10.0053
9.97933
9.95275
9.92558
9.89782
9.86946
9.84049
9.8109
9.78067
9.7498
9.71827
9.68608
9.65321
9.61965
9.58539
9.55042
9.51473
9.4783
9.44112
9.40318
9.36446
9.32496
9.28466
9.24355
9.20161
9.15884
9.11521
9.07071
9.02534
8.97907
8.93189
8.88379
8.83476
10.7494
10.745
10.7409
10.7356
10.7299
10.7237
10.7171
10.7101
10.7027
10.6949
10.6867
10.6782
10.6694
10.6602
10.6507
10.6408
10.6306
10.6201
10.6092
10.598
10.5865
10.5745
10.5623
10.5497
10.5367
10.5234
10.5097
10.4956
10.4812
10.4664
10.4512
10.4356
10.4196
10.4032
10.3863
10.3691
10.3515
10.3334
10.3149
10.2959
10.2765
10.2566
10.2363
10.2155
10.1942
10.1724
10.1501
10.1273
10.104
10.0802
10.0558
10.0309
10.0055
9.97946
9.95287
9.92569
9.89793
9.86956
9.84058
9.81098
9.78075
9.74987
9.71834
9.68614
9.65327
9.61971
9.58544
9.55047
9.51477
9.47833
9.44115
9.4032
9.36449
9.32498
9.28468
9.24357
9.20163
9.15885
9.11522
9.07072
9.02534
8.97908
8.9319
8.8838
8.83476
10.7497
10.7454
10.7412
10.736
10.7303
10.7241
10.7175
10.7104
10.703
10.6952
10.6871
10.6786
10.6698
10.6606
10.651
10.6412
10.631
10.6204
10.6096
10.5983
10.5868
10.5749
10.5626
10.55
10.537
10.5237
10.51
10.4959
10.4815
10.4666
10.4514
10.4358
10.4198
10.4034
10.3866
10.3694
10.3517
10.3336
10.3151
10.2961
10.2767
10.2568
10.2365
10.2157
10.1944
10.1726
10.1503
10.1275
10.1042
10.0804
10.056
10.0311
10.0056
9.97959
9.95299
9.92581
9.89804
9.86967
9.84069
9.81108
9.78084
9.74996
9.71842
9.68622
9.65334
9.61977
9.5855
9.55052
9.51482
9.47838
9.44119
9.40325
9.36452
9.32502
9.28471
9.24359
9.20165
9.15887
9.11524
9.07074
9.02536
8.97909
8.93191
8.88381
8.83477
10.7501
10.7457
10.7415
10.7363
10.7306
10.7244
10.7178
10.7108
10.7034
10.6956
10.6874
10.6789
10.6701
10.6609
10.6514
10.6415
10.6313
10.6208
10.6099
10.5987
10.5871
10.5752
10.5629
10.5503
10.5373
10.524
10.5103
10.4962
10.4818
10.4669
10.4517
10.4361
10.4201
10.4037
10.3869
10.3696
10.352
10.3339
10.3153
10.2964
10.2769
10.2571
10.2367
10.2159
10.1946
10.1728
10.1505
10.1277
10.1044
10.0805
10.0562
10.0312
10.0058
9.97973
9.95313
9.92594
9.89817
9.86979
9.8408
9.81119
9.78094
9.75005
9.71851
9.6863
9.65342
9.61985
9.58557
9.55059
9.51488
9.47844
9.44125
9.4033
9.36457
9.32506
9.28475
9.24363
9.20169
9.1589
9.11527
9.07077
9.02539
8.97911
8.93193
8.88383
8.83479
10.7504
10.746
10.7419
10.7366
10.7309
10.7247
10.7181
10.7111
10.7037
10.6959
10.6877
10.6792
10.6704
10.6612
10.6517
10.6418
10.6316
10.6211
10.6102
10.5989
10.5874
10.5755
10.5632
10.5506
10.5376
10.5243
10.5106
10.4965
10.482
10.4672
10.452
10.4364
10.4203
10.4039
10.3871
10.3699
10.3522
10.3341
10.3156
10.2966
10.2772
10.2573
10.2369
10.2161
10.1948
10.173
10.1507
10.1279
10.1046
10.0807
10.0563
10.0314
10.0059
9.97988
9.95327
9.92608
9.8983
9.86992
9.84092
9.8113
9.78105
9.75016
9.71861
9.6864
9.65351
9.61993
9.58566
9.55067
9.51496
9.47851
9.44131
9.40336
9.36463
9.32512
9.2848
9.24368
9.20173
9.15895
9.11531
9.07081
9.02542
8.97915
8.93197
8.88386
8.83482
10.7507
10.7463
10.7422
10.7369
10.7312
10.725
10.7184
10.7114
10.704
10.6962
10.688
10.6795
10.6707
10.6615
10.652
10.6421
10.6319
10.6213
10.6105
10.5992
10.5877
10.5757
10.5635
10.5509
10.5379
10.5245
10.5108
10.4967
10.4823
10.4674
10.4522
10.4366
10.4206
10.4042
10.3873
10.3701
10.3524
10.3343
10.3158
10.2968
10.2774
10.2575
10.2371
10.2163
10.195
10.1732
10.1509
10.1281
10.1047
10.0809
10.0565
10.0316
10.0061
9.98004
9.95342
9.92623
9.89844
9.87005
9.84105
9.81143
9.78117
9.75027
9.71872
9.68651
9.65361
9.62003
9.58575
9.55076
9.51504
9.47859
9.44139
9.40343
9.3647
9.32518
9.28487
9.24374
9.20179
9.159
9.11536
9.07085
9.02547
8.97919
8.93201
8.8839
8.83486
10.751
10.7466
10.7424
10.7372
10.7315
10.7253
10.7187
10.7117
10.7043
10.6965
10.6883
10.6798
10.671
10.6618
10.6522
10.6424
10.6322
10.6216
10.6107
10.5995
10.5879
10.576
10.5637
10.5511
10.5381
10.5248
10.5111
10.497
10.4825
10.4677
10.4525
10.4369
10.4208
10.4044
10.3876
10.3703
10.3527
10.3346
10.316
10.297
10.2776
10.2577
10.2373
10.2165
10.1952
10.1734
10.1511
10.1282
10.1049
10.0811
10.0567
10.0317
10.0062
9.9802
9.95358
9.92638
9.89858
9.87019
9.84118
9.81156
9.7813
9.7504
9.71884
9.68662
9.65372
9.62013
9.58585
9.55085
9.51513
9.47868
9.44147
9.40351
9.36478
9.32526
9.28494
9.24381
9.20185
9.15906
9.11542
9.07091
9.02552
8.97924
8.93206
8.88395
8.8349
10.7513
10.7469
10.7427
10.7375
10.7318
10.7256
10.719
10.712
10.7045
10.6967
10.6886
10.6801
10.6712
10.6621
10.6525
10.6427
10.6324
10.6219
10.611
10.5998
10.5882
10.5763
10.564
10.5514
10.5384
10.5251
10.5113
10.4973
10.4828
10.468
10.4527
10.4371
10.4211
10.4047
10.3878
10.3706
10.3529
10.3348
10.3162
10.2973
10.2778
10.2579
10.2376
10.2167
10.1954
10.1736
10.1513
10.1284
10.1051
10.0812
10.0568
10.0319
10.0064
9.98036
9.95374
9.92653
9.89873
9.87034
9.84133
9.8117
9.78143
9.75053
9.71896
9.68674
9.65384
9.62025
9.58596
9.55096
9.51523
9.47877
9.44157
9.4036
9.36486
9.32534
9.28502
9.24388
9.20193
9.15913
9.11549
9.07098
9.02559
8.9793
8.93211
8.884
8.83496
10.7515
10.7472
10.743
10.7378
10.7321
10.7259
10.7193
10.7122
10.7048
10.697
10.6889
10.6804
10.6715
10.6623
10.6528
10.6429
10.6327
10.6222
10.6113
10.6
10.5885
10.5765
10.5643
10.5516
10.5386
10.5253
10.5116
10.4975
10.483
10.4682
10.453
10.4373
10.4213
10.4049
10.388
10.3708
10.3531
10.335
10.3165
10.2975
10.278
10.2581
10.2378
10.2169
10.1956
10.1738
10.1515
10.1286
10.1053
10.0814
10.057
10.0321
10.0066
9.98053
9.9539
9.92669
9.89889
9.87049
9.84147
9.81184
9.78157
9.75066
9.7191
9.68687
9.65396
9.62037
9.58607
9.55107
9.51534
9.47888
9.44167
9.4037
9.36496
9.32543
9.28511
9.24397
9.20201
9.15921
9.11556
9.07105
9.02566
8.97937
8.93218
8.88407
8.83502
10.7518
10.7475
10.7433
10.738
10.7323
10.7262
10.7195
10.7125
10.7051
10.6973
10.6891
10.6806
10.6718
10.6626
10.653
10.6432
10.633
10.6224
10.6115
10.6003
10.5887
10.5768
10.5645
10.5519
10.5389
10.5255
10.5118
10.4977
10.4833
10.4684
10.4532
10.4376
10.4215
10.4051
10.3883
10.371
10.3533
10.3352
10.3167
10.2977
10.2782
10.2583
10.238
10.2171
10.1958
10.174
10.1516
10.1288
10.1055
10.0816
10.0572
10.0323
10.0068
9.9807
9.95406
9.92685
9.89905
9.87064
9.84162
9.81199
9.78172
9.7508
9.71923
9.687
9.65409
9.62049
9.5862
9.55119
9.51546
9.47899
9.44178
9.4038
9.36506
9.32553
9.2852
9.24406
9.2021
9.1593
9.11565
9.07113
9.02574
8.97945
8.93225
8.88414
8.83509
10.7521
10.7477
10.7435
10.7383
10.7326
10.7264
10.7198
10.7127
10.7053
10.6975
10.6894
10.6809
10.672
10.6628
10.6533
10.6434
10.6332
10.6227
10.6118
10.6005
10.589
10.577
10.5648
10.5521
10.5391
10.5258
10.5121
10.498
10.4835
10.4687
10.4534
10.4378
10.4218
10.4053
10.3885
10.3712
10.3536
10.3354
10.3169
10.2979
10.2784
10.2585
10.2382
10.2173
10.196
10.1742
10.1518
10.129
10.1057
10.0818
10.0574
10.0324
10.0069
9.98087
9.95423
9.92702
9.89921
9.8708
9.84178
9.81214
9.78186
9.75095
9.71937
9.68714
9.65422
9.62062
9.58632
9.55131
9.51558
9.47911
9.44189
9.40392
9.36517
9.32564
9.2853
9.24416
9.2022
9.15939
9.11574
9.07122
9.02582
8.97953
8.93234
8.88422
8.83516
10.7523
10.748
10.7438
10.7385
10.7328
10.7267
10.72
10.713
10.7056
10.6978
10.6896
10.6811
10.6723
10.6631
10.6535
10.6437
10.6334
10.6229
10.612
10.6008
10.5892
10.5773
10.565
10.5524
10.5394
10.526
10.5123
10.4982
10.4837
10.4689
10.4536
10.438
10.422
10.4056
10.3887
10.3715
10.3538
10.3357
10.3171
10.2981
10.2787
10.2587
10.2384
10.2175
10.1962
10.1744
10.152
10.1292
10.1058
10.082
10.0576
10.0326
10.0071
9.98104
9.9544
9.92718
9.89937
9.87096
9.84194
9.81229
9.78202
9.7511
9.71952
9.68728
9.65436
9.62076
9.58646
9.55144
9.51571
9.47923
9.44201
9.40404
9.36528
9.32575
9.28541
9.24427
9.2023
9.1595
9.11584
9.07132
9.02592
8.97963
8.93243
8.88431
8.83525
10.7525
10.7482
10.744
10.7388
10.7331
10.7269
10.7203
10.7132
10.7058
10.698
10.6899
10.6814
10.6725
10.6633
10.6538
10.6439
10.6337
10.6231
10.6122
10.601
10.5894
10.5775
10.5652
10.5526
10.5396
10.5262
10.5125
10.4984
10.484
10.4691
10.4539
10.4382
10.4222
10.4058
10.3889
10.3717
10.354
10.3359
10.3173
10.2983
10.2789
10.2589
10.2386
10.2177
10.1964
10.1746
10.1522
10.1294
10.106
10.0822
10.0577
10.0328
10.0073
9.98122
9.95458
9.92735
9.89954
9.87113
9.8421
9.81245
9.78217
9.75125
9.71967
9.68743
9.65451
9.6209
9.5866
9.55158
9.51584
9.47936
9.44214
9.40416
9.36541
9.32587
9.28553
9.24438
9.20241
9.1596
9.11594
9.07142
9.02602
8.97972
8.93252
8.8844
8.83534
10.7528
10.7485
10.7442
10.739
10.7333
10.7271
10.7205
10.7135
10.706
10.6982
10.6901
10.6816
10.6727
10.6635
10.654
10.6441
10.6339
10.6234
10.6125
10.6012
10.5897
10.5777
10.5654
10.5528
10.5398
10.5265
10.5127
10.4986
10.4842
10.4693
10.4541
10.4385
10.4224
10.406
10.3891
10.3719
10.3542
10.3361
10.3175
10.2985
10.2791
10.2592
10.2388
10.2179
10.1966
10.1747
10.1524
10.1296
10.1062
10.0823
10.0579
10.033
10.0075
9.98139
9.95475
9.92753
9.89971
9.87129
9.84227
9.81261
9.78233
9.75141
9.71982
9.68758
9.65466
9.62105
9.58674
9.55172
9.51598
9.4795
9.44227
9.40429
9.36553
9.32599
9.28565
9.2445
9.20253
9.15972
9.11606
9.07153
9.02612
8.97983
8.93262
8.8845
10.753
10.7487
10.7445
10.7393
10.7336
10.7274
10.7207
10.7137
10.7063
10.6985
10.6903
10.6818
10.673
10.6638
10.6542
10.6444
10.6341
10.6236
10.6127
10.6015
10.5899
10.5779
10.5657
10.553
10.54
10.5267
10.513
10.4989
10.4844
10.4695
10.4543
10.4387
10.4226
10.4062
10.3894
10.3721
10.3544
10.3363
10.3177
10.2987
10.2793
10.2593
10.239
10.2181
10.1968
10.1749
10.1526
10.1298
10.1064
10.0825
10.0581
10.0332
10.0076
9.98157
9.95493
9.9277
9.89988
9.87146
9.84243
9.81278
9.78249
9.75156
9.71998
9.68773
9.65481
9.6212
9.58689
9.55186
9.51612
9.47964
9.44241
9.40442
9.36566
9.32612
9.28578
9.24462
9.20265
9.15984
9.11617
9.07164
9.02624
8.97994
8.93273
8.8846
10.7532
10.7489
10.7447
10.7395
10.7338
10.7276
10.721
10.7139
10.7065
10.6987
10.6905
10.682
10.6732
10.664
10.6545
10.6446
10.6344
10.6238
10.6129
10.6017
10.5901
10.5782
10.5659
10.5532
10.5403
10.5269
10.5132
10.4991
10.4846
10.4698
10.4545
10.4389
10.4228
10.4064
10.3896
10.3723
10.3546
10.3365
10.3179
10.2989
10.2795
10.2595
10.2392
10.2183
10.197
10.1751
10.1528
10.13
10.1066
10.0827
10.0583
10.0333
10.0078
9.98175
9.9551
9.92787
9.90005
9.87163
9.8426
9.81294
9.78266
9.75172
9.72014
9.68789
9.65496
9.62135
9.58703
9.55201
9.51626
9.47978
9.44255
9.40456
9.3658
9.32625
9.28591
9.24475
9.20277
9.15996
9.11629
9.07176
9.02635
8.98005
8.93284
8.88471
10.7535
10.7492
10.7449
10.7397
10.734
10.7278
10.7212
10.7141
10.7067
10.6989
10.6908
10.6823
10.6734
10.6642
10.6547
10.6448
10.6346
10.624
10.6131
10.6019
10.5903
10.5784
10.5661
10.5535
10.5405
10.5271
10.5134
10.4993
10.4848
10.47
10.4547
10.4391
10.4231
10.4066
10.3898
10.3725
10.3548
10.3367
10.3181
10.2991
10.2797
10.2597
10.2394
10.2185
10.1972
10.1753
10.153
10.1301
10.1068
10.0829
10.0585
10.0335
10.008
9.98193
9.95528
9.92805
9.90022
9.8718
9.84277
9.81311
9.78282
9.75189
9.7203
9.68805
9.65512
9.6215
9.58719
9.55216
9.51641
9.47992
9.44269
9.4047
9.36594
9.32639
9.28604
9.24489
9.2029
9.16009
9.11642
9.07188
9.02647
8.98017
8.93296
8.88483
10.7537
10.7494
10.7451
10.7399
10.7342
10.728
10.7214
10.7144
10.7069
10.6991
10.691
10.6825
10.6736
10.6644
10.6549
10.645
10.6348
10.6242
10.6133
10.6021
10.5905
10.5786
10.5663
10.5537
10.5407
10.5273
10.5136
10.4995
10.485
10.4702
10.4549
10.4393
10.4233
10.4068
10.39
10.3727
10.355
10.3369
10.3183
10.2993
10.2799
10.2599
10.2396
10.2187
10.1973
10.1755
10.1532
10.1303
10.107
10.0831
10.0587
10.0337
10.0082
9.9821
9.95545
9.92822
9.9004
9.87197
9.84293
9.81328
9.78298
9.75205
9.72046
9.68821
9.65528
9.62166
9.58734
9.55231
9.51656
9.48007
9.44284
9.40484
9.36608
9.32653
9.28618
9.24502
9.20304
9.16022
9.11655
9.07201
9.0266
8.98029
8.93308
8.88495
10.7539
10.7496
10.7453
10.7401
10.7344
10.7282
10.7216
10.7146
10.7071
10.6993
10.6912
10.6827
10.6738
10.6646
10.6551
10.6452
10.635
10.6244
10.6136
10.6023
10.5907
10.5788
10.5665
10.5539
10.5409
10.5275
10.5138
10.4997
10.4852
10.4704
10.4551
10.4395
10.4235
10.407
10.3902
10.3729
10.3552
10.3371
10.3185
10.2995
10.28
10.2601
10.2397
10.2189
10.1975
10.1757
10.1534
10.1305
10.1072
10.0833
10.0588
10.0339
10.0084
9.98228
9.95563
9.92839
9.90057
9.87214
9.8431
9.81344
9.78315
9.75221
9.72062
9.68837
9.65543
9.62181
9.58749
9.55246
9.51671
9.48022
9.44299
9.40499
9.36622
9.32667
9.28632
9.24516
9.20317
9.16035
9.11668
9.07214
9.02673
8.98042
8.93321
8.88507
10.7541
10.7498
10.7455
10.7403
10.7346
10.7284
10.7218
10.7148
10.7074
10.6996
10.6914
10.6829
10.674
10.6648
10.6553
10.6454
10.6352
10.6247
10.6138
10.6025
10.5909
10.579
10.5667
10.5541
10.5411
10.5277
10.514
10.4999
10.4854
10.4706
10.4553
10.4397
10.4237
10.4072
10.3904
10.3731
10.3554
10.3373
10.3187
10.2997
10.2802
10.2603
10.2399
10.2191
10.1977
10.1759
10.1535
10.1307
10.1073
10.0834
10.059
10.0341
10.0085
9.98245
9.9558
9.92857
9.90074
9.87231
9.84327
9.81361
9.78332
9.75238
9.72078
9.68853
9.65559
9.62197
9.58765
9.55262
9.51686
9.48037
9.44313
9.40514
9.36637
9.32681
9.28646
9.2453
9.20331
9.16049
9.11682
9.07228
9.02686
8.98055
8.93333
8.8852
10.7543
10.75
10.7457
10.7406
10.7348
10.7287
10.722
10.715
10.7076
10.6998
10.6916
10.6831
10.6742
10.665
10.6555
10.6456
10.6354
10.6249
10.614
10.6027
10.5911
10.5792
10.5669
10.5543
10.5413
10.5279
10.5142
10.5001
10.4856
10.4708
10.4555
10.4399
10.4238
10.4074
10.3906