/*--------------------------------*- C++ -*----------------------------------*\
  =========                 |
  \\      /  F ield         | OpenFOAM: The Open Source CFD Toolbox
   \\    /   O peration     | Website:  https://openfoam.org
    \\  /    A nd           | Version:  10
     \\/     M anipulation  |
\*---------------------------------------------------------------------------*/
FoamFile
{
    format      ascii;
    class       volScalarField;
    location    "22000";
    object      p;
}
// * * * * * * * * * * * * * * * * * * * * * * * * * * * * * * * * * * * * * //

dimensions      [0 2 -2 0 0 0 0];

internalField   nonuniform List<scalar> 
17808
(
15.4339
15.4563
15.4679
15.4706
15.4708
15.4681
15.4632
15.4567
15.4487
15.4395
15.4293
15.4181
15.4061
15.3933
15.3798
15.3656
15.3507
15.3351
15.3189
15.302
15.2846
15.2665
15.2478
15.2284
15.2085
15.188
15.1668
15.145
15.1226
15.0995
15.0758
15.0514
15.0264
15.0008
14.9744
14.9474
14.9197
14.8913
14.8622
14.8324
14.8019
14.7706
14.7386
14.7058
14.6723
14.6379
14.6028
14.5668
14.5301
14.4925
14.454
14.4147
14.3745
14.3335
14.2915
14.2486
14.2048
14.16
14.1142
14.0675
14.0198
13.971
13.9213
13.8704
13.8186
13.7656
13.7115
13.6564
13.6
13.5426
13.4839
13.4241
13.363
13.3008
13.2372
13.1724
13.1063
13.0389
12.9702
12.9001
12.8287
12.7558
12.6815
12.6058
12.5287
12.45
12.3699
12.2882
12.205
12.1202
12.0338
11.9458
15.4999
15.5004
15.4928
15.4862
15.4805
15.4739
15.4665
15.4582
15.4492
15.4393
15.4286
15.4171
15.4049
15.392
15.3784
15.3641
15.3492
15.3336
15.3174
15.3006
15.2831
15.2651
15.2464
15.2271
15.2072
15.1867
15.1656
15.1438
15.1214
15.0984
15.0747
15.0504
15.0254
14.9998
14.9735
14.9465
14.9189
14.8905
14.8615
14.8317
14.8012
14.7699
14.7379
14.7052
14.6716
14.6373
14.6022
14.5663
14.5295
14.4919
14.4535
14.4142
14.3741
14.333
14.291
14.2482
14.2043
14.1596
14.1138
14.0671
14.0194
13.9707
13.9209
13.8701
13.8182
13.7653
13.7112
13.6561
13.5997
13.5423
13.4836
13.4238
13.3628
13.3005
13.237
13.1722
13.1061
13.0387
12.97
12.8999
12.8284
12.7556
12.6813
12.6056
12.5284
12.4498
12.3696
12.288
12.2047
12.12
12.0336
11.9456
15.5294
15.5242
15.5138
15.5052
15.4962
15.4864
15.4763
15.4659
15.455
15.4436
15.4318
15.4194
15.4065
15.393
15.379
15.3644
15.3492
15.3334
15.317
15.3001
15.2826
15.2645
15.2457
15.2264
15.2065
15.186
15.1648
15.1431
15.1207
15.0977
15.074
15.0497
15.0248
14.9991
14.9729
14.9459
14.9182
14.8899
14.8609
14.8311
14.8006
14.7694
14.7374
14.7046
14.6711
14.6368
14.6017
14.5658
14.5291
14.4915
14.4531
14.4138
14.3737
14.3326
14.2907
14.2478
14.204
14.1592
14.1135
14.0668
14.0191
13.9704
13.9206
13.8698
13.8179
13.765
13.7109
13.6558
13.5995
13.542
13.4834
13.4235
13.3625
13.3002
13.2367
13.1719
13.1058
13.0384
12.9697
12.8996
12.8282
12.7553
12.681
12.6053
12.5282
12.4495
12.3694
12.2877
12.2045
12.1197
12.0333
11.9453
15.5298
15.5245
15.5164
15.5091
15.5003
15.4907
15.4806
15.4699
15.4586
15.4468
15.4345
15.4217
15.4084
15.3946
15.3802
15.3653
15.3499
15.3339
15.3174
15.3003
15.2826
15.2644
15.2456
15.2262
15.2062
15.1856
15.1644
15.1426
15.1202
15.0972
15.0735
15.0492
15.0242
14.9986
14.9723
14.9454
14.9177
14.8894
14.8604
14.8306
14.8001
14.7689
14.7369
14.7042
14.6707
14.6364
14.6013
14.5654
14.5287
14.4911
14.4527
14.4134
14.3733
14.3322
14.2903
14.2474
14.2036
14.1589
14.1132
14.0665
14.0188
13.97
13.9203
13.8695
13.8176
13.7647
13.7106
13.6555
13.5992
13.5417
13.4831
13.4233
13.3622
13.2999
13.2364
13.1716
13.1056
13.0382
12.9694
12.8994
12.8279
12.755
12.6808
12.6051
12.5279
12.4493
12.3691
12.2875
12.2042
12.1194
12.033
11.945
15.5307
15.5249
15.5175
15.5101
15.5013
15.492
15.482
15.4713
15.4601
15.4483
15.4359
15.423
15.4096
15.3956
15.3811
15.3661
15.3505
15.3344
15.3177
15.3005
15.2828
15.2644
15.2455
15.2261
15.206
15.1854
15.1642
15.1423
15.1199
15.0968
15.0731
15.0488
15.0238
14.9982
14.9719
14.9449
14.9173
14.8889
14.8599
14.8301
14.7997
14.7684
14.7365
14.7037
14.6702
14.6359
14.6009
14.565
14.5283
14.4907
14.4523
14.4131
14.3729
14.3319
14.2899
14.2471
14.2033
14.1585
14.1128
14.0661
14.0184
13.9697
13.92
13.8692
13.8173
13.7644
13.7104
13.6552
13.5989
13.5414
13.4828
13.423
13.362
13.2997
13.2362
13.1714
13.1053
13.0379
12.9692
12.8991
12.8277
12.7548
12.6805
12.6048
12.5277
12.449
12.3689
12.2872
12.204
12.1192
12.0328
11.9448
15.5345
15.5282
15.5209
15.5131
15.5041
15.4945
15.4842
15.4734
15.462
15.45
15.4375
15.4244
15.4108
15.3967
15.3821
15.3669
15.3512
15.335
15.3182
15.3009
15.283
15.2646
15.2457
15.2261
15.206
15.1853
15.164
15.1421
15.1197
15.0966
15.0728
15.0485
15.0235
14.9978
14.9715
14.9446
14.9169
14.8886
14.8595
14.8297
14.7993
14.768
14.7361
14.7033
14.6698
14.6356
14.6005
14.5646
14.5279
14.4903
14.452
14.4127
14.3726
14.3315
14.2896
14.2468
14.203
14.1582
14.1125
14.0658
14.0182
13.9694
13.9197
13.8689
13.8171
13.7641
13.7101
13.6549
13.5986
13.5412
13.4826
13.4227
13.3617
13.2995
13.2359
13.1711
13.1051
13.0377
12.969
12.8989
12.8274
12.7546
12.6803
12.6046
12.5274
12.4488
12.3687
12.287
12.2038
12.119
12.0326
11.9446
15.5374
15.5308
15.5237
15.5156
15.5065
15.4968
15.4864
15.4754
15.4639
15.4517
15.439
15.4258
15.4121
15.3979
15.3831
15.3678
15.352
15.3357
15.3188
15.3014
15.2834
15.2649
15.2459
15.2263
15.2061
15.1854
15.164
15.1421
15.1196
15.0964
15.0727
15.0483
15.0233
14.9976
14.9713
14.9443
14.9166
14.8883
14.8592
14.8294
14.7989
14.7677
14.7357
14.703
14.6695
14.6352
14.6001
14.5643
14.5276
14.49
14.4516
14.4124
14.3722
14.3312
14.2893
14.2465
14.2027
14.1579
14.1122
14.0655
14.0179
13.9692
13.9194
13.8687
13.8168
13.7639
13.7098
13.6547
13.5984
13.5409
13.4823
13.4225
13.3615
13.2992
13.2357
13.1709
13.1048
13.0374
12.9687
12.8987
12.8272
12.7544
12.6801
12.6044
12.5272
12.4486
12.3684
12.2868
12.2035
12.1187
12.0323
11.9443
15.5389
15.5321
15.5252
15.5171
15.508
15.4983
15.4879
15.4768
15.4652
15.453
15.4403
15.427
15.4132
15.3988
15.384
15.3686
15.3527
15.3363
15.3194
15.3019
15.2839
15.2653
15.2462
15.2265
15.2063
15.1855
15.1641
15.1421
15.1196
15.0964
15.0726
15.0482
15.0231
14.9974
14.9711
14.9441
14.9164
14.888
14.8589
14.8292
14.7987
14.7674
14.7354
14.7027
14.6692
14.6349
14.5998
14.564
14.5273
14.4897
14.4513
14.4121
14.3719
14.3309
14.289
14.2462
14.2024
14.1577
14.112
14.0653
14.0176
13.9689
13.9192
13.8684
13.8165
13.7636
13.7096
13.6544
13.5982
13.5407
13.4821
13.4223
13.3612
13.299
13.2355
13.1707
13.1046
13.0372
12.9685
12.8984
12.827
12.7541
12.6799
12.6042
12.527
12.4484
12.3682
12.2866
12.2033
12.1185
12.0321
11.9441
15.5402
15.5332
15.5264
15.5182
15.5091
15.4994
15.4889
15.4779
15.4662
15.454
15.4412
15.4279
15.414
15.3997
15.3847
15.3693
15.3534
15.3369
15.3199
15.3024
15.2843
15.2657
15.2465
15.2268
15.2065
15.1857
15.1642
15.1422
15.1196
15.0964
15.0726
15.0481
15.0231
14.9973
14.971
14.9439
14.9162
14.8878
14.8587
14.8289
14.7984
14.7672
14.7352
14.7025
14.6689
14.6347
14.5996
14.5637
14.527
14.4894
14.4511
14.4118
14.3717
14.3307
14.2887
14.2459
14.2021
14.1574
14.1117
14.065
14.0173
13.9686
13.9189
13.8681
13.8163
13.7634
13.7094
13.6542
13.5979
13.5405
13.4819
13.4221
13.361
13.2988
13.2353
13.1705
13.1044
13.037
12.9683
12.8982
12.8268
12.7539
12.6797
12.604
12.5268
12.4482
12.368
12.2864
12.2031
12.1183
12.0319
11.9439
15.5413
15.5342
15.5275
15.5192
15.5101
15.5004
15.4899
15.4788
15.4671
15.4548
15.442
15.4287
15.4148
15.4004
15.3854
15.37
15.354
15.3374
15.3204
15.3028
15.2847
15.266
15.2468
15.2271
15.2068
15.1859
15.1644
15.1423
15.1197
15.0965
15.0726
15.0481
15.023
14.9973
14.9709
14.9438
14.9161
14.8877
14.8586
14.8288
14.7982
14.767
14.735
14.7022
14.6687
14.6344
14.5993
14.5635
14.5267
14.4892
14.4508
14.4116
14.3714
14.3304
14.2885
14.2457
14.2019
14.1571
14.1115
14.0648
14.0171
13.9684
13.9187
13.8679
13.8161
13.7632
13.7091
13.654
13.5977
13.5403
13.4816
13.4218
13.3608
13.2986
13.2351
13.1703
13.1042
13.0368
12.9681
12.898
12.8266
12.7537
12.6795
12.6038
12.5266
12.448
12.3678
12.2862
12.2029
12.1181
12.0318
11.9437
15.5422
15.535
15.5284
15.52
15.511
15.5012
15.4907
15.4796
15.4679
15.4556
15.4427
15.4294
15.4154
15.401
15.386
15.3705
15.3545
15.3379
15.3209
15.3032
15.2851
15.2664
15.2471
15.2274
15.207
15.1861
15.1646
15.1425
15.1198
15.0965
15.0727
15.0482
15.023
14.9973
14.9708
14.9438
14.916
14.8876
14.8585
14.8286
14.7981
14.7668
14.7348
14.7021
14.6685
14.6342
14.5991
14.5632
14.5265
14.489
14.4506
14.4113
14.3712
14.3302
14.2883
14.2454
14.2016
14.1569
14.1112
14.0646
14.0169
13.9682
13.9185
13.8677
13.8159
13.7629
13.7089
13.6538
13.5975
13.5401
13.4814
13.4216
13.3606
13.2984
13.2349
13.1701
13.104
13.0366
12.9679
12.8978
12.8264
12.7536
12.6793
12.6036
12.5265
12.4478
12.3677
12.286
12.2028
12.118
12.0316
11.9436
15.5429
15.5357
15.5291
15.5207
15.5117
15.5018
15.4914
15.4802
15.4685
15.4562
15.4433
15.4299
15.416
15.4015
15.3865
15.371
15.355
15.3384
15.3213
15.3036
15.2854
15.2667
15.2474
15.2276
15.2072
15.1863
15.1648
15.1427
15.12
15.0967
15.0727
15.0482
15.0231
14.9973
14.9708
14.9437
14.916
14.8875
14.8584
14.8286
14.798
14.7667
14.7347
14.7019
14.6684
14.6341
14.599
14.5631
14.5264
14.4888
14.4504
14.4111
14.371
14.33
14.2881
14.2452
14.2014
14.1567
14.111
14.0643
14.0167
13.968
13.9183
13.8675
13.8157
13.7627
13.7087
13.6536
13.5973
13.5399
13.4813
13.4215
13.3604
13.2982
13.2347
13.1699
13.1038
13.0365
12.9677
12.8977
12.8262
12.7534
12.6791
12.6034
12.5263
12.4476
12.3675
12.2858
12.2026
12.1178
12.0314
11.9434
15.5435
15.5363
15.5297
15.5213
15.5122
15.5024
15.4919
15.4808
15.469
15.4567
15.4438
15.4304
15.4165
15.402
15.387
15.3714
15.3554
15.3388
15.3216
15.304
15.2858
15.267
15.2477
15.2279
15.2075
15.1865
15.1649
15.1428
15.1201
15.0968
15.0728
15.0483
15.0231
14.9973
14.9709
14.9437
14.916
14.8875
14.8583
14.8285
14.7979
14.7666
14.7346
14.7018
14.6683
14.6339
14.5988
14.5629
14.5262
14.4886
14.4502
14.411
14.3708
14.3298
14.2879
14.245
14.2013
14.1565
14.1108
14.0642
14.0165
13.9678
13.9181
13.8673
13.8155
13.7626
13.7085
13.6534
13.5971
13.5397
13.4811
13.4213
13.3603
13.298
13.2345
13.1697
13.1037
13.0363
12.9676
12.8975
12.8261
12.7532
12.679
12.6033
12.5261
12.4475
12.3673
12.2857
12.2024
12.1176
12.0313
11.9432
15.544
15.5367
15.5302
15.5218
15.5127
15.5029
15.4924
15.4812
15.4695
15.4572
15.4443
15.4309
15.4169
15.4024
15.3874
15.3718
15.3557
15.3391
15.322
15.3043
15.2861
15.2673
15.248
15.2281
15.2077
15.1867
15.1651
15.143
15.1202
15.0969
15.073
15.0484
15.0232
14.9974
14.9709
14.9438
14.916
14.8875
14.8583
14.8285
14.7979
14.7666
14.7345
14.7017
14.6682
14.6338
14.5987
14.5628
14.5261
14.4885
14.4501
14.4108
14.3707
14.3297
14.2877
14.2449
14.2011
14.1564
14.1107
14.064
14.0163
13.9676
13.9179
13.8671
13.8153
13.7624
13.7084
13.6532
13.597
13.5395
13.4809
13.4211
13.3601
13.2978
13.2343
13.1696
13.1035
13.0361
12.9674
12.8974
12.8259
12.7531
12.6788
12.6031
12.526
12.4473
12.3672
12.2855
12.2023
12.1175
12.0311
11.9431
15.5444
15.5372
15.5306
15.5222
15.5131
15.5033
15.4928
15.4816
15.4699
15.4575
15.4447
15.4312
15.4172
15.4027
15.3877
15.3721
15.356
15.3394
15.3222
15.3046
15.2863
15.2675
15.2482
15.2283
15.2079
15.1869
15.1653
15.1431
15.1204
15.097
15.0731
15.0485
15.0233
14.9974
14.9709
14.9438
14.916
14.8875
14.8583
14.8284
14.7978
14.7665
14.7345
14.7017
14.6681
14.6338
14.5986
14.5627
14.526
14.4884
14.45
14.4107
14.3706
14.3295
14.2876
14.2447
14.201
14.1562
14.1105
14.0638
14.0162
13.9675
13.9178
13.867
13.8151
13.7622
13.7082
13.6531
13.5968
13.5394
13.4808
13.421
13.3599
13.2977
13.2342
13.1694
13.1034
13.036
12.9673
12.8972
12.8258
12.7529
12.6787
12.603
12.5258
12.4472
12.3671
12.2854
12.2022
12.1174
12.031
11.943
15.5448
15.5375
15.5309
15.5226
15.5135
15.5036
15.4931
15.482
15.4702
15.4579
15.445
15.4315
15.4176
15.403
15.388
15.3724
15.3563
15.3397
15.3225
15.3048
15.2866
15.2678
15.2484
15.2285
15.2081
15.1871
15.1655
15.1433
15.1205
15.0972
15.0732
15.0486
15.0234
14.9975
14.971
14.9438
14.916
14.8875
14.8583
14.8284
14.7978
14.7665
14.7344
14.7016
14.6681
14.6337
14.5986
14.5626
14.5259
14.4883
14.4499
14.4106
14.3704
14.3294
14.2875
14.2446
14.2008
14.1561
14.1104
14.0637
14.016
13.9673
13.9176
13.8668
13.815
13.7621
13.7081
13.6529
13.5967
13.5392
13.4806
13.4208
13.3598
13.2976
13.2341
13.1693
13.1032
13.0358
12.9671
12.8971
12.8256
12.7528
12.6786
12.6029
12.5257
12.4471
12.3669
12.2853
12.202
12.1172
12.0308
11.9428
15.5451
15.5378
15.5312
15.5229
15.5138
15.504
15.4934
15.4823
15.4705
15.4582
15.4453
15.4318
15.4178
15.4033
15.3883
15.3727
15.3566
15.3399
15.3227
15.305
15.2868
15.268
15.2486
15.2287
15.2083
15.1872
15.1656
15.1434
15.1207
15.0973
15.0733
15.0487
15.0235
14.9976
14.9711
14.9439
14.9161
14.8876
14.8584
14.8284
14.7978
14.7665
14.7344
14.7016
14.668
14.6337
14.5985
14.5626
14.5258
14.4882
14.4498
14.4105
14.3704
14.3293
14.2874
14.2445
14.2007
14.156
14.1103
14.0636
14.0159
13.9672
13.9175
13.8667
13.8149
13.762
13.7079
13.6528
13.5965
13.5391
13.4805
13.4207
13.3597
13.2974
13.2339
13.1692
13.1031
13.0357
12.967
12.897
12.8255
12.7527
12.6784
12.6027
12.5256
12.447
12.3668
12.2851
15.5454
15.5381
15.5315
15.5231
15.5141
15.5042
15.4937
15.4825
15.4708
15.4584
15.4455
15.4321
15.4181
15.4036
15.3885
15.3729
15.3568
15.3401
15.3229
15.3052
15.287
15.2682
15.2488
15.2289
15.2084
15.1874
15.1658
15.1436
15.1208
15.0974
15.0734
15.0488
15.0235
14.9977
14.9711
14.944
14.9161
14.8876
14.8584
14.8285
14.7978
14.7665
14.7344
14.7016
14.668
14.6336
14.5985
14.5625
14.5258
14.4882
14.4497
14.4104
14.3703
14.3292
14.2873
14.2444
14.2006
14.1559
14.1102
14.0635
14.0158
13.9671
13.9174
13.8666
13.8148
13.7618
13.7078
13.6527
13.5964
13.539
13.4804
13.4206
13.3596
13.2973
13.2338
13.169
13.103
13.0356
12.9669
12.8968
12.8254
12.7526
12.6783
12.6026
12.5255
12.4469
12.3667
12.285
15.5456
15.5384
15.5317
15.5234
15.5143
15.5045
15.4939
15.4828
15.471
15.4587
15.4457
15.4323
15.4183
15.4038
15.3887
15.3731
15.357
15.3403
15.3231
15.3054
15.2871
15.2683
15.249
15.2291
15.2086
15.1875
15.1659
15.1437
15.1209
15.0975
15.0735
15.0489
15.0236
14.9977
14.9712
14.944
14.9162
14.8876
14.8584
14.8285
14.7979
14.7665
14.7344
14.7016
14.668
14.6336
14.5985
14.5625
14.5257
14.4881
14.4497
14.4104
14.3702
14.3292
14.2872
14.2444
14.2006
14.1558
14.1101
14.0634
14.0157
13.967
13.9173
13.8665
13.8147
13.7618
13.7077
13.6526
13.5963
13.5389
13.4803
13.4205
13.3595
13.2972
13.2337
13.1689
13.1029
13.0355
12.9668
12.8967
12.8253
12.7525
12.6782
12.6025
12.5254
12.4468
12.3666
12.2849
15.5459
15.5386
15.532
15.5236
15.5145
15.5047
15.4941
15.483
15.4712
15.4589
15.4459
15.4325
15.4185
15.404
15.3889
15.3733
15.3572
15.3405
15.3233
15.3056
15.2873
15.2685
15.2491
15.2292
15.2087
15.1877
15.166
15.1438
15.121
15.0976
15.0736
15.049
15.0237
14.9978
14.9713
14.9441
14.9162
14.8877
14.8585
14.8285
14.7979
14.7665
14.7344
14.7016
14.668
14.6336
14.5985
14.5625
14.5257
14.4881
14.4497
14.4104
14.3702
14.3291
14.2872
14.2443
14.2005
14.1557
14.11
14.0633
14.0156
13.9669
13.9172
13.8664
13.8146
13.7617
13.7076
13.6525
13.5962
13.5388
13.4802
13.4204
13.3594
13.2971
13.2336
13.1689
13.1028
13.0354
12.9667
12.8967
12.8252
12.7524
12.6781
12.6024
12.5253
15.546
15.5388
15.5321
15.5238
15.5147
15.5049
15.4943
15.4832
15.4714
15.459
15.4461
15.4327
15.4187
15.4041
15.3891
15.3735
15.3573
15.3407
15.3235
15.3057
15.2875
15.2686
15.2493
15.2293
15.2089
15.1878
15.1662
15.1439
15.1211
15.0977
15.0737
15.0491
15.0238
14.9979
14.9714
14.9442
14.9163
14.8878
14.8585
14.8286
14.7979
14.7666
14.7345
14.7016
14.668
14.6336
14.5985
14.5625
14.5257
14.4881
14.4496
14.4103
14.3702
14.3291
14.2871
14.2443
14.2005
14.1557
14.11
14.0633
14.0156
13.9669
13.9172
13.8664
13.8145
13.7616
13.7076
13.6524
13.5962
13.5387
13.4801
13.4203
13.3593
13.297
13.2335
13.1688
13.1027
13.0353
12.9666
12.8966
12.8251
12.7523
12.6781
12.6024
12.5252
15.5462
15.539
15.5323
15.524
15.5149
15.505
15.4945
15.4833
15.4716
15.4592
15.4463
15.4328
15.4188
15.4043
15.3892
15.3736
15.3575
15.3408
15.3236
15.3059
15.2876
15.2688
15.2494
15.2295
15.209
15.1879
15.1663
15.1441
15.1212
15.0978
15.0738
15.0492
15.0239
14.998
14.9714
14.9442
14.9164
14.8878
14.8586
14.8286
14.798
14.7666
14.7345
14.7017
14.668
14.6336
14.5985
14.5625
14.5257
14.4881
14.4496
14.4103
14.3701
14.3291
14.2871
14.2442
14.2004
14.1557
14.1099
14.0632
14.0155
13.9668
13.9171
13.8663
13.8145
13.7615
13.7075
13.6524
13.5961
13.5387
13.48
13.4202
13.3592
13.297
13.2335
13.1687
13.1026
13.0353
12.9666
12.8965
12.8251
12.7522
12.678
12.6023
12.5251
15.5464
15.5391
15.5325
15.5241
15.515
15.5052
15.4947
15.4835
15.4717
15.4594
15.4464
15.433
15.419
15.4044
15.3894
15.3738
15.3576
15.341
15.3238
15.306
15.2877
15.2689
15.2495
15.2296
15.2091
15.188
15.1664
15.1442
15.1213
15.0979
15.0739
15.0493
15.024
14.9981
14.9715
14.9443
14.9164
14.8879
14.8586
14.8287
14.798
14.7667
14.7346
14.7017
14.6681
14.6337
14.5985
14.5625
14.5257
14.4881
14.4496
14.4103
14.3701
14.3291
14.2871
14.2442
14.2004
14.1556
14.1099
14.0632
14.0155
13.9668
13.9171
13.8663
13.8144
13.7615
13.7075
13.6523
13.596
13.5386
13.48
13.4202
13.3592
13.2969
13.2334
13.1687
13.1026
13.0352
12.9665
12.8965
12.825
12.7522
12.6779
12.6022
12.5251
15.5465
15.5393
15.5326
15.5243
15.5152
15.5053
15.4948
15.4836
15.4719
15.4595
15.4466
15.4331
15.4191
15.4046
15.3895
15.3739
15.3578
15.3411
15.3239
15.3061
15.2879
15.269
15.2496
15.2297
15.2092
15.1881
15.1665
15.1443
15.1214
15.098
15.074
15.0494
15.0241
14.9982
14.9716
14.9444
14.9165
14.888
14.8587
14.8288
14.7981
14.7667
14.7346
14.7017
14.6681
14.6337
14.5985
14.5625
14.5257
14.4881
14.4497
14.4103
14.3702
14.3291
14.2871
14.2442
14.2004
14.1556
14.1099
14.0632
14.0155
13.9668
13.917
13.8663
13.8144
13.7615
13.7074
13.6523
13.596
13.5386
13.48
13.4202
13.3591
13.2969
13.2334
13.1686
13.1026
13.0352
12.9665
12.8964
12.825
12.7521
12.6779
12.6022
12.5251
15.5467
15.5394
15.5328
15.5244
15.5153
15.5055
15.4949
15.4838
15.472
15.4596
15.4467
15.4333
15.4193
15.4047
15.3896
15.374
15.3579
15.3412
15.324
15.3063
15.288
15.2691
15.2498
15.2298
15.2093
15.1883
15.1666
15.1444
15.1216
15.0981
15.0741
15.0494
15.0242
14.9983
14.9717
14.9445
14.9166
14.888
14.8588
14.8288
14.7982
14.7668
14.7347
14.7018
14.6682
14.6338
14.5986
14.5626
14.5258
14.4882
14.4497
14.4104
14.3702
14.3291
14.2871
14.2442
14.2004
14.1556
14.1099
14.0632
14.0155
13.9668
13.917
13.8662
13.8144
13.7615
13.7074
13.6523
13.596
13.5385
13.4799
13.4201
13.3591
13.2969
13.2334
13.1686
13.1025
13.0351
12.9664
12.8964
12.8249
12.7521
12.6779
12.6022
12.525
15.5468
15.5396
15.5329
15.5246
15.5155
15.5056
15.4951
15.4839
15.4721
15.4598
15.4469
15.4334
15.4194
15.4048
15.3898
15.3741
15.358
15.3413
15.3241
15.3064
15.2881
15.2693
15.2499
15.2299
15.2094
15.1884
15.1667
15.1445
15.1217
15.0982
15.0742
15.0495
15.0243
14.9983
14.9718
14.9446
14.9167
14.8881
14.8589
14.8289
14.7982
14.7668
14.7347
14.7018
14.6682
14.6338
14.5986
14.5626
14.5258
14.4882
14.4497
14.4104
14.3702
14.3291
14.2871
14.2442
14.2004
14.1557
14.1099
14.0632
14.0155
13.9668
13.917
13.8662
13.8144
13.7615
13.7074
13.6523
13.596
13.5385
13.4799
13.4201
13.3591
13.2968
13.2333
13.1686
13.1025
13.0351
12.9664
12.8964
12.8249
12.7521
12.6778
12.6022
12.525
15.5469
15.5397
15.533
15.5247
15.5156
15.5057
15.4952
15.484
15.4723
15.4599
15.447
15.4335
15.4195
15.405
15.3899
15.3743
15.3581
15.3415
15.3242
15.3065
15.2882
15.2694
15.25
15.23
15.2095
15.1885
15.1668
15.1446
15.1218
15.0983
15.0743
15.0496
15.0244
14.9984
14.9719
14.9446
14.9168
14.8882
14.8589
14.829
14.7983
14.7669
14.7348
14.7019
14.6683
14.6339
14.5987
14.5627
14.5259
14.4882
14.4498
14.4104
14.3702
14.3292
14.2872
14.2443
14.2005
14.1557
14.1099
14.0632
14.0155
13.9668
13.9171
13.8663
13.8144
13.7615
13.7074
13.6523
13.596
13.5385
13.4799
13.4201
13.3591
13.2968
13.2333
13.1686
13.1025
13.0351
12.9664
12.8964
12.8249
12.7521
12.6778
12.6021
12.525
15.5471
15.5399
15.5331
15.5248
15.5157
15.5059
15.4953
15.4842
15.4724
15.46
15.4471
15.4336
15.4196
15.4051
15.39
15.3744
15.3582
15.3416
15.3244
15.3066
15.2883
15.2695
15.2501
15.2302
15.2097
15.1886
15.1669
15.1447
15.1219
15.0984
15.0744
15.0497
15.0244
14.9985
14.972
14.9447
14.9168
14.8883
14.859
14.8291
14.7984
14.767
14.7349
14.702
14.6683
14.6339
14.5987
14.5627
14.5259
14.4883
14.4498
14.4105
14.3703
14.3292
14.2872
14.2443
14.2005
14.1557
14.11
14.0633
14.0155
13.9668
13.9171
13.8663
13.8144
13.7615
13.7074
13.6523
13.596
13.5386
13.4799
13.4201
13.3591
13.2968
13.2333
13.1686
13.1025
13.0351
12.9664
12.8964
12.8249
12.7521
12.6778
12.6021
12.525
15.5472
15.54
15.5333
15.5249
15.5158
15.506
15.4955
15.4843
15.4725
15.4601
15.4472
15.4338
15.4197
15.4052
15.3901
15.3745
15.3584
15.3417
15.3245
15.3067
15.2884
15.2696
15.2502
15.2303
15.2098
15.1887
15.167
15.1448
15.122
15.0985
15.0745
15.0498
15.0245
14.9986
14.9721
14.9448
14.9169
14.8884
14.8591
14.8291
14.7985
14.7671
14.7349
14.7021
14.6684
14.634
14.5988
14.5628
14.526
14.4884
14.4499
14.4105
14.3703
14.3293
14.2873
14.2444
14.2005
14.1558
14.11
14.0633
14.0156
13.9669
13.9171
13.8663
13.8145
13.7615
13.7075
13.6523
13.596
13.5386
13.48
13.4201
13.3591
13.2969
13.2334
13.1686
13.1025
13.0351
12.9664
12.8964
12.8249
12.7521
12.6779
12.6022
12.525
15.5473
15.5401
15.5334
15.5251
15.516
15.5061
15.4956
15.4844
15.4726
15.4603
15.4474
15.4339
15.4199
15.4053
15.3902
15.3746
15.3585
15.3418
15.3246
15.3068
15.2886
15.2697
15.2503
15.2304
15.2099
15.1888
15.1671
15.1449
15.1221
15.0986
15.0746
15.0499
15.0246
14.9987
14.9722
14.9449
14.917
14.8885
14.8592
14.8292
14.7986
14.7672
14.735
14.7021
14.6685
14.6341
14.5989
14.5629
14.5261
14.4884
14.45
14.4106
14.3704
14.3293
14.2873
14.2444
14.2006
14.1558
14.1101
14.0634
14.0156
13.9669
13.9172
13.8664
13.8145
13.7616
13.7075
13.6524
13.5961
13.5386
13.48
13.4202
13.3592
13.2969
13.2334
13.1686
13.1026
13.0352
12.9665
12.8964
12.825
12.7521
12.6779
12.6022
12.525
15.5474
15.5403
15.5335
15.5252
15.5161
15.5062
15.4957
15.4845
15.4728
15.4604
15.4475
15.434
15.42
15.4054
15.3904
15.3747
15.3586
15.3419
15.3247
15.307
15.2887
15.2698
15.2504
15.2305
15.21
15.1889
15.1673
15.145
15.1222
15.0987
15.0747
15.05
15.0248
14.9988
14.9723
14.945
14.9171
14.8886
14.8593
14.8293
14.7987
14.7673
14.7351
14.7022
14.6686
14.6342
14.599
14.563
14.5262
14.4885
14.45
14.4107
14.3705
14.3294
14.2874
14.2445
14.2007
14.1559
14.1101
14.0634
14.0157
13.967
13.9172
13.8664
13.8145
13.7616
13.7076
13.6524
13.5961
13.5387
13.48
13.4202
13.3592
13.2969
13.2334
13.1687
13.1026
13.0352
12.9665
12.8964
12.825
12.7522
12.6779
12.6022
12.5251
15.5476
15.5404
15.5336
15.5253
15.5162
15.5064
15.4958
15.4847
15.4729
15.4605
15.4476
15.4341
15.4201
15.4056
15.3905
15.3749
15.3587
15.342
15.3248
15.3071
15.2888
15.27
15.2506
15.2306
15.2101
15.189
15.1674
15.1451
15.1223
15.0989
15.0748
15.0502
15.0249
14.9989
14.9724
14.9451
14.9172
14.8887
14.8594
14.8294
14.7988
14.7674
14.7352
14.7023
14.6687
14.6343
14.5991
14.5631
14.5262
14.4886
14.4501
14.4108
14.3706
14.3295
14.2875
14.2446
14.2007
14.156
14.1102
14.0635
14.0158
13.967
13.9173
13.8665
13.8146
13.7617
13.7076
13.6525
13.5962
13.5387
13.4801
13.4203
13.3593
13.297
13.2335
13.1687
13.1026
13.0353
12.9665
12.8965
12.825
12.7522
12.678
12.6023
12.5251
15.5477
15.5405
15.5337
15.5255
15.5164
15.5065
15.496
15.4848
15.473
15.4607
15.4477
15.4343
15.4202
15.4057
15.3906
15.375
15.3589
15.3422
15.325
15.3072
15.2889
15.2701
15.2507
15.2307
15.2102
15.1891
15.1675
15.1452
15.1224
15.099
15.0749
15.0503
15.025
14.999
14.9725
14.9452
14.9173
14.8888
14.8595
14.8295
14.7989
14.7675
14.7353
14.7024
14.6688
14.6344
14.5992
14.5632
14.5263
14.4887
14.4502
14.4109
14.3707
14.3296
14.2876
14.2447
14.2008
14.156
14.1103
14.0636
14.0158
13.9671
13.9174
13.8666
13.8147
13.7617
13.7077
13.6525
13.5962
13.5388
13.4802
13.4203
13.3593
13.2971
13.2335
13.1688
13.1027
13.0353
12.9666
12.8965
12.8251
12.7523
12.678
12.6023
12.5252
15.5478
15.5407
15.5339
15.5256
15.5165
15.5066
15.4961
15.4849
15.4731
15.4608
15.4479
15.4344
15.4204
15.4058
15.3907
15.3751
15.359
15.3423
15.3251
15.3073
15.289
15.2702
15.2508
15.2309
15.2104
15.1893
15.1676
15.1454
15.1225
15.0991
15.0751
15.0504
15.0251
14.9992
14.9726
14.9454
14.9175
14.8889
14.8596
14.8296
14.799
14.7676
14.7354
14.7025
14.6689
14.6345
14.5993
14.5633
14.5264
14.4888
14.4503
14.411
14.3708
14.3297
14.2877
14.2448
14.2009
14.1561
14.1104
14.0637
14.0159
13.9672
13.9174
13.8666
13.8148
13.7618
13.7078
13.6526
13.5963
13.5389
13.4802
13.4204
13.3594
13.2971
13.2336
13.1688
13.1028
13.0354
12.9667
12.8966
12.8252
12.7523
12.6781
12.6024
12.5252
15.548
15.5408
15.534
15.5257
15.5166
15.5068
15.4962
15.4851
15.4733
15.4609
15.448
15.4345
15.4205
15.406
15.3909
15.3753
15.3591
15.3424
15.3252
15.3075
15.2892
15.2703
15.2509
15.231
15.2105
15.1894
15.1677
15.1455
15.1227
15.0992
15.0752
15.0505
15.0252
14.9993
14.9727
14.9455
14.9176
14.889
14.8597
14.8298
14.7991
14.7677
14.7355
14.7027
14.669
14.6346
14.5994
14.5634
14.5266
14.4889
14.4504
14.4111
14.3709
14.3298
14.2878
14.2449
14.201
14.1562
14.1105
14.0638
14.016
13.9673
13.9175
13.8667
13.8149
13.7619
13.7079
13.6527
13.5964
13.5389
13.4803
13.4205
13.3595
13.2972
13.2337
13.1689
13.1029
13.0355
12.9668
12.8967
12.8253
12.7524
12.6782
12.6025
12.5253
15.5481
15.541
15.5342
15.5259
15.5168
15.5069
15.4964
15.4852
15.4734
15.4611
15.4481
15.4347
15.4207
15.4061
15.391
15.3754
15.3593
15.3426
15.3254
15.3076
15.2893
15.2705
15.2511
15.2311
15.2106
15.1895
15.1679
15.1456
15.1228
15.0994
15.0753
15.0506
15.0254
14.9994
14.9728
14.9456
14.9177
14.8891
14.8599
14.8299
14.7992
14.7678
14.7357
14.7028
14.6691
14.6347
14.5995
14.5635
14.5267
14.489
14.4505
14.4112
14.371
14.3299
14.2879
14.245
14.2011
14.1563
14.1106
14.0639
14.0161
13.9674
13.9176
13.8668
13.815
13.762
13.708
13.6528
13.5965
13.539
13.4804
13.4206
13.3596
13.2973
13.2338
13.169
13.1029
13.0356
12.9668
12.8968
12.8253
12.7525
12.6783
12.6026
15.5483
15.5411
15.5343
15.526
15.5169
15.5071
15.4965
15.4854
15.4736
15.4612
15.4483
15.4348
15.4208
15.4063
15.3912
15.3756
15.3594
15.3427
15.3255
15.3078
15.2895
15.2706
15.2512
15.2313
15.2108
15.1897
15.168
15.1458
15.1229
15.0995
15.0755
15.0508
15.0255
14.9996
14.973
14.9457
14.9178
14.8893
14.86
14.83
14.7993
14.7679
14.7358
14.7029
14.6693
14.6348
14.5996
14.5636
14.5268
14.4891
14.4507
14.4113
14.3711
14.33
14.288
14.2451
14.2012
14.1565
14.1107
14.064
14.0162
13.9675
13.9178
13.8669
13.8151
13.7621
13.7081
13.6529
13.5966
13.5391
13.4805
13.4207
13.3597
13.2974
13.2339
13.1691
13.103
13.0357
12.9669
12.8969
12.8254
12.7526
12.6783
12.6027
15.5484
15.5413
15.5345
15.5262
15.5171
15.5072
15.4967
15.4855
15.4737
15.4614
15.4484
15.435
15.421
15.4064
15.3913
15.3757
15.3596
15.3429
15.3257
15.3079
15.2896
15.2708
15.2514
15.2314
15.2109
15.1898
15.1682
15.1459
15.1231
15.0996
15.0756
15.0509
15.0256
14.9997
14.9731
14.9459
14.918
14.8894
14.8601
14.8302
14.7995
14.7681
14.7359
14.703
14.6694
14.635
14.5998
14.5638
14.5269
14.4893
14.4508
14.4114
14.3712
14.3301
14.2881
14.2452
14.2014
14.1566
14.1108
14.0641
14.0164
13.9676
13.9179
13.8671
13.8152
13.7622
13.7082
13.653
13.5967
13.5393
13.4806
13.4208
13.3598
13.2975
13.234
13.1692
13.1032
13.0358
12.9671
12.897
12.8255
12.7527
12.6785
12.6028
15.5486
15.5415
15.5346
15.5263
15.5172
15.5074
15.4968
15.4857
15.4739
15.4615
15.4486
15.4351
15.4211
15.4066
15.3915
15.3759
15.3597
15.343
15.3258
15.3081
15.2898
15.2709
15.2515
15.2316
15.2111
15.19
15.1683
15.1461
15.1232
15.0998
15.0757
15.0511
15.0258
14.9999
14.9733
14.946
14.9181
14.8896
14.8603
14.8303
14.7996
14.7682
14.7361
14.7032
14.6695
14.6351
14.5999
14.5639
14.5271
14.4894
14.4509
14.4116
14.3714
14.3303
14.2883
14.2453
14.2015
14.1567
14.111
14.0642
14.0165
13.9678
13.918
13.8672
13.8153
13.7624
13.7083
13.6531
13.5968
13.5394
13.4808
13.4209
13.3599
13.2976
13.2341
13.1693
13.1033
13.0359
12.9672
12.8971
12.8257
12.7528
12.6786
12.6029
15.5488
15.5417
15.5348
15.5265
15.5174
15.5075
15.497
15.4858
15.4741
15.4617
15.4488
15.4353
15.4213
15.4067
15.3916
15.376
15.3599
15.3432
15.326
15.3082
15.2899
15.2711
15.2517
15.2317
15.2112
15.1901
15.1685
15.1462
15.1234
15.1
15.0759
15.0512
15.0259
15
14.9734
14.9462
14.9183
14.8897
14.8604
14.8305
14.7998
14.7684
14.7362
14.7033
14.6697
14.6353
14.6001
14.564
14.5272
14.4896
14.4511
14.4117
14.3715
14.3304
14.2884
14.2455
14.2016
14.1569
14.1111
14.0644
14.0166
13.9679
13.9181
13.8673
13.8155
13.7625
13.7084
13.6533
13.597
13.5395
13.4809
13.4211
13.36
13.2978
13.2343
13.1695
13.1034
13.036
12.9673
12.8972
12.8258
12.753
12.6787
12.603
15.5489
15.5418
15.5349
15.5267
15.5176
15.5077
15.4972
15.486
15.4742
15.4619
15.4489
15.4355
15.4215
15.4069
15.3918
15.3762
15.36
15.3434
15.3262
15.3084
15.2901
15.2713
15.2519
15.2319
15.2114
15.1903
15.1686
15.1464
15.1236
15.1001
15.0761
15.0514
15.0261
15.0002
14.9736
14.9464
14.9185
14.8899
14.8606
14.8306
14.7999
14.7685
14.7364
14.7035
14.6698
14.6354
14.6002
14.5642
14.5274
14.4897
14.4512
14.4119
14.3717
14.3306
14.2886
14.2456
14.2018
14.157
14.1112
14.0645
14.0168
13.9681
13.9183
13.8675
13.8156
13.7626
13.7086
13.6534
13.5971
13.5397
13.481
13.4212
13.3602
13.2979
13.2344
13.1696
13.1035
13.0362
12.9674
12.8974
12.8259
12.7531
12.6788
12.6031
15.5491
15.542
15.5351
15.5269
15.5178
15.5079
15.4974
15.4862
15.4744
15.462
15.4491
15.4356
15.4216
15.4071
15.392
15.3764
15.3602
15.3435
15.3263
15.3086
15.2903
15.2714
15.252
15.2321
15.2116
15.1905
15.1688
15.1466
15.1237
15.1003
15.0762
15.0516
15.0263
15.0003
14.9738
14.9465
14.9186
14.89
14.8608
14.8308
14.8001
14.7687
14.7366
14.7037
14.67
14.6356
14.6004
14.5644
14.5275
14.4899
14.4514
14.412
14.3718
14.3307
14.2887
14.2458
14.202
14.1572
14.1114
14.0647
14.0169
13.9682
13.9184
13.8676
13.8158
13.7628
13.7087
13.6536
13.5973
13.5398
13.4812
13.4214
13.3603
13.2981
13.2345
13.1698
13.1037
13.0363
12.9676
12.8975
12.8261
12.7532
12.679
12.6033
15.5493
15.5422
15.5353
15.5271
15.5179
15.5081
15.4975
15.4864
15.4746
15.4622
15.4493
15.4358
15.4218
15.4073
15.3922
15.3766
15.3604
15.3437
15.3265
15.3088
15.2905
15.2716
15.2522
15.2323
15.2117
15.1907
15.169
15.1468
15.1239
15.1005
15.0764
15.0518
15.0265