/*--------------------------------*- C++ -*----------------------------------*\
  =========                 |
  \\      /  F ield         | OpenFOAM: The Open Source CFD Toolbox
   \\    /   O peration     | Website:  https://openfoam.org
    \\  /    A nd           | Version:  10
     \\/     M anipulation  |
\*---------------------------------------------------------------------------*/
FoamFile
{
    format      ascii;
    class       volScalarField;
    location    "2200";
    object      nut;
}
// * * * * * * * * * * * * * * * * * * * * * * * * * * * * * * * * * * * * * //

dimensions      [0 2 -1 0 0 0 0];

internalField   nonuniform List<scalar> 
420
(
1.04478e-20
6.41377e-20
1.91719e-19
3.76959e-19
5.8189e-19
7.60553e-19
8.40975e-19
8.02491e-19
6.89889e-19
5.67222e-19
1.04473e-20
6.36719e-20
1.85565e-19
3.62845e-19
5.66093e-19
7.48828e-19
8.39951e-19
8.07799e-19
6.87566e-19
5.48078e-19
1.04471e-20
6.27984e-20
1.75851e-19
3.43175e-19
5.40536e-19
7.23471e-19
8.22017e-19
7.95363e-19
6.69138e-19
5.16784e-19
1.04472e-20
6.13473e-20
1.67908e-19
3.23613e-19
5.08061e-19
6.8246e-19
7.83664e-19
7.63766e-19
6.30599e-19
4.70362e-19
1.04476e-20
6.0994e-20
1.62748e-19
3.02986e-19
4.62959e-19
6.13509e-19
7.05219e-19
6.89265e-19
5.57188e-19
4.04431e-19
1.04483e-20
6.13537e-20
1.558e-19
2.6921e-19
3.8685e-19
4.93832e-19
5.60193e-19
5.49151e-19
4.42398e-19
3.20643e-19
1.04493e-20
5.96672e-20
1.32701e-19
2.0031e-19
2.63062e-19
3.19317e-19
3.57014e-19
3.58444e-19
3.02629e-19
2.28514e-19
1.04506e-20
4.77918e-20
8.02996e-20
1.04806e-19
1.28512e-19
1.51582e-19
1.70993e-19
1.82038e-19
1.71587e-19
1.40751e-19
1.04522e-20
2.15708e-20
2.81392e-20
3.47022e-20
4.18063e-20
4.93516e-20
5.70734e-20
6.46191e-20
7.04515e-20
6.54693e-20
2.82342e-21
3.6643e-21
4.61494e-21
5.67535e-21
6.84552e-21
8.12545e-21
9.51514e-21
1.10146e-20
1.26238e-20
1.43428e-20
4.70658e-19
4.219e-19
4.50828e-19
7.10301e-19
1.12205e-18
1.15302e-18
6.72436e-19
4.60536e-19
2.76433e-19
7.95892e-20
4.38692e-19
3.87038e-19
4.21959e-19
6.81369e-19
1.11566e-18
1.15288e-18
6.44015e-19
4.70502e-19
2.70227e-19
7.881e-20
4.00352e-19
3.5063e-19
3.94018e-19
6.63166e-19
1.11626e-18
1.15366e-18
6.39356e-19
4.7408e-19
2.65163e-19
7.87074e-20
3.54056e-19
3.11895e-19
3.66959e-19
6.53775e-19
1.12344e-18
1.15571e-18
6.38649e-19
4.81336e-19
2.59717e-19
7.86435e-20
2.99165e-19
2.71228e-19
3.41553e-19
6.5469e-19
1.10461e-18
1.15857e-18
6.46323e-19
4.97572e-19
2.5677e-19
7.85941e-20
2.37599e-19
2.29817e-19
3.18914e-19
6.68234e-19
1.02239e-18
1.16226e-18
6.57203e-19
5.1352e-19
2.54111e-19
7.83084e-20
1.73922e-19
1.89529e-19
3.0055e-19
6.97273e-19
9.93915e-19
1.16598e-18
6.7472e-19
5.2325e-19
2.52055e-19
7.81568e-20
1.14459e-19
1.52343e-19
2.88211e-19
7.44202e-19
9.87212e-19
1.16857e-18
6.94005e-19
5.36044e-19
2.50214e-19
7.82339e-20
6.5104e-20
1.19447e-19
2.8389e-19
8.09747e-19
9.91073e-19
1.1694e-18
7.31489e-19
5.40222e-19
2.49412e-19
7.85755e-20
2.98695e-20
9.16649e-20
3.00038e-19
8.90415e-19
1.00113e-18
1.16909e-18
7.62107e-19
5.43803e-19
2.4997e-19
7.90571e-20
1.03958e-20
7.54894e-20
3.86396e-19
9.05901e-19
1.01052e-18
1.16707e-18
7.84339e-19
5.47569e-19
2.49099e-19
7.97541e-20
1.03958e-20
9.32149e-20
5.0625e-19
8.50808e-19
9.45447e-19
1.16792e-18
7.6171e-19
5.45783e-19
2.49793e-19
7.95758e-20
5.67825e-20
2.3664e-19
7.10519e-19
8.40838e-19
9.26859e-19
1.13643e-18
7.37415e-19
5.44149e-19
2.49786e-19
7.93555e-20
2.61978e-19
5.59874e-19
7.21766e-19
8.63506e-19
9.59793e-19
1.14861e-18
7.79516e-19
5.53147e-19
2.46938e-19
8.06251e-20
5.43184e-19
5.99486e-19
7.26135e-19
8.73343e-19
9.85673e-19
1.1449e-18
7.89659e-19
5.60127e-19
2.51786e-19
8.18778e-20
6.10583e-19
6.21133e-19
7.29272e-19
8.8563e-19
1.02251e-18
1.15288e-18
8.10711e-19
5.67984e-19
2.60956e-19
8.30595e-20
6.25598e-19
6.25326e-19
7.25407e-19
8.98128e-19
1.06922e-18
1.15168e-18
8.29873e-19
5.74169e-19
2.73432e-19
8.4172e-20
6.14558e-19
6.18524e-19
7.2465e-19
9.31516e-19
1.16236e-18
1.15153e-18
8.54314e-19
5.76712e-19
2.87863e-19
8.50654e-20
6.05842e-19
6.00635e-19
6.75966e-19
9.21448e-19
1.19036e-18
1.15248e-18
8.71302e-19
5.7575e-19
2.99264e-19
8.55981e-20
5.64688e-19
5.41513e-19
6.08497e-19
8.69748e-19
1.16695e-18
1.15414e-18
8.44525e-19
5.80051e-19
2.98196e-19
8.56799e-20
5.23201e-19
4.88503e-19
5.44842e-19
8.20716e-19
1.14569e-18
1.15903e-18
7.18462e-19
4.78135e-19
2.92754e-19
8.65661e-20
4.93314e-19
4.51007e-19
4.90821e-19
7.80577e-19
1.12562e-18
1.16522e-18
6.18211e-19
3.84851e-19
2.82924e-19
9.15367e-20
1.43428e-20
1.11723e-19
3.99024e-19
6.59685e-19
7.0427e-19
6.93505e-19
6.60333e-19
6.27577e-19
5.94146e-19
5.75704e-19
1.26238e-20
8.53697e-20
3.00315e-19
5.72486e-19
7.01192e-19
7.25752e-19
7.16418e-19
6.97863e-19
6.84884e-19
6.82367e-19
1.10146e-20
6.66875e-20
2.19514e-19
4.57287e-19
6.52876e-19
7.47202e-19
7.76661e-19
7.7826e-19
7.75895e-19
7.86875e-19
9.51514e-21
5.21765e-20
1.52461e-19
3.17407e-19
5.06962e-19
6.57866e-19
7.48455e-19
7.93985e-19
8.17076e-19
8.32459e-19
8.12545e-21
4.39488e-20
1.18026e-19
2.28567e-19
3.63348e-19
4.97886e-19
6.09074e-19
6.87692e-19
7.37025e-19
7.60551e-19
6.84552e-21
3.75511e-20
9.76406e-20
1.79585e-19
2.74432e-19
3.7084e-19
4.56519e-19
5.22741e-19
5.66207e-19
5.84188e-19
5.67535e-21
3.18971e-20
8.26816e-20
1.47397e-19
2.15021e-19
2.76403e-19
3.24838e-19
3.57619e-19
3.75814e-19
3.81668e-19
4.61494e-21
2.6386e-20
6.78295e-20
1.13723e-19
1.50335e-19
1.73961e-19
1.86677e-19
1.92059e-19
1.9336e-19
1.93238e-19
3.6643e-21
2.06894e-20
4.44808e-20
5.83243e-20
6.33005e-20
6.48068e-20
6.50319e-20
6.47884e-20
6.44845e-20
6.43479e-20
2.82342e-21
1.04522e-20
1.04506e-20
1.04493e-20
1.04483e-20
1.04476e-20
1.04472e-20
1.04471e-20
1.04473e-20
1.04478e-20
)
;

boundaryField
{
    right
    {
        type            cyclic;
    }
    left
    {
        type            cyclic;
    }
    outerWall
    {
        type            nutkWallFunction;
        Cmu             0.09;
        kappa           0.41;
        E               9.8;
        value           uniform 0;
    }
    stirrerWall
    {
        type            nutkWallFunction;
        Cmu             0.09;
        kappa           0.41;
        E               9.8;
        value           uniform 0;
    }
    top
    {
        type            empty;
    }
    bottom
    {
        type            empty;
    }
}


// ************************************************************************* //
