/*--------------------------------*- C++ -*----------------------------------*\
  =========                 |
  \\      /  F ield         | OpenFOAM: The Open Source CFD Toolbox
   \\    /   O peration     | Website:  https://openfoam.org
    \\  /    A nd           | Version:  10
     \\/     M anipulation  |
\*---------------------------------------------------------------------------*/
FoamFile
{
    format      ascii;
    class       volScalarField;
    location    "2200";
    object      omega;
}
// * * * * * * * * * * * * * * * * * * * * * * * * * * * * * * * * * * * * * //

dimensions      [0 0 -1 0 0 0 0];

internalField   nonuniform List<scalar> 
420
(
21252.7
3462
1158.18
589.042
381.592
291.951
264.032
276.694
321.855
391.46
21253.7
3487.33
1196.59
611.954
392.241
296.523
264.354
274.876
322.943
405.133
21254.2
3535.83
1262.69
647.03
410.786
306.916
270.122
279.174
331.837
429.666
21254
3619.47
1322.42
686.142
437.043
325.359
283.342
290.723
352.117
472.071
21253.2
3640.43
1364.35
732.855
479.621
361.926
314.859
322.147
398.509
549.029
21251.7
3619.09
1425.19
824.802
573.981
449.636
396.371
404.341
501.912
692.497
21249.7
3721.39
1673.26
1108.51
844.077
695.373
621.95
619.468
733.718
971.689
21247.1
4646.08
2765.2
2118.63
1727.81
1464.85
1298.56
1219.77
1294.06
1577.57
21243.8
10293.8
7890.94
6398.58
5311.27
4499.24
3890.51
3436.21
3151.74
3391.59
78643.9
60596.7
48114.3
39124.4
32436.5
27327.1
23335.9
20159.1
17589.3
15481.3
471.775
526.297
492.526
382.866
289.285
246.609
302.35
401.108
803.248
3581.27
506.152
573.703
526.224
394.547
291.134
246.139
302.232
403.787
821.697
3581.17
554.624
633.274
563.539
404.881
292.26
245.969
301.156
406.761
837.389
3581.13
627.146
711.921
605.094
413.355
292.553
245.965
299.908
410.227
854.949
3581.18
742.216
818.663
650.103
418.522
291.728
246.079
298.501
412.143
864.761
3581.3
934.534
966.18
696.253
418.608
289.539
246.3
297.168
413.125
873.808
3581.49
1276.69
1171.56
738.794
411.925
285.983
246.622
296.045
413.421
880.936
3581.76
1939.95
1457.54
770.423
397.876
281.487
247.047
295.241
413.095
887.418
3582.1
3410.62
1858.94
782.149
377.795
276.908
247.662
294.702
411.025
890.273
3582.51
7433.82
2422.35
758.655
353.924
273.018
248.386
294.872
408.318
888.286
3582.99
21359.1
2941.4
654.336
328.789
270.307
248.979
295.558
405.509
891.391
3575.63
21359.1
2382.07
534.869
316.555
269.425
248.873
295.185
406.837
888.913
3575.63
3910.44
938.322
392.159
305.385
267.757
248.788
295.175
408.058
888.939
3582.99
847.569
435.208
341.052
302.833
266.686
248.557
294.339
401.421
899.192
3582.51
411.608
361.312
337.994
305.31
266.544
248.132
294.236
396.418
881.879
3582.1
353.444
357.839
345.287
309.896
267.093
247.427
294.016
390.935
850.888
3581.76
354.456
368.394
356.69
316.225
268.46
246.637
294.211
386.724
812.065
3581.49
367.059
384.264
371.428
324.313
270.699
245.932
294.94
385.018
771.355
3581.3
383.695
404.214
389.552
334.104
273.813
245.571
296.523
387.679
741.968
3581.18
402.825
428.336
411.185
345.38
277.65
245.846
299.049
392.82
744.626
3581.13
424.397
457.4
436.602
357.851
281.835
246.561
301.869
399.452
758.469
3581.17
450.108
492.331
465.768
371.005
286.103
246.986
303.756
402.482
784.822
3581.27
15481.3
1987.46
556.47
354.828
329.877
335.243
347.323
360.927
373.72
385.692
17589.3
2600.98
739.373
387.86
316.667
305.983
310.268
318.178
324.208
325.404
20159.1
3329.63
1011.53
485.569
340.102
297.168
285.896
285.309
286.179
282.185
23335.9
4255.64
1456.4
699.558
437.99
337.522
296.67
279.658
271.755
266.733
27327.1
5052.35
1881.32
971.463
611.107
445.975
364.561
322.884
301.271
291.952
32436.5
5913.13
2274.1
1236.43
809.106
598.761
486.386
424.77
392.162
380.091
39124.4
6961.28
2685.54
1506.44
1032.67
803.335
683.555
620.897
590.836
581.774
48114.3
8415.25
3273.57
1952.51
1476.99
1276.4
1189.46
1156.13
1148.35
1149.08
60596.7
10732.3
4991.92
3807.07
3507.78
3426.25
3414.4
3427.23
3443.38
3450.69
78643.9
21243.8
21247.1
21249.7
21251.7
21253.2
21254
21254.2
21253.7
21252.7
)
;

boundaryField
{
    right
    {
        type            cyclic;
    }
    left
    {
        type            cyclic;
    }
    outerWall
    {
        beta1           0.075;
        blended         0;
        type            omegaWallFunction;
        value           nonuniform List<scalar> 
22
(
3581.27
3581.17
3581.13
3581.18
3581.3
3581.49
3581.76
3582.1
3582.51
3582.99
3575.63
3575.63
3582.99
3582.51
3582.1
3581.76
3581.49
3581.3
3581.18
3581.13
3581.17
3581.27
)
;
    }
    stirrerWall
    {
        beta1           0.075;
        blended         0;
        type            omegaWallFunction;
        value           nonuniform List<scalar> 
42
(
21252.7
21253.7
21254.2
21254
21253.2
21251.7
21249.7
21247.1
21243.8
78643.9
78643.9
60596.7
48114.3
39124.4
32436.5
27327.1
23335.9
20159.1
17589.3
15481.3
21359.1
21359.1
15481.3
17589.3
20159.1
23335.9
27327.1
32436.5
39124.4
48114.3
60596.7
78643.9
78643.9
21243.8
21247.1
21249.7
21251.7
21253.2
21254
21254.2
21253.7
21252.7
)
;
    }
    top
    {
        type            empty;
    }
    bottom
    {
        type            empty;
    }
}


// ************************************************************************* //
