/*--------------------------------*- C++ -*----------------------------------*\
  =========                 |
  \\      /  F ield         | OpenFOAM: The Open Source CFD Toolbox
   \\    /   O peration     | Website:  https://openfoam.org
    \\  /    A nd           | Version:  10
     \\/     M anipulation  |
\*---------------------------------------------------------------------------*/
FoamFile
{
    format      ascii;
    class       volScalarField;
    location    "2200";
    object      p;
}
// * * * * * * * * * * * * * * * * * * * * * * * * * * * * * * * * * * * * * //

dimensions      [0 2 -2 0 0 0 0];

internalField   nonuniform List<scalar> 
420
(
0.644847
16.936
32.9096
51.0791
70.717
91.2889
112.394
133.494
154.127
173.747
1.83375
16.7335
32.202
50.0074
69.4445
90.0319
111.393
132.893
153.916
173.835
2.18556
16.5488
31.6134
49.053
68.2718
88.8726
110.479
132.341
153.739
173.979
2.16239
16.3572
31.1497
48.2664
67.2571
87.8073
109.558
131.729
153.501
174.101
2.03283
16.2068
30.8039
47.6231
66.3515
86.7611
108.543
130.954
153.109
174.122
1.88271
16.1334
30.5796
47.1007
65.5108
85.6743
107.351
129.911
152.44
173.954
1.73828
16.1582
30.4858
46.6872
64.7066
84.4928
105.895
128.469
151.376
173.566
1.6073
16.2965
30.5342
46.3826
63.9345
83.2021
104.131
126.482
149.693
172.744
1.45755
16.574
30.7308
46.2095
63.2705
81.9295
102.179
123.942
146.975
170.476
1.2186
16.958
30.9058
46.0523
62.7007
80.8001
100.321
121.211
143.292
166.211
191.838
208.816
224.756
239.27
252.297
263.97
271.473
285.308
289.491
300.942
192.077
209.067
224.927
239.372
252.382
264.136
272.005
286.241
292.078
303.021
192.415
209.455
225.266
239.687
252.728
264.642
272.864
287.435
295.024
305.77
192.779
209.897
225.676
240.113
253.224
265.329
273.928
289.077
298.374
307.759
193.103
210.33
226.112
240.623
253.833
266.143
275.175
290.987
301.158
309.47
193.361
210.724
226.558
241.214
254.54
267.074
276.62
293
303.4
310.958
193.616
211.044
226.915
241.813
255.321
268.13
278.224
295.023
305.184
311.93
193.825
211.195
227.005
242.29
256.136
269.312
279.968
297.179
307.277
312.532
193.302
211.322
227.071
242.703
256.947
270.512
281.786
299.851
310.68
312.764
191.547
212.087
227.768
243.299
257.705
271.496
283.281
302.854
313.539
312.748
191.144
212.718
228.619
243.983
258.205
272.041
283.154
304.893
311.427
310.797
192.455
212.884
229.103
244.222
258.209
271.886
282.805
303.968
308.026
309.198
197.754
213.713
229.626
244.634
258.46
271.763
283.228
300.85
306.197
310.546
197.358
213.414
229.347
244.43
258.199
271.254
282.542
298.79
304.534
308.474
195.883
212.468
228.629
243.812
257.563
270.421
281.432
297.015
301.826
305.672
194.572
211.376
227.728
243.007
256.746
269.411
280.058
294.856
298.57
302.762
193.57
210.444
226.886
242.21
255.933
268.487
278.896
293.043
295.641
300.125
192.827
209.734
226.184
241.478
255.163
267.73
278.078
291.692
293.961
301.178
192.29
209.226
225.619
240.797
254.392
266.96
277.082
290.152
294.488
310.377
191.922
208.883
225.174
240.171
253.6
265.903
275.044
287.143
294.854
323.675
191.701
208.701
224.879
239.669
252.868
264.657
272.38
284.331
291.859
315.578
191.684
208.666
224.7
239.289
252.308
263.932
271.08
284.675
290.824
294.75
182.386
179.767
178.016
176.861
175.996
175.299
174.725
174.253
173.877
173.729
157.538
157.636
157.651
157.397
157.008
156.528
155.983
155.403
154.807
154.378
131.082
133.572
135.545
136.488
136.801
136.696
136.288
135.662
134.881
134.13
106.997
109.916
112.883
114.723
115.689
116.003
115.816
115.244
114.391
113.405
85.5776
87.8868
90.7597
92.9177
94.2401
94.8533
94.8783
94.4238
93.5997
92.5202
66.336
67.8525
70.0258
71.8999
73.1996
73.8924
74.0361
73.6986
72.9706
71.9482
49.0388
49.8785
51.1605
52.3873
53.3064
53.8134
53.9101
53.6257
53.0083
52.1358
33.5997
33.9081
34.3631
34.809
35.1472
35.2961
35.2124
34.8891
34.3499
33.6664
20.0593
19.8179
19.6014
19.4183
19.2519
19.047
18.7603
18.3749
17.8922
17.3747
7.64429
6.44931
5.39991
4.69441
4.18409
3.74325
3.30442
2.84599
2.35545
1.75428
)
;

boundaryField
{
    right
    {
        type            cyclic;
    }
    left
    {
        type            cyclic;
    }
    outerWall
    {
        type            zeroGradient;
    }
    stirrerWall
    {
        type            zeroGradient;
    }
    top
    {
        type            empty;
    }
    bottom
    {
        type            empty;
    }
}


// ************************************************************************* //
