/*--------------------------------*- C++ -*----------------------------------*\
  =========                 |
  \\      /  F ield         | OpenFOAM: The Open Source CFD Toolbox
   \\    /   O peration     | Website:  https://openfoam.org
    \\  /    A nd           | Version:  10
     \\/     M anipulation  |
\*---------------------------------------------------------------------------*/
FoamFile
{
    format      ascii;
    class       surfaceScalarField;
    location    "2200";
    object      phi;
}
// * * * * * * * * * * * * * * * * * * * * * * * * * * * * * * * * * * * * * //

dimensions      [0 3 -1 0 0 0 0];

internalField   nonuniform List<scalar> 
788
(
-2.05351e-06
-4.42583e-06
-3.09341e-07
1.43076e-05
1.20543e-06
1.87574e-05
2.00523e-06
2.09135e-05
1.9639e-06
2.11237e-05
1.13378e-06
1.91463e-05
-4.87792e-08
1.35618e-05
-9.64539e-07
1.98411e-06
-1.41656e-06
-1.38047e-05
-3.36727e-05
-1.52538e-06
-9.0601e-07
-3.51695e-06
5.69652e-07
1.28725e-05
2.30739e-06
1.70842e-05
3.60653e-06
1.96699e-05
4.14721e-06
2.0634e-05
4.00614e-06
1.93009e-05
3.62099e-06
1.39153e-05
2.98152e-06
2.56589e-06
2.4046e-06
-1.32648e-05
-3.29506e-05
1.70128e-06
1.34973e-07
-3.63546e-06
1.66593e-06
1.1391e-05
3.4468e-06
1.53551e-05
5.05869e-06
1.8083e-05
6.12504e-06
1.95727e-05
6.59221e-06
1.88005e-05
6.78842e-06
1.366e-05
6.52776e-06
2.77681e-06
6.02608e-06
-1.27646e-05
-3.18668e-05
4.98465e-06
4.70154e-07
-4.08791e-06
2.10891e-06
9.78599e-06
4.06147e-06
1.34256e-05
6.0755e-06
1.60636e-05
7.85377e-06
1.77767e-05
9.26408e-06
1.73554e-05
1.02831e-05
1.26044e-05
1.04099e-05
2.63551e-06
9.84995e-06
-1.21827e-05
-3.03591e-05
8.38543e-06
4.66182e-07
-4.5371e-06
2.13245e-06
8.1382e-06
4.3447e-06
1.12205e-05
6.86301e-06
1.35328e-05
9.46254e-06
1.51607e-05
1.19015e-05
1.48948e-05
1.37962e-05
1.06931e-05
1.42708e-05
2.16469e-06
1.33903e-05
-1.1272e-05
-2.81373e-05
1.12116e-05
2.46442e-07
-4.7668e-06
1.878e-06
6.51653e-06
4.34962e-06
8.75086e-06
7.37626e-06
1.04971e-05
1.07328e-05
1.17935e-05
1.40179e-05
1.15967e-05
1.65445e-05
8.1602e-06
1.73686e-05
1.3522e-06
1.60298e-05
-9.9043e-06
-2.49379e-05
1.2865e-05
-1.89928e-07
-4.56255e-06
1.36238e-06
4.96565e-06
4.00628e-06
6.10586e-06
7.33583e-06
7.16309e-06
1.11077e-05
8.01388e-06
1.48705e-05
7.8201e-06
1.76511e-05
5.36541e-06
1.85212e-05
4.73376e-07
1.64246e-05
-7.81355e-06
-2.04481e-05
1.19253e-05
-8.80068e-07
-3.67428e-06
6.2999e-07
3.44388e-06
3.31639e-06
3.41348e-06
6.62953e-06
3.84832e-06
1.03669e-05
4.2664e-06
1.40569e-05
4.10328e-06
1.66107e-05
2.76601e-06
1.69959e-05
2.60119e-08
1.3739e-05
-4.62808e-06
-1.44495e-05
7.66517e-06
-1.87496e-06
-1.79999e-06
-8.77543e-08
1.63197e-06
2.36871e-06
9.51703e-07
5.19814e-06
1.02326e-06
8.36226e-06
1.09465e-06
1.14807e-05
9.51937e-07
1.36475e-05
5.36924e-07
1.35908e-05
-2.27749e-09
9.48096e-06
-6.11407e-07
-6.6562e-06
1.59768e-06
-1.80656e-06
-1.73248e-07
7.8839e-07
1.81436e-06
2.89493e-06
3.81601e-06
4.3137e-06
4.27268e-06
3.61835e-06
-3.08864e-06
-1.3315e-06
-5.69613e-05
-5.57499e-07
-9.19565e-05
7.59706e-07
-0.00013665
2.18154e-06
-0.000191824
3.68061e-06
-0.000261121
5.4666e-06
-0.000345579
3.89168e-06
-0.000428482
9.43278e-06
-0.000640886
1.7169e-05
-0.000738584
-0.000690331
1.0642e-06
-5.62408e-05
1.07381e-06
-9.18284e-05
1.6755e-06
-0.000137119
2.3359e-06
-0.000192426
3.0525e-06
-0.000261907
4.24571e-06
-0.000347117
2.39325e-06
-0.000426941
3.52484e-06
-0.000641758
4.64707e-06
-0.0007401
-0.000685678
3.68802e-06
-5.48795e-05
3.01956e-06
-9.10995e-05
2.93469e-06
-0.000137
2.89957e-06
-0.000192376
2.86239e-06
-0.000261952
3.44272e-06
-0.000347871
1.6053e-06
-0.000424845
3.16848e-07
-0.00064068
1.49203e-06
-0.000741017
-0.000684247
6.35616e-06
-5.28084e-05
5.00566e-06
-8.97314e-05
4.26166e-06
-0.000136273
3.54745e-06
-0.000191688
2.76893e-06
-0.000261301
2.65475e-06
-0.000347962
6.68814e-07
-0.000422493
-2.94556e-06
-0.000637268
-3.21299e-06
-0.00074054
-0.00068757
8.4626e-06
-5.00234e-05
6.66995e-06
-8.79262e-05
5.4409e-06
-0.000135058
4.19237e-06
-0.000190472
2.84896e-06
-0.000260118
2.22245e-06
-0.000347588
4.30209e-07
-0.000420541
-4.9507e-06
-0.000632073
-4.37281e-06
-0.000740983
-0.000692093
9.51708e-06
-4.66502e-05
7.67194e-06
-8.60717e-05
6.21505e-06
-0.000133596
4.61946e-06
-0.000188879
2.91001e-06
-0.000258548
1.94641e-06
-0.000346858
7.24311e-07
-0.000419295
-6.27735e-06
-0.000625232
-5.73603e-06
-0.000741431
-0.000697954
8.79745e-06
-4.35435e-05
7.61224e-06
-8.49098e-05
6.28048e-06
-0.000132262
4.55668e-06
-0.00018713
2.64448e-06
-0.00025673
1.32411e-06
-0.000345716
8.57719e-07
-0.000418825
-6.91709e-06
-0.000617558
-6.57771e-06
-0.000741671
-0.000704612
6.23167e-06
-4.21876e-05
6.43812e-06
-8.51704e-05
5.54873e-06
-0.000131372
3.96076e-06
-0.00018549
1.969e-06
-0.000254782
1.49934e-07
-0.000344014
-2.27671e-07
-0.000418403
-8.61889e-06
-0.000609205
-8.17455e-06
-0.00074202
-0.000712794
3.30885e-06
-4.39842e-05
5.03701e-06
-8.69763e-05
4.5573e-06
-0.00013091
3.15326e-06
-0.00018403
1.24164e-06
-0.000252881
-8.72079e-07
-0.000341969
-4.01408e-07
-0.000418792
-8.96172e-06
-0.000600626
-9.76235e-06
-0.000741152
-0.000722503
4.11998e-06
-5.12478e-05
5.28621e-06
-8.82623e-05
3.97241e-06
-0.00012965
2.42264e-06
-0.000182437
5.08284e-07
-0.00025094
-1.89032e-06
-0.000339558
-4.64753e-07
-0.000420154
-8.42866e-06
-0.000592643
-8.0575e-06
-0.000741479
-0.000730575
2.2331e-06
-5.35503e-05
2.32526e-06
-8.84346e-05
1.24726e-06
-0.000128599
-5.38279e-09
-0.000181116
-1.25528e-06
-0.000249676
-2.96261e-06
-0.000337855
-2.68183e-06
-0.000420347
-4.06863e-07
-0.000594892
-6.89061e-06
-0.000734871
-0.0007375
3.86024e-06
-5.74459e-05
4.40096e-06
-8.90565e-05
3.57364e-06
-0.000127778
2.66219e-06
-0.00018014
1.71692e-06
-0.000248738
4.54166e-07
-0.000336603
-4.75616e-07
-0.000419369
-4.42619e-07
-0.000594848
-6.21566e-06
-0.000729065
-0.000743677
5.13571e-06
-5.05825e-05
-1.20384e-05
1.39037e-06
-8.55528e-05
-5.76617e-07
-0.000125836
-1.86313e-06
-0.000178788
-3.39093e-06
-0.000247188
-4.84873e-06
-0.00033508
-5.21794e-06
-0.000418987
-1.2729e-05
-0.000587246
-6.29404e-06
-0.000735552
-0.000749987
-6.14009e-07
-4.95638e-05
-5.7201e-07
-2.62948e-06
-8.37293e-05
-3.55363e-06
-0.000124917
-4.06631e-06
-0.000178155
-5.0716e-06
-0.000246136
-7.00145e-06
-0.000333075
-4.93228e-06
-0.000420992
-9.26351e-06
-0.000583001
-1.40471e-05
-0.000730514
-0.000764094
-5.75275e-06
-5.07734e-05
6.84079e-06
-5.9758e-06
-8.3676e-05
-5.97237e-06
-0.0001249
-5.7514e-06
-0.000178251
-6.10806e-06
-0.000245721
-8.09142e-06
-0.000331016
-6.59922e-06
-0.000422355
-9.3115e-06
-0.000580409
-1.62712e-05
-0.000723388
-0.000780412
-8.57786e-06
-5.18537e-05
9.53899e-06
-8.1788e-06
-8.42182e-05
-7.44813e-06
-0.000125566
-6.58652e-06
-0.000178989
-6.25242e-06
-0.000246002
-7.577e-06
-0.000329626
-6.35944e-06
-0.000423497
-8.39512e-06
-0.000578483
-1.61878e-05
-0.00071541
-0.000796638
-9.93839e-06
-5.26924e-05
1.06604e-05
-9.28818e-06
-8.49455e-05
-8.1135e-06
-0.000126646
-6.78697e-06
-0.0001802
-5.86449e-06
-0.000246872
-6.50243e-06
-0.000328898
-5.52699e-06
-0.000424389
-6.20085e-06
-0.000577924
-1.42281e-05
-0.000707177
-0.000810922
-1.02412e-05
-5.34259e-05
1.08984e-05
-9.41106e-06
-8.57845e-05
-7.95074e-06
-0.000128002
-6.24262e-06
-0.00018181
-4.69219e-06
-0.00024838
-4.41534e-06
-0.00032907
-3.23016e-06
-0.000425475
-1.4809e-06
-0.000579803
-9.09693e-06
-0.000699372
-0.000820116
-9.79171e-06
-5.41365e-05
1.04747e-05
-8.79302e-06
-8.6742e-05
-7.10044e-06
-0.000129584
-5.06572e-06
-0.000183755
-2.80214e-06
-0.000250607
-1.13049e-06
-0.000330627
6.11574e-07
-0.000427112
4.77629e-06
-0.000584125
-5.8015e-07
-0.000693885
-0.000820862
-8.99395e-06
-5.49138e-05
9.78078e-06
-7.62938e-06
-8.80265e-05
-5.64692e-06
-0.000131445
-3.27321e-06
-0.000186036
-1.8778e-07
-0.000253658
3.79491e-06
-0.0003345
7.49387e-06
-0.000430731
1.82773e-05
-0.00059512
1.95591e-05
-0.000695092
-0.000801492
-7.32828e-06
-5.60397e-05
8.48908e-06
-5.40513e-06
-8.98432e-05
-3.0924e-06
-0.000133625
-5.22451e-07
-0.000188502
2.89806e-06
-0.000257063
9.71365e-06
-0.000341244
1.41748e-05
-0.000435077
3.64788e-05
-0.000617844
5.56365e-05
-0.000714337
-0.000744214
-4.01021e-06
4.97414e-06
-2.16984e-06
2.64619e-07
2.7962e-06
5.56522e-06
7.82266e-06
2.06917e-06
1.96209e-05
3.7593e-05
-2.05779e-05
8.38461e-06
-2.83569e-05
6.96758e-06
-3.19064e-05
1.01708e-05
-3.32735e-05
1.07489e-05
-3.36283e-05
1.09121e-05
-3.35566e-05
1.07846e-05
-3.33864e-05
1.03211e-05
-3.32897e-05
9.74789e-06
-3.35472e-05
8.82858e-06
5.32584e-06
-6.34505e-06
1.46513e-05
-1.29722e-05
1.3456e-05
-1.66833e-05
1.37627e-05
-1.81596e-05
1.21256e-05
-1.83064e-05
1.09525e-05
-1.7708e-05
1.0098e-05
-1.67393e-05
9.29295e-06
-1.55959e-05
8.56503e-06
-1.45929e-05
7.80411e-06
4.89651e-06
8.68297e-07
1.37194e-05
-2.13409e-06
1.63716e-05
-4.61912e-06
1.61575e-05
-5.91969e-06
1.33286e-05
-5.92457e-06
1.08613e-05
-5.07164e-06
9.18138e-06
-3.71186e-06
7.90338e-06
-1.96215e-06
6.79436e-06
-6.58463e-08
5.90465e-06
3.66934e-06
3.30451e-06
1.03714e-05
4.10996e-06
1.5529e-05
3.94446e-06
1.63026e-05
3.43778e-06
1.38024e-05
3.44575e-06
1.08353e-05
4.23429e-06
8.40629e-06
5.71229e-06
6.45854e-06
7.75543e-06
4.77921e-06
1.02324e-05
3.46587e-06
1.61609e-06
3.41522e-06
6.94239e-06
6.50069e-06
1.24682e-05
8.86625e-06
1.40125e-05
1.00724e-05
1.26463e-05
1.08752e-05
1.00985e-05
1.18162e-05
7.55122e-06
1.30772e-05
5.28872e-06
1.461e-05
3.33301e-06
1.64414e-05
1.72205e-06
4.424e-08
2.96444e-06
3.99529e-06
6.89326e-06
8.62677e-06
1.07654e-05
1.03049e-05
1.36301e-05
9.90582e-06
1.55527e-05
8.30547e-06
1.69298e-05
6.30957e-06
1.80648e-05
4.28547e-06
1.90849e-05
2.43973e-06
2.00503e-05
8.69621e-07
-5.817e-07
2.26025e-06
1.77293e-06
6.22163e-06
4.80447e-06
1.05681e-05
6.18559e-06
1.42828e-05
6.37003e-06
1.70934e-05
5.66533e-06
1.90755e-05
4.48928e-06
2.03985e-05
3.11057e-06
2.12013e-05
1.76893e-06
2.15551e-05
6.14613e-07
-3.40364e-07
1.71975e-06
9.72041e-08
5.27276e-06
1.42017e-06
9.33387e-06
2.37495e-06
1.3012e-05
2.8979e-06
1.59797e-05
2.88596e-06
1.81687e-05
2.47048e-06
1.96192e-05
1.80853e-06
2.04143e-05
1.09423e-06
2.05179e-05
5.88179e-07
3.22429e-07
1.01211e-06
-8.77266e-07
3.55067e-06
-9.52783e-07
6.58157e-06
-4.51648e-07
9.45612e-06
2.01976e-07
1.18934e-05
6.08845e-07
1.37726e-05
7.30941e-07
1.50607e-05
6.38177e-07
1.5804e-05
4.44844e-07
1.6037e-05
4.26685e-07
8.06567e-07
-8.51822e-07
-1.70905e-06
-2.08104e-06
-1.80759e-06
-1.13696e-06
-3.55348e-07
3.22083e-07
7.94651e-07
1.24257e-06
)
;

boundaryField
{
    right
    {
        type            cyclic;
        value           nonuniform List<scalar> 
20
(
0.000706932
0.000732727
0.000636029
0.00043022
0.000343707
0.000259689
0.00019067
0.000135654
9.13898e-05
5.68689e-05
3.38062e-05
1.42032e-05
-1.135e-06
-1.23421e-05
-1.81606e-05
-2.08829e-05
-2.15455e-05
-2.01119e-05
-1.59128e-05
-2.012e-06
)
;
    }
    left
    {
        type            cyclic;
        value           nonuniform List<scalar> 
20
(
-0.000706932
-0.000732727
-0.000636029
-0.00043022
-0.000343707
-0.000259689
-0.00019067
-0.000135654
-9.13898e-05
-5.68689e-05
-3.38062e-05
-1.42032e-05
1.135e-06
1.23421e-05
1.81606e-05
2.08829e-05
2.15455e-05
2.01119e-05
1.59128e-05
2.012e-06
)
;
    }
    outerWall
    {
        type            calculated;
        value           uniform 0;
    }
    stirrerWall
    {
        type            calculated;
        value           uniform 0;
    }
    top
    {
        type            empty;
        value           nonuniform List<scalar> 0();
    }
    bottom
    {
        type            empty;
        value           nonuniform List<scalar> 0();
    }
}


// ************************************************************************* //
