/*--------------------------------*- C++ -*----------------------------------*\
  =========                 |
  \\      /  F ield         | OpenFOAM: The Open Source CFD Toolbox
   \\    /   O peration     | Website:  https://openfoam.org
    \\  /    A nd           | Version:  10
     \\/     M anipulation  |
\*---------------------------------------------------------------------------*/
FoamFile
{
    format      ascii;
    class       volVectorField;
    location    "2200";
    object      U;
}
// * * * * * * * * * * * * * * * * * * * * * * * * * * * * * * * * * * * * * //

dimensions      [0 1 -1 0 0 0 0];

internalField   nonuniform List<vector> 
420
(
(0.0750788 8.95148 3.56468e-18)
(-0.763071 11.5716 -3.50321e-17)
(-0.392403 13.1498 -2.10964e-16)
(-0.353794 14.5383 6.10668e-17)
(-0.3775 15.7663 -4.46704e-16)
(-0.443124 16.8256 0)
(-0.48872 17.6138 0)
(-0.648547 17.9047 5.27843e-16)
(-0.704658 17.8617 -5.53282e-16)
(-0.781655 17.4572 0)
(-0.476708 8.67761 2.33914e-17)
(-1.44079 11.316 -8.69505e-17)
(-1.24161 12.9476 6.26867e-16)
(-1.27068 14.3969 -9.72665e-16)
(-1.35367 15.6994 2.96568e-16)
(-1.45111 16.823 6.89108e-18)
(-1.49203 17.6405 2.69227e-15)
(-1.6565 17.9313 -7.36555e-16)
(-1.74651 17.8408 1.25194e-15)
(-1.84427 17.4213 0)
(-0.934665 8.66574 6.2326e-17)
(-2.10944 11.0676 -3.87316e-16)
(-2.05952 12.7241 6.19962e-16)
(-2.18953 14.2151 1.10937e-15)
(-2.34039 15.5808 -7.24421e-16)
(-2.48059 16.7524 3.54174e-15)
(-2.54181 17.5662 1.61004e-15)
(-2.72173 17.8466 5.10439e-15)
(-2.81363 17.7513 -2.00285e-15)
(-2.90563 17.3554 -3.94497e-15)
(-1.46525 8.59133 -1.36898e-17)
(-2.85098 10.7686 3.57346e-16)
(-2.90883 12.4015 -7.65437e-16)
(-3.12129 13.8931 7.40761e-16)
(-3.32573 15.2898 -1.39698e-15)
(-3.49179 16.5005 1.60092e-15)
(-3.57747 17.3409 -8.85329e-15)
(-3.74968 17.6785 0)
(-3.85281 17.6201 -4.81051e-15)
(-3.95376 17.2689 3.9305e-15)
(-2.03898 8.44642 0)
(-3.61 10.3997 2.76619e-16)
(-3.75331 11.9899 -2.66136e-16)
(-4.02676 13.4571 0)
(-4.27383 14.8589 -2.92127e-16)
(-4.46389 16.0918 -3.01534e-16)
(-4.58155 16.9805 2.87753e-15)
(-4.76263 17.4229 -4.05754e-15)
(-4.90027 17.4368 0)
(-5.037 17.1523 -1.54526e-14)
(-2.63972 8.24878 -4.30935e-18)
(-4.35737 9.96216 0)
(-4.57248 11.4865 0)
(-4.892 12.9091 1.18259e-15)
(-5.17668 14.2931 -1.92812e-15)
(-5.40469 15.5438 2.14338e-15)
(-5.58018 16.4779 5.99545e-16)
(-5.79676 17.0498 8.3567e-15)
(-6.00157 17.1824 -1.15103e-14)
(-6.20491 16.9961 7.24215e-15)
(-3.26268 8.01544 0)
(-5.08735 9.45977 -2.59017e-16)
(-5.35905 10.8934 -1.71658e-15)
(-5.72231 12.2512 -7.46394e-16)
(-6.05864 13.5921 -3.19111e-15)
(-6.35148 14.8351 2.08646e-15)
(-6.61687 15.829 -4.98574e-15)
(-6.92224 16.527 7.55985e-16)
(-7.24632 16.833 -3.14817e-15)
(-7.56261 16.7693 -1.06466e-14)
(-3.92278 7.75689 1.83212e-17)
(-5.78943 8.89468 2.51129e-16)
(-6.1028 10.22 2.29225e-15)
(-6.5149 11.4933 5.30559e-16)
(-6.92115 12.7591 1.98651e-15)
(-7.30787 13.9606 0)
(-7.70041 14.9999 5.12801e-15)
(-8.16524 15.8086 6.44679e-15)
(-8.67826 16.3426 7.92242e-15)
(-9.18471 16.4582 7.85014e-15)
(-4.6576 7.46592 2.17129e-17)
(-6.45012 8.30687 2.46761e-16)
(-6.83273 9.54748 -2.58661e-16)
(-7.34492 10.7532 -1.52971e-15)
(-7.87638 11.9481 4.76978e-15)
(-8.4054 13.1014 6.55898e-15)
(-8.95422 14.161 -2.27972e-15)
(-9.58882 15.0733 0)
(-10.3025 15.8387 0)
(-11.0018 16.0044 -8.34356e-15)
(-5.49559 7.05576 2.89252e-17)
(-6.87769 7.75597 7.78821e-16)
(-7.43138 8.76615 0)
(-8.11299 9.76493 0)
(-8.8132 10.7398 -3.36174e-15)
(-9.51968 11.6942 -4.21126e-17)
(-10.2559 12.6311 5.78814e-15)
(-11.0417 13.5598 -1.25954e-14)
(-11.8557 14.4804 1.4981e-14)
(-12.589 14.9272 1.29449e-15)
(-0.779134 16.8251 0)
(-0.702666 16.0339 0)
(-0.571216 15.1943 0)
(-0.463946 14.3789 -7.94269e-16)
(-0.399932 13.5286 0)
(0.238014 12.774 0)
(-0.963612 12.8049 8.34224e-16)
(-0.519658 8.73492 0)
(3.42952 10.558 0)
(-6.71843 16.8766 0)
(-1.85615 16.7803 1.51376e-15)
(-1.77204 15.9476 2.48427e-15)
(-1.61575 15.0786 1.0793e-16)
(-1.49248 14.2627 8.70156e-16)
(-1.42348 13.4013 6.2783e-17)
(-0.745019 12.6646 1.09383e-15)
(-1.92816 12.7842 -5.82142e-17)
(-1.43136 8.48123 3.79843e-17)
(2.43675 10.5777 -2.14267e-15)
(-8.30022 16.8085 -6.78486e-16)
(-2.92198 16.7165 1.4265e-15)
(-2.82297 15.8301 0)
(-2.635 14.9229 -2.00747e-15)
(-2.49246 14.1028 -1.69877e-15)
(-2.4173 13.2305 5.09838e-15)
(-1.70788 12.5076 -1.06933e-15)
(-2.85418 12.6854 1.68773e-15)
(-2.25513 8.30658 0)
(1.59895 10.6802 2.47341e-15)
(-9.45649 16.1989 -5.31754e-17)
(-3.99515 16.6447 3.22119e-15)
(-3.87966 15.6882 7.62575e-15)
(-3.64944 14.7385 -7.89958e-15)
(-3.48456 13.9156 3.1084e-15)
(-3.40001 13.0319 3.73396e-18)
(-2.66972 12.3168 0)
(-3.77544 12.5495 -1.69411e-15)
(-3.06275 8.15655 -2.2936e-15)
(0.739616 10.7415 -2.49085e-15)
(-10.7838 15.4398 3.31423e-15)
(-5.12348 16.5461 2.8999e-15)
(-4.97032 15.5095 -2.49342e-15)
(-4.67662 14.5191 8.01994e-15)
(-4.47824 13.6913 -3.16619e-15)
(-4.36949 12.7933 2.63119e-15)
(-3.61943 12.0762 -4.14653e-15)
(-4.6636 12.3485 3.35366e-15)
(-3.81283 8.03224 2.23213e-15)
(-0.189779 10.7232 0)
(-11.5854 14.5293 -6.7056e-15)
(-6.35764 16.3873 3.36453e-15)
(-6.11486 15.2539 -1.46442e-14)
(-5.72768 14.2434 -4.14384e-15)
(-5.48408 13.4166 9.56932e-15)
(-5.33437 12.5051 7.93102e-15)
(-4.56029 11.7786 1.32809e-16)
(-5.52238 12.065 4.36578e-17)
(-4.52862 7.93282 -2.50205e-15)
(-1.09681 10.6069 -2.6236e-15)
(-12.4122 13.5376 7.25517e-15)
(-7.75645 16.0945 3.39047e-15)
(-7.31872 14.8537 5.01697e-15)
(-6.80028 13.8724 0)
(-6.50799 13.0672 -3.16075e-15)
(-6.30313 12.1529 -5.00524e-15)
(-5.50156 11.4187 1.48553e-16)
(-6.37855 11.6739 -1.06012e-14)
(-5.22403 7.86615 -2.35625e-15)
(-1.99589 10.4277 5.19409e-15)
(-13.1772 12.44 -3.72878e-15)
(-9.28652 15.5385 1.27446e-14)
(-8.52602 14.2311 -4.62029e-15)
(-7.86746 13.3676 0)
(-7.53317 12.6188 -1.56326e-16)
(-7.26895 11.7226 2.05287e-14)
(-6.45085 10.9947 -8.41636e-15)
(-7.23062 11.2021 -7.23144e-15)
(-5.97992 7.7132 4.968e-15)
(-2.88713 10.1666 -5.68214e-15)
(-13.9473 11.236 0)
(-10.6497 14.6321 3.53306e-16)
(-9.62488 13.3881 -4.56436e-15)
(-8.89398 12.7496 0)
(-8.52855 12.0756 6.48231e-15)
(-8.20631 11.215 -1.53251e-14)
(-7.37869 10.4966 8.56227e-15)
(-8.03919 10.6505 3.6624e-15)
(-6.66772 7.61941 0)
(-3.78172 9.79104 -1.9333e-16)
(-14.5677 9.94875 3.77163e-15)
(-11.1994 13.5694 4.92502e-16)
(-10.5622 12.523 -3.61342e-17)
(-9.88244 12.0887 0)
(-9.48574 11.4645 -1.27436e-14)
(-9.09669 10.642 4.84778e-15)
(-8.26427 9.92304 -4.48203e-15)
(-8.76936 9.91589 3.639e-15)
(-7.28174 7.48569 5.40166e-16)
(-4.55713 9.37439 3.97755e-16)
(-15.0608 8.67947 -3.8261e-15)
(-10.868 13.3894 2.83631e-15)
(-11.0737 11.9246 -4.84286e-15)
(-10.6058 11.5503 0)
(-10.1957 10.9674 0)
(-9.76059 10.1829 0)
(-8.97313 9.53631 -2.26064e-15)
(-9.41473 9.35777 9.47643e-15)
(-7.67351 7.26393 0)
(-5.35875 9.31489 0)
(-15.1822 7.5833 0)
(-11.5044 12.632 -2.69926e-15)
(-11.5825 11.4856 -4.69662e-15)
(-11.2333 11.1112 0)
(-10.7826 10.5497 3.35214e-15)
(-10.2845 9.7868 -2.56692e-15)
(-9.44119 9.1772 2.27637e-15)
(-9.80017 9.01439 3.92975e-15)
(-7.98784 6.86566 -1.6953e-16)
(-5.94 9.02367 1.43343e-15)
(-15.3714 6.92987 0)
(-12.6977 11.4511 1.77895e-16)
(-12.3656 10.7844 -1.30482e-17)
(-12.0667 10.2939 0)
(-11.5618 9.75143 2.12857e-16)
(-10.9769 9.04991 5.70597e-15)
(-10.1103 8.44677 -4.17057e-15)
(-10.3807 8.36576 -1.15972e-14)
(-8.46911 6.35371 -6.2534e-15)
(-6.60009 8.35673 1.19804e-14)
(-15.6693 5.92713 3.82925e-15)
(-14.1326 10.2315 -1.14715e-14)
(-13.5021 9.73698 4.51235e-15)
(-12.9998 9.27571 0)
(-12.3847 8.79324 -6.87342e-15)
(-11.7231 8.19993 -5.63871e-15)
(-10.8698 7.63346 9.03464e-15)
(-10.9748 7.45375 4.01062e-15)
(-8.9902 6.17754 0)
(-7.45078 7.5908 -5.73522e-15)
(-15.7188 4.44677 3.16603e-16)
(-15.0119 8.84766 -2.67646e-16)
(-14.3533 8.49597 4.69661e-15)
(-13.7621 8.1487 0)
(-13.0729 7.76239 1.37388e-14)
(-12.3596 7.28595 1.18931e-17)
(-11.5228 6.81765 -1.58782e-16)
(-11.4849 6.48796 8.35695e-15)
(-9.44749 5.6335 -5.91901e-15)
(-8.26781 6.95807 -6.22274e-15)
(-15.5539 3.01192 0)
(-15.6255 7.52036 -2.9799e-15)
(-14.9997 7.25082 9.98361e-15)
(-14.3578 6.9932 8.60887e-15)
(-13.6183 6.69928 -9.88583e-15)
(-12.8711 6.34184 -1.67061e-14)
(-12.0667 5.99335 -2.95604e-16)
(-11.892 5.56143 -4.08449e-15)
(-9.85305 5.10382 -3.07516e-15)
(-9.05851 6.36937 -5.66423e-15)
(-15.23 1.61259 -3.31767e-15)
(-16.1039 6.23896 -8.92988e-15)
(-15.4889 6.02466 4.8487e-15)
(-14.8043 5.83447 -3.74526e-15)
(-14.0334 5.62149 -1.00765e-14)
(-13.2703 5.37291 7.81363e-15)
(-12.5075 5.15039 -2.68462e-16)
(-12.2475 4.63614 7.67025e-15)
(-10.1981 4.52398 3.34497e-15)
(-9.74007 5.81888 2.65391e-15)
(-14.8045 0.276367 -3.02766e-16)
(-16.4738 4.98904 2.54297e-15)
(-15.8451 4.82373 -2.40051e-15)
(-15.1188 4.6916 -1.39541e-16)
(-14.3249 4.55117 9.80004e-15)
(-13.5542 4.40087 -1.34644e-14)
(-12.837 4.31369 4.28122e-15)
(-12.5104 3.73965 -3.89585e-15)
(-10.443 3.90305 8.90053e-15)
(-10.3677 5.42028 0)
(-14.3793 -0.889443 7.66244e-17)
(-16.736 3.76006 2.81155e-15)
(-16.087 3.64654 2.35968e-15)
(-15.317 3.57188 4.04616e-15)
(-14.5019 3.49688 -6.40726e-15)
(-13.7204 3.43691 2.57154e-15)
(-13.0416 3.49261 0)
(-12.6658 2.87899 -1.78725e-15)
(-10.5168 3.24325 -6.04082e-15)
(-10.9132 5.06323 -7.7433e-17)
(-14.138 -1.69209 3.24196e-15)
(-16.9035 2.53146 1.2683e-15)
(-16.2276 2.49051 0)
(-15.4175 2.48181 1.9935e-15)
(-14.5836 2.47217 1.71678e-15)
(-13.7734 2.49965 8.13074e-17)
(-13.0898 2.70342 -1.06799e-15)
(-12.7038 2.07962 1.76951e-15)
(-10.3794 2.7483 0)
(-11.1633 5.03625 2.72046e-15)
(-14.2668 -2.04079 2.75589e-15)
(-16.9671 1.34275 1.40409e-15)
(-16.2524 1.39268 -2.42354e-15)
(-15.4296 1.45674 -1.21675e-16)
(-14.5943 1.51479 6.98331e-16)
(-13.7673 1.60651 -6.26921e-17)
(-13.0147 1.98378 1.05052e-15)
(-12.5224 1.17164 -1.69724e-15)
(-10.0458 2.55114 -6.37475e-17)
(-11.1254 5.49607 2.05856e-15)
(-13.3723 -3.0644 -2.01687e-15)
(-16.8985 0.283084 2.05633e-29)
(-16.1161 0.363207 0)
(-15.2716 0.493875 0)
(-14.4389 0.608966 -7.97897e-16)
(-13.5768 0.682606 0)
(-12.746 1.29159 0)
(-12.7788 -0.13544 8.41186e-16)
(-8.77266 0.607776 0)
(-10.4221 4.94585 0)
(-18.3295 -6.06328 -8.03603e-30)
(-14.2381 12.3445 8.17228e-16)
(-14.7126 10.5501 -7.21119e-15)
(-15.368 8.89873 7.20304e-15)
(-15.8882 7.54263 -9.72022e-15)
(-16.3681 6.27036 6.27428e-15)
(-16.7922 5.029 -1.27162e-14)
(-17.1303 3.79646 3.08337e-15)
(-17.3697 2.55442 -3.3031e-15)
(-17.4956 1.33036 0)
(-17.5044 0.271089 -3.88816e-16)
(-14.8061 11.6424 1.52433e-14)
(-15.1015 10.1652 0)
(-15.5199 8.63472 7.73927e-15)
(-15.9503 7.41261 -2.94794e-15)
(-16.3906 6.22202 -9.57834e-15)
(-16.8277 5.0357 0)
(-17.2183 3.8396 -3.40448e-15)
(-17.5369 2.61376 -1.53021e-15)
(-17.7639 1.37552 1.01623e-15)
(-17.8622 0.322876 -4.37427e-16)
(-14.5346 10.8336 -1.26926e-14)
(-15.0842 9.55951 0)
(-15.4343 8.21392 7.15476e-15)
(-15.7998 7.14511 5.43569e-16)
(-16.1904 6.07084 7.91534e-15)
(-16.6141 4.97635 -3.54812e-15)
(-17.016 3.84923 0)
(-17.3754 2.68027 4.09172e-15)
(-17.6761 1.46387 -6.68978e-16)
(-17.841 0.34659 5.81073e-16)
(-13.5129 10.0915 5.75933e-15)
(-14.5622 8.89513 -2.56964e-15)
(-15.0465 7.70805 5.8692e-15)
(-15.4295 6.78068 -6.35271e-15)
(-15.7638 5.83353 6.77439e-16)
(-16.1437 4.83253 3.68967e-15)
(-16.5342 3.78472 -1.09125e-14)
(-16.9075 2.70472 1.84415e-15)
(-17.2477 1.57416 3.02094e-15)
(-17.4771 0.502255 9.25042e-17)
(-12.3225 9.41065 -8.63009e-15)
(-13.5495 8.26379 7.11683e-15)
(-14.2962 7.2074 0)
(-14.8139 6.35434 2.25641e-15)
(-15.2 5.51622 2.38098e-15)
(-15.5543 4.62978 -3.05015e-16)
(-15.9006 3.6913 1.73583e-15)
(-16.2298 2.70347 3.93534e-15)
(-16.519 1.65142 7.39612e-18)
(-16.7146 0.583463 3.71943e-16)
(-11.1436 8.7566 -3.44919e-15)
(-12.3536 7.68266 5.15642e-15)
(-13.2165 6.74828 1.97051e-15)
(-13.8879 5.95037 -3.31499e-15)
(-14.3765 5.17693 -1.94329e-15)
(-14.765 4.36876 -2.59207e-16)
(-15.0923 3.50808 -3.28422e-15)
(-15.3754 2.59198 1.04067e-15)
(-15.5979 1.61962 3.186e-16)
(-15.7264 0.621889 -3.69047e-16)
(-10.0073 8.09506 0)
(-11.0569 7.14079 -1.64609e-15)
(-11.9512 6.3351 4.96902e-16)
(-12.6781 5.5921 -7.29e-16)
(-13.2546 4.86085 1.18911e-15)
(-13.7058 4.09861 0)
(-14.0548 3.29452 7.20237e-16)
(-14.32 2.44136 1.09236e-15)
(-14.4954 1.53503 -9.8657e-16)
(-14.5701 0.596405 -3.23886e-17)
(-8.9017 7.414 0)
(-9.75709 6.63738 -3.35709e-16)
(-10.5868 5.96344 2.49265e-15)
(-11.3031 5.27946 -1.82715e-15)
(-11.9029 4.58036 0)
(-12.3794 3.84881 -2.66434e-16)
(-12.7445 3.08325 -7.30078e-16)
(-13.0091 2.27452 6.06359e-16)
(-13.164 1.41783 6.07579e-16)
(-13.2247 0.513147 -2.4366e-16)
(-7.80983 6.6664 -9.50735e-16)
(-8.47936 6.07163 3.37875e-16)
(-9.18482 5.47533 3.24411e-16)
(-9.8288 4.81928 -3.10429e-16)
(-10.3784 4.13642 0)
(-10.8212 3.4294 2.81699e-16)
(-11.1599 2.69807 3.22727e-16)
(-11.4037 1.93924 -3.42887e-16)
(-11.5404 1.11813 -7.56863e-17)
(-11.6102 0.248146 2.77677e-18)
(-6.37752 6.25429 -3.049e-16)
(-6.58471 6.018 6.04776e-17)
(-6.99423 5.50843 4.56928e-17)
(-7.41804 4.90682 0)
(-7.82609 4.30047 -1.38694e-17)
(-8.19167 3.70154 0)
(-8.50273 3.09996 -2.82464e-17)
(-8.75943 2.47848 7.97923e-17)
(-8.95534 1.80531 2.77914e-17)
(-9.15889 1.02735 -6.31464e-18)
)
;

boundaryField
{
    right
    {
        type            cyclic;
    }
    left
    {
        type            cyclic;
    }
    outerWall
    {
        type            calculated;
        value           nonuniform List<vector> 
22
(
(-1.55201 41.8305 0)
(-4.64749 41.6006 0)
(-7.71741 41.1419 0)
(-10.7449 40.4569 0)
(-13.7132 39.5492 0)
(-16.6061 38.424 0)
(-19.4075 37.0874 0)
(-22.1022 35.5467 0)
(-24.6752 33.8104 0)
(-27.1124 31.8882 0)
(-28.9573 30.2506 0)
(-30.2506 28.9573 0)
(-31.8882 27.1124 0)
(-33.8104 24.6752 0)
(-35.5467 22.1022 0)
(-37.0874 19.4075 0)
(-38.424 16.6061 0)
(-39.5492 13.7132 0)
(-40.4569 10.7449 0)
(-41.1419 7.71741 0)
(-41.6006 4.64749 0)
(-41.8305 1.55201 0)
)
;
    }
    stirrerWall
    {
        type            calculated;
        value           nonuniform List<vector> 
42
(
(-0.310178 8.3662 0)
(-0.928834 8.32046 0)
(-1.54239 8.22894 0)
(-2.14746 8.09214 0)
(-2.74072 7.91082 0)
(-3.31888 7.68598 0)
(-3.87877 7.41885 0)
(-4.41729 7.11092 0)
(-4.93148 6.76387 0)
(-5.4185 6.37963 0)
(-6.07951 6.64185 0)
(-6.92878 7.56862 0)
(-7.77806 8.49539 0)
(-8.62734 9.42216 0)
(-9.47661 10.3489 0)
(-10.3259 11.2757 0)
(-11.1752 12.2025 0)
(-12.0244 13.1292 0)
(-12.8737 14.056 0)
(-13.723 14.9828 0)
(-14.4723 15.1215 0)
(-15.1215 14.4723 0)
(-14.9828 13.723 0)
(-14.056 12.8737 0)
(-13.1292 12.0244 0)
(-12.2025 11.1752 0)
(-11.2757 10.3259 0)
(-10.3489 9.47661 0)
(-9.42216 8.62734 0)
(-8.49539 7.77806 0)
(-7.56862 6.92878 0)
(-6.64185 6.07951 0)
(-6.37963 5.4185 0)
(-6.76387 4.93148 0)
(-7.11092 4.41729 0)
(-7.41885 3.87877 0)
(-7.68598 3.31888 0)
(-7.91082 2.74072 0)
(-8.09214 2.14746 0)
(-8.22894 1.54239 0)
(-8.32046 0.928834 0)
(-8.3662 0.310178 0)
)
;
    }
    top
    {
        type            empty;
    }
    bottom
    {
        type            empty;
    }
}


// ************************************************************************* //
