/*--------------------------------*- C++ -*----------------------------------*\
  =========                 |
  \\      /  F ield         | OpenFOAM: The Open Source CFD Toolbox
   \\    /   O peration     | Website:  https://openfoam.org
    \\  /    A nd           | Version:  10
     \\/     M anipulation  |
\*---------------------------------------------------------------------------*/
FoamFile
{
    format      ascii;
    class       volVectorField;
    location    "2200";
    object      Urel;
}
// * * * * * * * * * * * * * * * * * * * * * * * * * * * * * * * * * * * * * //

dimensions      [0 1 -1 0 0 0 0];

internalField   nonuniform List<vector> 
420
(
(0.409079 -0.0567748 3.56468e-18)
(-0.38257 1.31024 -3.50321e-17)
(0.0346125 1.63499 -2.10964e-16)
(0.119747 1.76974 6.10668e-17)
(0.142574 1.74372 -4.46704e-16)
(0.123488 1.54891 0)
(0.124435 1.08288 0)
(0.0111542 0.119486 5.27843e-16)
(0.00159165 -1.17799 -5.53282e-16)
(-0.0288535 -2.83689 0)
(0.523468 -0.281347 2.33914e-17)
(-0.301372 1.1109 -8.69505e-17)
(0.0371034 1.49592 6.26867e-16)
(0.147347 1.69834 -9.72665e-16)
(0.203706 1.75387 2.96568e-16)
(0.245624 1.63021 6.89108e-18)
(0.344077 1.20038 2.69227e-15)
(0.318987 0.243855 -7.36555e-16)
(0.368364 -1.09417 1.25194e-15)
(0.410005 -2.76122 0)
(0.726196 -0.194648 6.2326e-17)
(-0.217349 0.974834 -3.87316e-16)
(0.0638618 1.39847 6.19962e-16)
(0.165201 1.65647 1.10937e-15)
(0.245729 1.78889 -7.24421e-16)
(0.336943 1.72702 3.54174e-15)
(0.507155 1.30731 1.61004e-15)
(0.558684 0.354089 5.10439e-15)
(0.698253 -0.974927 -2.00285e-15)
(0.837727 -2.6046 -3.94497e-15)
(0.847168 -0.121742 -1.36898e-17)
(-0.216636 0.843662 3.57346e-16)
(0.0475588 1.26428 -7.65437e-16)
(0.157205 1.54332 7.40761e-16)
(0.274915 1.72733 -1.39698e-15)
(0.431052 1.7251 1.60092e-15)
(0.667607 1.35251 -8.85329e-15)
(0.817648 0.47702 0)
(1.03679 -0.794486 -4.81051e-15)
(1.25812 -2.35893 3.9305e-15)
(0.912264 -0.0714148 0)
(-0.247879 0.697143 2.76619e-16)
(0.0198165 1.10228 -2.66136e-16)
(0.157474 1.38408 0)
(0.321561 1.60032 -2.92127e-16)
(0.542716 1.64763 -3.01534e-16)
(0.836311 1.35053 2.87753e-15)
(1.06652 0.607021 -4.05754e-15)
(1.34019 -0.565071 0)
(1.61479 -2.03555 -1.54526e-14)
(0.934107 -0.0269558 -4.30935e-18)
(-0.285971 0.535375 0)
(-0.00334969 0.908261 0)
(0.174972 1.17923 1.18259e-15)
(0.38821 1.41143 -1.92812e-15)
(0.658178 1.51007 2.14338e-15)
(0.980707 1.29211 5.99545e-16)
(1.26219 0.711803 8.3567e-15)
(1.55547 -0.307759 -1.15103e-14)
(1.85025 -1.64643 7.24215e-15)
(0.914056 0.0273174 0)
(-0.329069 0.360592 -2.59017e-16)
(-0.0190477 0.682862 -1.71658e-15)
(0.19954 0.928968 -7.46394e-16)
(0.445147 1.15804 -3.19111e-15)
(0.734321 1.28912 2.08646e-15)
(1.05101 1.17089 -4.98574e-15)
(1.32774 0.75671 7.55985e-16)
(1.58581 -0.0494204 -3.14817e-15)
(1.8517 -1.22544 -1.06466e-14)
(0.833871 0.100311 1.83212e-17)
(-0.370463 0.173133 2.51129e-16)
(-0.0213029 0.433133 2.29225e-15)
(0.229268 0.640939 5.30559e-16)
(0.485801 0.840985 1.98651e-15)
(0.761938 0.976702 0)
(1.03232 0.950031 5.12801e-15)
(1.23047 0.692702 6.44679e-15)
(1.38045 0.160627 7.92242e-15)
(1.53705 -0.789909 7.85014e-15)
(0.652764 0.182997 2.17129e-17)
(-0.400276 0.0109054 2.46761e-16)
(-0.0431825 0.238164 -2.58661e-16)
(0.184499 0.430321 -1.52971e-15)
(0.393024 0.611452 4.76978e-15)
(0.604077 0.750937 6.55898e-15)
(0.795401 0.796571 -2.27972e-15)
(0.901002 0.694844 0)
(0.927542 0.446088 0)
(0.968546 -0.402315 -8.34356e-15)
(0.33925 0.186537 2.89252e-17)
(-0.230275 -0.0687949 7.78821e-16)
(0.0288731 -0.0144625 0)
(0.160272 0.0282564 0)
(0.273203 0.0469252 -3.36174e-15)
(0.379962 0.0450328 -4.21126e-17)
(0.457069 0.0254521 5.78814e-15)
(0.48467 -0.0023198 -1.25954e-14)
(0.484021 -0.0382584 1.4981e-14)
(0.564181 -0.548008 1.29449e-15)
(0.0204739 -4.73021 0)
(0.14655 -6.85815 0)
(0.332926 -9.17785 0)
(0.501009 -11.632 -7.94269e-16)
(0.632355 -14.2967 0)
(1.34485 -17.0602 0)
(0.225763 -19.2536 8.34224e-16)
(0.761103 -25.7861 0)
(4.81147 -26.6895 0)
(-5.22446 -23.3897 0)
(0.538265 -4.65639 1.51376e-15)
(0.770931 -6.81858 2.48427e-15)
(1.0917 -9.15952 1.0793e-16)
(1.39707 -11.6052 8.70156e-16)
(1.66769 -14.2711 6.2783e-17)
(2.56939 -17.0056 1.09383e-15)
(1.63342 -19.098 -5.82142e-17)
(2.40388 -25.8501 3.79843e-17)
(6.57497 -26.4652 -2.14267e-15)
(-3.82654 -23.2366 -6.78486e-16)
(1.05409 -4.48385 1.4265e-15)
(1.39978 -6.68507 0)
(1.86086 -9.04798 -2.00747e-15)
(2.3058 -11.4798 -1.69877e-15)
(2.71577 -14.1368 5.09838e-15)
(3.79589 -16.8354 -1.06933e-15)
(3.06001 -18.8453 1.68773e-15)
(4.11349 -25.6462 0)
(8.47069 -25.9542 2.47341e-15)
(-2.02769 -23.4047 -5.31754e-17)
(1.54073 -4.20285 3.22119e-15)
(1.99967 -6.45225 7.62575e-15)
(2.61014 -8.83339 -7.89958e-15)
(3.19604 -11.2412 3.1084e-15)
(3.74674 -13.8798 3.73396e-18)
(4.99314 -16.5378 0)
(4.45885 -18.4563 -1.69411e-15)
(5.80423 -25.2309 -2.2936e-15)
(10.3071 -25.283 -2.49085e-15)
(-0.440729 -23.5043 3.31423e-15)
(1.94181 -3.83411 2.8999e-15)
(2.53329 -6.13456 -2.49342e-15)
(3.31228 -8.52434 8.01994e-15)
(4.04799 -10.9014 -3.16619e-15)
(4.75165 -13.5149 2.63119e-15)
(6.16039 -16.1313 -4.14653e-15)
(5.84551 -17.9619 3.35366e-15)
(7.50373 -24.6063 2.23213e-15)
(12.0208 -24.4932 0)
(1.61498 -23.5412 -6.7056e-15)
(2.19826 -3.41358 3.36453e-15)
(2.97181 -5.77486 -1.46442e-14)
(3.94666 -8.14491 -4.14384e-15)
(4.84091 -10.4769 9.56932e-15)
(5.71103 -13.055 7.93102e-15)
(7.28272 -15.6266 1.32809e-16)
(7.20374 -17.3832 4.36578e-17)
(9.17527 -23.7773 -2.50205e-15)
(13.6897 -23.6077 -2.6236e-15)
(3.57282 -23.4498 7.25517e-15)
(2.24307 -3.0184 3.39047e-15)
(3.3011 -5.44425 5.01697e-15)
(4.50633 -7.73766 0)
(5.55902 -9.99567 -3.16075e-15)
(6.6058 -12.5185 -5.00524e-15)
(8.33952 -15.0336 1.48553e-16)
(8.4946 -16.7503 -1.06012e-14)
(10.7918 -22.7412 -2.35625e-15)
(15.2851 -22.5968 5.19409e-15)
(5.50453 -23.2608 -3.72878e-15)
(2.10172 -2.78128 1.27446e-14)
(3.56862 -5.22454 -4.62029e-15)
(5.00931 -7.34553 0)
(6.20956 -9.48674 -1.56326e-16)
(7.43255 -11.9245 2.05287e-14)
(9.3122 -14.3593 -8.41636e-15)
(9.70776 -16.0417 -7.23144e-15)
(12.2598 -21.623 4.968e-15)
(16.7933 -21.4863 -5.68214e-15)
(7.32843 -22.9817 0)
(2.06473 -2.79399 3.53306e-16)
(3.87816 -5.11822 -4.56436e-15)
(5.4822 -6.95284 0)
(6.81435 -8.95113 6.48231e-15)
(8.20695 -11.278 -1.53251e-14)
(10.2197 -13.6197 8.56227e-15)
(10.8713 -15.2632 3.6624e-15)
(13.6955 -20.2843 0)
(18.1899 -20.316 -1.9333e-16)
(9.18477 -22.5978 3.77163e-15)
(2.77139 -2.86726 4.92502e-16)
(4.2751 -4.93245 -3.61342e-17)
(5.91417 -6.49463 0)
(7.37304 -8.36777 -1.27436e-14)
(8.93811 -10.573 4.84778e-15)
(11.0726 -12.8229 -4.48203e-15)
(12.0092 -14.5251 3.639e-15)
(15.0929 -18.8321 5.40166e-16)
(19.5848 -19.0213 3.97755e-16)
(11.0378 -22.0168 -3.8261e-15)
(4.04775 -2.19505 2.83631e-15)
(4.7678 -4.62682 -4.84286e-15)
(6.26078 -6.07179 0)
(7.80577 -7.83999 0)
(9.49745 -9.93692 0)
(11.6762 -12.0367 -2.26064e-15)
(12.7749 -13.8241 9.47643e-15)
(16.2217 -17.6992 0)
(20.4247 -17.6205 0)
(12.6919 -21.5357 0)
(4.08006 -2.28375 -2.69926e-15)
(4.96888 -4.35595 -4.69662e-15)
(6.38877 -5.75536 0)
(8.02477 -7.45181 3.35214e-15)
(9.83535 -9.47124 -2.56692e-15)
(12.1318 -11.4721 2.27637e-15)
(13.3817 -13.1753 3.92975e-15)
(16.9753 -17.0295 -1.6953e-16)
(20.9954 -16.7598 1.43343e-15)
(13.7477 -20.9443 0)
(3.73896 -2.51968 1.77895e-16)
(5.08978 -4.05287 -1.30482e-17)
(6.51672 -5.50275 0)
(8.27045 -7.10735 2.12857e-16)
(10.2382 -8.98489 5.70597e-15)
(12.6357 -10.8901 -4.17057e-15)
(14.0603 -12.4128 -1.15972e-14)
(17.8486 -16.021 -6.2534e-15)
(21.7956 -15.7852 1.19804e-14)
(15.0269 -20.1715 3.82925e-15)
(3.29352 -2.4829 -1.14715e-14)
(5.00423 -3.76606 4.51235e-15)
(6.70259 -5.10047 0)
(8.64194 -6.54966 -6.87342e-15)
(10.7698 -8.21333 -5.63871e-15)
(13.2465 -9.96489 9.03464e-15)
(14.9389 -11.4567 4.01062e-15)
(18.9135 -14.1857 0)
(22.6563 -14.3809 -5.73522e-15)
(16.8278 -19.3057 3.16603e-16)
(3.30793 -2.54059 -2.67646e-16)
(5.10228 -3.59867 4.69661e-15)
(6.95106 -4.72807 0)
(9.03268 -5.98033 1.37388e-14)
(11.2876 -7.41555 1.18931e-17)
(13.8312 -8.9454 -1.58782e-16)
(15.7589 -10.4504 8.35695e-15)
(19.8887 -12.6062 -5.91901e-15)
(23.385 -12.7224 -6.22274e-15)
(18.6639 -18.2638 0)
(3.48732 -2.47917 -2.9799e-15)
(5.29824 -3.369 9.98361e-15)
(7.25234 -4.31341 8.60887e-15)
(9.44458 -5.36773 -9.88583e-15)
(11.8003 -6.56709 -1.67061e-14)
(14.3856 -7.84773 -2.95604e-16)
(16.5322 -9.31172 -4.08449e-15)
(20.7543 -10.912 -3.07516e-15)
(23.966 -10.9116 -5.66423e-15)
(20.4708 -17.0692 -3.31767e-15)
(3.69701 -2.31694 -8.92988e-15)
(5.53989 -3.06201 4.8487e-15)
(7.58403 -3.83986 -3.74526e-15)
(9.86009 -4.7035 -1.00765e-14)
(12.2898 -5.67249 7.81363e-15)
(14.8978 -6.69262 -2.68462e-16)
(17.2008 -8.08999 7.67025e-15)
(21.512 -9.17991 3.34497e-15)
(24.4745 -8.96758 2.65391e-15)
(22.1828 -15.7087 -3.02766e-16)
(3.90636 -2.07625 2.54297e-15)
(5.79893 -2.67987 -2.40051e-15)
(7.92457 -3.2973 -1.39541e-16)
(10.2678 -3.97506 9.80004e-15)
(12.754 -4.72028 -1.34644e-14)
(15.3705 -5.46613 4.28122e-15)
(17.7999 -6.76946 -3.89585e-15)
(22.1956 -7.4135 8.90053e-15)
(24.8487 -6.79027 0)
(23.6912 -14.0898 7.66244e-17)
(4.11154 -1.77582 2.81155e-15)
(6.0534 -2.23279 2.35968e-15)
(8.25495 -2.68771 4.04616e-15)
(10.6549 -3.18372 -6.40726e-15)
(13.1913 -3.70983 2.57154e-15)
(15.813 -4.17025 0)
(18.3399 -5.35531 -1.78725e-15)
(22.8707 -5.62373 -6.04082e-15)
(25.1113 -4.50424 -7.7433e-17)
(24.8062 -12.0351 3.24196e-15)
(4.2968 -1.44461 1.2683e-15)
(6.28758 -1.73224 0)
(8.55338 -2.01406 1.9935e-15)
(10.9991 -2.3261 1.71678e-15)
(13.5938 -2.63342 8.13074e-17)
(16.2533 -2.80035 -1.06799e-15)
(18.8268 -3.83458 1.76951e-15)
(23.5733 -3.62031 0)
(25.4712 -1.83549 2.72046e-15)
(25.3368 -9.46959 2.75589e-15)
(4.4696 -1.05166 1.40409e-15)
(6.51379 -1.15029 -2.42354e-15)
(8.80856 -1.2507 -1.21675e-16)
(11.2736 -1.37476 6.98331e-16)
(13.905 -1.48466 -6.26921e-17)
(16.6555 -1.33063 1.05052e-15)
(19.3598 -2.38994 -1.69724e-15)
(24.2855 -1.28409 -6.37475e-17)
(25.9175 1.35784 2.05856e-15)
(26.6728 -7.53809 -2.01687e-15)
(4.65677 -0.516524 2.05633e-29)
(6.77595 -0.486009 0)
(9.10059 -0.410267 0)
(11.572 -0.355989 -7.97897e-16)
(14.2485 -0.349681 0)
(17.0882 0.184757 0)
(19.2796 -1.32482 8.41186e-16)
(25.7484 -0.672985 0)
(26.8255 3.56391 0)
(21.9369 -7.55725 -8.03603e-30)
(1.23715 -0.808758 8.17228e-16)
(1.69409 -1.42026 -7.21119e-15)
(1.8801 -1.82303 7.20304e-15)
(2.10652 -1.87167 -9.72022e-15)
(2.2744 -1.7848 6.27428e-15)
(2.39569 -1.62278 -1.27162e-14)
(2.4975 -1.41542 3.08337e-15)
(2.5903 -1.18894 -3.3031e-15)
(2.68683 -0.923917 0)
(2.78969 -0.481712 -3.88816e-16)
(-0.287479 -0.697333 1.52433e-14)
(0.291069 -1.06488 0)
(0.662115 -1.42399 7.73927e-15)
(0.932171 -1.41952 -2.94794e-15)
(1.09956 -1.33502 -9.57834e-15)
(1.17411 -1.20475 0)
(1.19627 -1.04999 -3.40448e-15)
(1.18936 -0.898122 -1.53021e-15)
(1.17104 -0.739356 1.01623e-15)
(1.17749 -0.383374 -4.37427e-16)
(-0.972535 -0.692711 -1.26926e-14)
(-0.705724 -0.930314 0)
(-0.318413 -1.18179 7.15476e-15)
(-0.0295521 -1.10487 5.43569e-16)
(0.147511 -0.988108 7.91534e-15)
(0.201788 -0.852799 -3.54812e-15)
(0.185419 -0.718093 0)
(0.117123 -0.600148 4.09172e-15)
(0.011343 -0.511617 -6.68978e-16)
(-0.0557446 -0.313111 5.81073e-16)
(-0.907259 -0.62146 5.75933e-15)
(-1.19774 -0.854491 -2.56964e-15)
(-0.996607 -1.02469 5.8692e-15)
(-0.77137 -0.887191 -6.35271e-15)
(-0.578015 -0.727362 6.77439e-16)
(-0.513728 -0.585335 3.68967e-15)
(-0.545792 -0.460356 -1.09125e-14)
(-0.64861 -0.344248 1.84415e-15)
(-0.807612 -0.261941 3.02094e-15)
(-0.946175 -0.1109 9.25042e-17)
(-0.673273 -0.488986 -8.63009e-15)
(-1.19901 -0.745691 7.11683e-15)
(-1.3123 -0.862415 0)
(-1.26789 -0.73147 2.25641e-15)
(-1.16633 -0.546646 2.38098e-15)
(-1.11012 -0.376828 -3.05015e-16)
(-1.12519 -0.231549 1.73583e-15)
(-1.20443 -0.114058 3.93534e-15)
(-1.32621 -0.0453073 7.39612e-18)
(-1.43786 0.0168505 3.71943e-16)
(-0.450737 -0.329805 -3.44919e-15)
(-1.01692 -0.586742 5.15642e-15)
(-1.29843 -0.658675 1.97051e-15)
(-1.45385 -0.553419 -3.31499e-15)
(-1.49483 -0.387957 -1.94329e-15)
(-1.50649 -0.226632 -2.59207e-16)
(-1.52982 -0.092566 -3.28422e-15)
(-1.58349 0.00586859 1.04067e-15)
(-1.65237 0.0622464 3.186e-16)
(-1.70385 0.101815 -3.69047e-16)
(-0.270604 -0.178198 0)
(-0.733963 -0.388628 -1.64609e-15)
(-1.09879 -0.409074 4.96902e-16)
(-1.35591 -0.329744 -7.29e-16)
(-1.52474 -0.206122 1.18911e-15)
(-1.63277 -0.0856177 0)
(-1.70499 0.016024 7.20237e-16)
(-1.7613 0.0866306 1.09236e-15)
(-1.79686 0.117 -9.8657e-16)
(-1.80151 0.122864 -3.23886e-17)
(-0.121087 -0.0462481 0)
(-0.447767 -0.15217 -3.35709e-16)
(-0.799948 -0.118061 2.49265e-15)
(-1.09251 -0.0605422 -1.82715e-15)
(-1.32474 0.0112304 0)
(-1.49172 0.0756837 -2.66434e-16)
(-1.60725 0.126861 -7.30078e-16)
(-1.68354 0.151136 6.06359e-16)
(-1.71234 0.139119 6.07579e-16)
(-1.70982 0.0861318 -2.4366e-16)
(0.0149352 0.0189785 -9.50735e-16)
(-0.183398 0.0217919 3.37875e-16)
(-0.463271 0.0563566 3.24411e-16)
(-0.72962 0.061001 -3.10429e-16)
(-0.951664 0.0650221 0)
(-1.11864 0.0672809 2.81699e-16)
(-1.23495 0.0637192 3.22727e-16)
(-1.31091 0.0471577 -3.42887e-16)
(-1.33529 -0.0212928 -7.56863e-17)
(-1.34883 -0.132354 2.77677e-18)
(0.491704 0.41945 -3.049e-16)
(0.698213 0.707633 6.04776e-17)
(0.662343 0.751785 4.56928e-17)
(0.57008 0.730087 0)
(0.449646 0.72664 -1.38694e-17)
(0.326155 0.750302 0)
(0.210342 0.787551 -2.82464e-17)
(0.100957 0.817619 7.97923e-17)
(0.00361996 0.805136 2.77914e-17)
(-0.150637 0.693353 -6.31464e-18)
)
;

boundaryField
{
    right
    {
        type            cyclic;
    }
    left
    {
        type            cyclic;
    }
    outerWall
    {
        type            noSlip;
    }
    stirrerWall
    {
        type            noSlip;
    }
    top
    {
        type            empty;
    }
    bottom
    {
        type            empty;
    }
}


// ************************************************************************* //
