/*--------------------------------*- C++ -*----------------------------------*\
  =========                 |
  \\      /  F ield         | OpenFOAM: The Open Source CFD Toolbox
   \\    /   O peration     | Website:  https://openfoam.org
    \\  /    A nd           | Version:  10
     \\/     M anipulation  |
\*---------------------------------------------------------------------------*/
FoamFile
{
    format      ascii;
    class       volScalarField;
    location    "52000";
    object      omega;
}
// * * * * * * * * * * * * * * * * * * * * * * * * * * * * * * * * * * * * * //

dimensions      [0 0 -1 0 0 0 0];

internalField   nonuniform List<scalar> 
17922
(
25.6622
25.2582
24.8699
24.4972
24.1396
23.7971
23.4693
23.1562
22.8576
22.5733
22.3034
22.0476
21.8061
21.5787
21.3656
21.1667
20.9823
20.8125
20.6574
20.5173
20.3924
20.2832
20.1901
20.1134
20.0537
20.0117
19.9881
19.9836
19.999
20.0341
20.0876
20.1589
20.2471
20.3515
20.4717
20.607
20.7569
20.9212
21.0993
21.2911
21.4961
21.7142
21.9451
22.1886
22.4446
22.7129
22.9934
23.2859
23.5903
23.9064
24.2341
24.5733
24.9236
25.285
25.6572
26.0398
26.4326
26.8354
27.2477
27.6691
28.0994
28.5379
28.9843
29.438
29.8985
30.3651
30.8374
31.3145
31.7959
32.2808
32.7685
33.2582
33.7493
34.2411
34.7329
35.2242
35.7144
36.2033
36.6905
37.1759
37.6594
38.1413
38.6218
39.1014
39.5809
40.0612
40.5434
41.029
41.5198
42.0176
42.5249
43.0443
43.5788
25.6625
25.2585
24.8703
24.4975
24.1399
23.7974
23.4696
23.1565
22.8579
22.5736
22.3036
22.0479
21.8063
21.5789
21.3658
21.167
20.9825
20.8127
20.6576
20.5175
20.3926
20.2834
20.1902
20.1135
20.0539
20.0118
19.9882
19.9837
19.9991
20.0341
20.0877
20.1589
20.2471
20.3515
20.4717
20.6069
20.7569
20.9211
21.0992
21.2909
21.4959
21.7139
21.9448
22.1883
22.4442
22.7125
22.9929
23.2853
23.5896
23.9057
24.2333
24.5724
24.9226
25.2839
25.6559
26.0384
26.4311
26.8336
27.2457
27.6669
28.0969
28.5352
28.9812
29.4346
29.8947
30.361
30.8328
31.3094
31.7903
32.2746
32.7617
33.2508
33.7412
34.2323
34.7234
35.214
35.7036
36.1919
36.6785
37.1635
37.6466
38.1283
38.6087
39.0884
39.5682
40.0491
40.5323
41.0191
41.5115
42.0115
42.5214
43.044
43.5824
25.6628
25.2588
24.8705
24.4977
24.1402
23.7976
23.4699
23.1567
22.8581
22.5738
22.3038
22.0481
21.8065
21.5791
21.366
21.1672
20.9827
20.8129
20.6578
20.5176
20.3928
20.2836
20.1904
20.1137
20.054
20.012
19.9883
19.9838
19.9992
20.0342
20.0878
20.159
20.2472
20.3516
20.4717
20.6069
20.7568
20.921
21.0991
21.2907
21.4957
21.7137
21.9445
22.1879
22.4438
22.712
22.9924
23.2848
23.589
23.905
24.2325
24.5715
24.9216
25.2828
25.6546
26.037
26.4295
26.8319
27.2437
27.6647
28.0944
28.5324
28.9782
29.4312
29.8909
30.3567
30.8281
31.3042
31.7845
32.2682
32.7547
33.2431
33.7329
34.2233
34.7137
35.2037
35.6926
36.1803
36.6664
37.1509
37.6337
38.1151
38.5955
39.0754
39.5556
40.0372
40.5213
41.0095
41.5037
42.006
42.5187
43.0447
43.5871
25.6631
25.2591
24.8708
24.498
24.1404
23.7979
23.4701
23.157
22.8583
22.5741
22.3041
22.0483
21.8067
21.5794
21.3662
21.1674
20.9829
20.8131
20.6579
20.5178
20.393
20.2837
20.1905
20.1138
20.0542
20.0121
19.9885
19.9839
19.9993
20.0343
20.0879
20.1591
20.2472
20.3516
20.4717
20.6069
20.7567
20.9209
21.0989
21.2906
21.4955
21.7134
21.9442
22.1876
22.4434
22.7116
22.9919
23.2842
23.5884
23.9043
24.2317
24.5706
24.9206
25.2816
25.6534
26.0355
26.4279
26.83
27.2417
27.6625
28.0919
28.5296
28.975
29.4277
29.887
30.3524
30.8232
31.2989
31.7786
32.2617
32.7475
33.2353
33.7244
34.2141
34.7038
35.193
35.6814
36.1684
36.654
37.138
37.6205
38.1018
38.5821
39.0623
39.5429
40.0252
40.5105
41.0002
41.4963
42.0009
42.5166
43.0462
43.5928
25.6634
25.2594
24.8711
24.4983
24.1407
23.7981
23.4704
23.1572
22.8586
22.5743
22.3043
22.0485
21.807
21.5796
21.3664
21.1676
20.9831
20.8133
20.6581
20.518
20.3931
20.2839
20.1907
20.114
20.0543
20.0123
19.9886
19.9841
19.9994
20.0344
20.088
20.1592
20.2473
20.3516
20.4717
20.6068
20.7567
20.9208
21.0988
21.2904
21.4953
21.7132
21.9439
22.1872
22.443
22.7111
22.9914
23.2836
23.5877
23.9036
24.2309
24.5697
24.9196
25.2805
25.6521
26.0341
26.4262
26.8282
27.2396
27.6601
28.0893
28.5267
28.9718
29.424
29.8829
30.3479
30.8182
31.2933
31.7725
32.255
32.7401
33.2272
33.7156
34.2045
34.6936
35.1821
35.6698
36.1563
36.6413
37.1249
37.6071
38.0882
38.5686
39.049
39.5302
40.0134
40.4998
40.9911
41.4893
41.9965
42.5153
43.0485
43.5996
25.6637
25.2597
24.8714
24.4986
24.141
23.7984
23.4706
23.1575
22.8588
22.5745
22.3045
22.0488
21.8072
21.5798
21.3666
21.1678
20.9833
20.8135
20.6583
20.5182
20.3933
20.2841
20.1909
20.1142
20.0545
20.0124
19.9887
19.9842
19.9996
20.0345
20.0881
20.1592
20.2473
20.3517
20.4717
20.6068
20.7566
20.9207
21.0987
21.2902
21.495
21.7129
21.9436
22.1869
22.4426
22.7107
22.9909
23.283
23.5871
23.9028
24.2301
24.5688
24.9186
25.2793
25.6507
26.0326
26.4245
26.8263
27.2375
27.6577
28.0866
28.5237
28.9684
29.4203
29.8788
30.3432
30.8131
31.2876
31.7661
32.248
32.7325
33.2189
33.7065
34.1948
34.6831
35.171
35.658
36.1438
36.6284
37.1116
37.5935
38.0745
38.555
39.0357
39.5175
40.0016
40.4893
40.9823
41.4827
41.9926
42.5147
43.0519
43.6076
25.664
25.26
24.8717
24.4988
24.1412
23.7987
23.4709
23.1577
22.8591
22.5748
22.3048
22.049
21.8074
21.58
21.3668
21.168
20.9835
20.8136
20.6585
20.5184
20.3935
20.2843
20.191
20.1143
20.0546
20.0126
19.9889
19.9843
19.9997
20.0347
20.0881
20.1593
20.2474
20.3517
20.4717
20.6068
20.7566
20.9206
21.0985
21.29
21.4948
21.7127
21.9433
22.1865
22.4422
22.7102
22.9903
23.2825
23.5864
23.9021
24.2293
24.5678
24.9175
25.2781
25.6493
26.031
26.4228
26.8243
27.2353
27.6552
28.0838
28.5205
28.9649
29.4164
29.8744
30.3384
30.8077
31.2817
31.7596
32.2408
32.7246
33.2103
33.6972
34.1847
34.6723
35.1595
35.6458
36.1311
36.6152
37.098
37.5797
38.0606
38.5412
39.0223
39.5048
39.9899
40.479
40.9739
41.4766
41.9894
42.5149
43.0563
43.6167
25.6643
25.2602
24.8719
24.4991
24.1415
23.7989
23.4711
23.158
22.8593
22.575
22.305
22.0492
21.8076
21.5802
21.3671
21.1682
20.9837
20.8138
20.6587
20.5186
20.3937
20.2844
20.1912
20.1145
20.0548
20.0127
19.989
19.9844
19.9998
20.0348
20.0882
20.1594
20.2474
20.3517
20.4717
20.6068
20.7565
20.9205
21.0984
21.2899
21.4946
21.7124
21.943
22.1862
22.4418
22.7097
22.9898
23.2818
23.5857
23.9013
24.2284
24.5668
24.9164
25.2768
25.6479
26.0294
26.421
26.8223
27.233
27.6527
28.081
28.5173
28.9613
29.4124
29.87
30.3335
30.8022
31.2756
31.7529
32.2334
32.7165
33.2014
33.6876
34.1744
34.6612
35.1477
35.6334
36.1181
36.6017
37.0841
37.5656
38.0465
38.5274
39.0089
39.4922
39.9784
40.469
40.9659
41.471
41.9868
42.516
43.0617
43.6272
25.6646
25.2605
24.8722
24.4994
24.1418
23.7992
23.4714
23.1582
22.8596
22.5753
22.3052
22.0495
21.8078
21.5804
21.3673
21.1684
20.9839
20.814
20.6589
20.5187
20.3939
20.2846
20.1914
20.1147
20.0549
20.0129
19.9892
19.9846
19.9999
20.0349
20.0883
20.1595
20.2475
20.3518
20.4717
20.6067
20.7565
20.9204
21.0983
21.2897
21.4944
21.7121
21.9427
22.1858
22.4414
22.7093
22.9893
23.2812
23.585
23.9005
24.2275
24.5658
24.9152
25.2755
25.6465
26.0278
26.4191
26.8202
27.2306
27.6501
28.078
28.514
28.9576
29.4083
29.8654
30.3283
30.7965
31.2693
31.7459
32.2258
32.7081
33.1923
33.6777
34.1638
34.6499
35.1357
35.6207
36.1049
36.588
37.0701
37.5514
38.0323
38.5134
38.9955
39.4796
39.9671
40.4593
40.9583
41.4661
41.9851
42.5181
43.0682
43.6389
25.6649
25.2608
24.8725
24.4997
24.1421
23.7995
23.4717
23.1585
22.8598
22.5755
22.3055
22.0497
21.8081
21.5807
21.3675
21.1686
20.9841
20.8142
20.6591
20.5189
20.3941
20.2848
20.1916
20.1148
20.0551
20.013
19.9893
19.9847
20.0001
20.035
20.0884
20.1595
20.2475
20.3518
20.4717
20.6067
20.7564
20.9203
21.0981
21.2895
21.4942
21.7119
21.9424
22.1854
22.441
22.7088
22.9887
23.2806
23.5843
23.8997
24.2266
24.5648
24.914
25.2742
25.645
26.0261
26.4172
26.818
27.2282
27.6473
28.075
28.5106
28.9538
29.404
29.8606
30.323
30.7906
31.2628
31.7387
32.2179
32.6995
33.1829
33.6676
34.1528
34.6382
35.1233
35.6077
36.0913
36.574
37.0558
37.537
38.018
38.4994
38.9821
39.4672
39.9559
40.45
40.9512
41.4617
41.9841
42.5211
43.0759
43.652
25.6652
25.2611
24.8728
24.5
24.1424
23.7997
23.4719
23.1588
22.8601
22.5758
22.3057
22.0499
21.8083
21.5809
21.3677
21.1688
20.9844
20.8145
20.6593
20.5191
20.3942
20.285
20.1917
20.115
20.0553
20.0132
19.9895
19.9849
20.0002
20.0351
20.0885
20.1596
20.2476
20.3518
20.4717
20.6067
20.7563
20.9202
21.098
21.2893
21.494
21.7116
21.942
22.1851
22.4405
22.7083
22.9881
23.28
23.5836
23.8989
24.2256
24.5637
24.9128
25.2728
25.6434
26.0243
26.4152
26.8158
27.2257
27.6445
28.0718
28.5071
28.9498
29.3996
29.8557
30.3175
30.7845
31.256
31.7313
32.2097
32.6906
33.1733
33.6571
34.1416
34.6263
35.1107
35.5945
36.0775
36.5597
37.0413
37.5224
38.0035
38.4853
38.9688
39.4549
39.9451
40.441
40.9446
41.458
41.9839
42.5251
43.0848
43.6666
25.6655
25.2614
24.8731
24.5003
24.1426
23.8
23.4722
23.159
22.8603
22.576
22.306
22.0502
21.8085
21.5811
21.3679
21.169
20.9846
20.8147
20.6595
20.5193
20.3944
20.2852
20.1919
20.1152
20.0554
20.0134
19.9896
19.985
20.0003
20.0352
20.0886
20.1597
20.2477
20.3519
20.4717
20.6067
20.7563
20.9201
21.0979
21.2892
21.4937
21.7113
21.9417
22.1847
22.4401
22.7078
22.9876
23.2793
23.5828
23.898
24.2247
24.5626
24.9116
25.2714
25.6418
26.0225
26.4132
26.8135
27.2231
27.6416
28.0685
28.5034
28.9458
29.395
29.8506
30.3119
30.7783
31.2491
31.7237
32.2013
32.6814
33.1633
33.6464
34.1301
34.614
35.0977
35.5809
36.0634
36.5453
37.0266
37.5076
37.989
38.4713
38.9555
39.4427
39.9345
40.4324
40.9385
41.4551
41.9847
42.5302
43.095
43.6825
25.6658
25.2617
24.8734
24.5005
24.1429
23.8003
23.4725
23.1593
22.8606
22.5763
22.3062
22.0504
21.8088
21.5813
21.3681
21.1693
20.9848
20.8149
20.6597
20.5195
20.3946
20.2854
20.1921
20.1153
20.0556
20.0135
19.9898
19.9852
20.0005
20.0354
20.0888
20.1598
20.2477
20.3519
20.4717
20.6066
20.7562
20.92
21.0977
21.289
21.4935
21.711
21.9414
22.1843
22.4397
22.7073
22.987
23.2786
23.5821
23.8972
24.2237
24.5615
24.9103
25.27
25.6402
26.0207
26.4111
26.8112
27.2205
27.6386
28.0652
28.4996
28.9415
29.3903
29.8453
30.306
30.7718
31.2419
31.7158
32.1927
32.672
33.1531
33.6354
34.1183
34.6015
35.0845
35.5671
36.0491
36.5306
37.0117
37.4927
37.9743
38.4572
38.9422
39.4307
39.9242
40.4243
40.9331
41.4529
41.9863
42.5364
43.1064
43.7
25.6662
25.2621
24.8737
24.5008
24.1432
23.8006
23.4727
23.1595
22.8608
22.5765
22.3065
22.0506
21.809
21.5816
21.3684
21.1695
20.985
20.8151
20.6599
20.5197
20.3948
20.2856
20.1923
20.1155
20.0558
20.0137
19.9899
19.9853
20.0006
20.0355
20.0889
20.1599
20.2478
20.352
20.4717
20.6066
20.7562
20.9199
21.0976
21.2888
21.4933
21.7107
21.941
22.1839
22.4392
22.7067
22.9864
23.2779
23.5813
23.8963
24.2227
24.5603
24.909
25.2685
25.6385
26.0188
26.409
26.8087
27.2177
27.6355
28.0617
28.4957
28.9372
29.3854
29.8399
30.3
30.7651
31.2345
31.7076
32.1838
32.6623
33.1426
33.6241
34.1062
34.5886
35.071
35.5529
36.0345
36.5156
36.9966
37.4777
37.9596
38.4431
38.9291
39.419
39.9142
40.4166
40.9282
41.4514
41.989
42.5438
43.1192
43.719
25.6665
25.2624
24.874
24.5011
24.1435
23.8008
23.473
23.1598
22.8611
22.5768
22.3067
22.0509
21.8092
21.5818
21.3686
21.1697
20.9852
20.8153
20.6601
20.5199
20.395
20.2857
20.1925
20.1157
20.056
20.0139
19.9901
19.9855
20.0007
20.0356
20.089
20.16
20.2479
20.352
20.4717
20.6066
20.7561
20.9198
21.0974
21.2886
21.493
21.7105
21.9407
22.1835
22.4387
22.7062
22.9857
23.2772
23.5805
23.8953
24.2216
24.5591
24.9077
25.267
25.6368
26.0168
26.4067
26.8062
27.2149
27.6323
28.0581
28.4917
28.9326
29.3803
29.8342
30.2937
30.7581
31.2268
31.6992
32.1746
32.6523
33.1318
33.6124
34.0938
34.5755
35.0571
35.5386
36.0196
36.5005
36.9814
37.4626
37.9449
38.4291
38.9162
39.4075
39.9047
40.4095
40.9241
41.4509
41.9926
42.5523
43.1334
43.7395
25.6668
25.2627
24.8743
24.5014
24.1438
23.8011
23.4733
23.1601
22.8614
22.577
22.307
22.0511
21.8095
21.582
21.3688
21.1699
20.9854
20.8155
20.6603
20.5201
20.3952
20.2859
20.1927
20.1159
20.0561
20.014
19.9903
19.9856
20.0009
20.0357
20.0891
20.1601
20.2479
20.352
20.4717
20.6066
20.756
20.9197
21.0973
21.2884
21.4928
21.7102
21.9403
22.1831
22.4382
22.7056
22.9851
23.2765
23.5797
23.8944
24.2206
24.5579
24.9063
25.2654
25.635
26.0148
26.4044
26.8036
27.212
27.629
28.0544
28.4875
28.928
29.3751
29.8284
30.2872
30.751
31.2189
31.6905
32.1651
32.642
33.1206
33.6005
34.0811
34.5621
35.043
35.5239
36.0046
36.4852
36.966
37.4474
37.9302
38.4151
38.9034
39.3963
39.8955
40.4029
40.9206
41.4511
41.9973
42.5621
43.1489
43.7616
27.447
26.9768
26.5237
26.0873
25.6671
25.263
24.8746
24.5017
24.1441
23.8014
23.4736
23.1603
22.8616
22.5773
22.3072
22.0514
21.8097
21.5823
21.3691
21.1701
20.9856
20.8157
20.6605
20.5203
20.3954
20.2861
20.1929
20.1161
20.0563
20.0142
19.9904
19.9858
20.001
20.0359
20.0892
20.1602
20.248
20.3521
20.4718
20.6065
20.756
20.9196
21.0971
21.2882
21.4925
21.7099
21.94
22.1827
22.4378
22.7051
22.9845
23.2758
23.5788
23.8934
24.2195
24.5567
24.9049
25.2638
25.6331
26.0127
26.4021
26.801
27.2089
27.6256
28.0506
28.4832
28.9231
29.3697
29.8224
30.2806
30.7436
31.2108
31.6816
32.1553
32.6314
33.1092
33.5883
34.0681
34.5483
35.0287
35.509
35.9893
36.4696
36.9504
37.4321
37.9155
38.4013
38.8908
39.3855
39.8868
40.3969
40.9179
41.4523
42.003
42.573
43.1659
43.7853
27.4474
26.9772
26.524
26.0876
25.6674
25.2633
24.8749
24.502
24.1444
23.8017
23.4738
23.1606
22.8619
22.5775
22.3075
22.0516
21.81
21.5825
21.3693
21.1704
20.9859
20.8159
20.6607
20.5206
20.3956
20.2863
20.1931
20.1163
20.0565
20.0144
19.9906
19.9859
20.0012
20.036
20.0893
20.1603
20.2481
20.3521
20.4718
20.6065
20.7559
20.9195
21.097
21.288
21.4923
21.7095
21.9396
22.1822
22.4372
22.7045
22.9838
23.275
23.578
23.8925
24.2183
24.5554
24.9034
25.2621
25.6312
26.0105
26.3996
26.7982
27.2058
27.6221
28.0466
28.4788
28.9182
29.3642
29.8162
30.2737
30.736
31.2024
31.6724
32.1453
32.6205
33.0975
33.5757
34.0548
34.5343
35.014
35.4938
35.9737
36.4539
36.9348
37.4168
37.9007
38.3876
38.8785
39.3749
39.8786
40.3916
40.916
41.4545
42.0098
42.5853
43.1843
43.8106
27.4477
26.9775
26.5244
26.0879
25.6678
25.2636
24.8752
24.5023
24.1447
23.802
23.4741
23.1609
22.8622
22.5778
22.3077
22.0519
21.8102
21.5827
21.3695
21.1706
20.9861
20.8162
20.661
20.5208
20.3958
20.2865
20.1933
20.1165
20.0567
20.0146
19.9908
19.9861
20.0013
20.0361
20.0894
20.1603
20.2481
20.3522
20.4718
20.6065
20.7558
20.9194
21.0968
21.2878
21.492
21.7092
21.9392
22.1818
22.4367
22.7039
22.9831
23.2742
23.5771
23.8914
24.2172
24.5541
24.9019
25.2604
25.6293
26.0083
26.3971
26.7953
27.2026
27.6185
28.0425
28.4742
28.913
29.3584
29.8098
30.2666
30.7281
31.1938
31.6629
32.135
32.6094
33.0855
33.5629
34.0412
34.52
34.9991
35.4784
35.958
36.4381
36.919
37.4015
37.8861
38.374
38.8664
39.3648
39.8709
40.3869
40.9149
41.4575
42.0178
42.5988
43.2041
43.8374
28.9655
28.4415
27.9359
27.4481
26.9779
26.5247
26.0882
25.6681
25.2639
24.8756
24.5026
24.145
23.8023
23.4744
23.1612
22.8624
22.5781
22.308
22.0521
21.8105
21.583
21.3698
21.1708
20.9863
20.8164
20.6612
20.521
20.396
20.2867
20.1935
20.1167
20.0569
20.0147
19.9909
19.9862
20.0015
20.0363
20.0895
20.1604
20.2482
20.3522
20.4718
20.6065
20.7558
20.9193
21.0967
21.2876
21.4918
21.7089
21.9388
22.1813
22.4362
22.7033
22.9824
23.2734
23.5762
23.8904
24.216
24.5527
24.9003
25.2586
25.6273
26.006
26.3945
26.7924
27.1993
27.6147
28.0383
28.4694
28.9077
29.3525
29.8032
30.2592
30.72
31.1848
31.6532
32.1244
32.5979
33.0732
33.5498
34.0272
34.5053
34.9839
35.4627
35.9421
36.4221
36.9032
37.3861
37.8715
38.3606
38.8546
39.3551
39.8638
40.3828
40.9146
41.4616
42.0269
42.6136
43.2253
43.8658
28.9659
28.4419
27.9362
27.4485
26.9782
26.525
26.0886
25.6684
25.2643
24.8759
24.5029
24.1453
23.8026
23.4747
23.1614
22.8627
22.5783
22.3082
22.0524
21.8107
21.5832
21.37
21.1711
20.9866
20.8166
20.6614
20.5212
20.3963
20.2869
20.1937
20.1169
20.0571
20.0149
19.9911
19.9864
20.0016
20.0364
20.0897
20.1605
20.2483
20.3522
20.4718
20.6064
20.7557
20.9192
21.0965
21.2874
21.4915
21.7086
21.9384
22.1809
22.4357
22.7027
22.9817
23.2726
23.5752
23.8893
24.2148
24.5513
24.8987
25.2568
25.6252
26.0037
26.3918
26.7894
27.1958
27.6109
28.0339
28.4645
28.9022
29.3463
29.7963
30.2516
30.7116
31.1757
31.6432
32.1135
32.5861
33.0605
33.5363
34.013
34.4904
34.9684
35.4469
35.9259
36.4059
36.8873
37.3707
37.8571
38.3474
38.8431
39.3457
39.8572
40.3795
40.9151
41.4667
42.0371
42.6297
43.248
43.8958
28.9663
28.4423
27.9366
27.4488
26.9786
26.5254
26.0889
25.6687
25.2646
24.8762
24.5033
24.1456
23.8029
23.475
23.1617
22.863
22.5786
22.3085
22.0526
21.811
21.5835
21.3702
21.1713
20.9868
20.8168
20.6616
20.5214
20.3965
20.2872
20.1939
20.1171
20.0573
20.0151
19.9913
19.9866
20.0018
20.0365
20.0898
20.1606
20.2484
20.3523
20.4718
20.6064
20.7556
20.9191
21.0963
21.2872
21.4912
21.7083
21.9381
22.1804
22.4351
22.7021
22.981
23.2718
23.5743
23.8882
24.2135
24.5499
24.8971
25.2549
25.6231
26.0012
26.3891
26.7862
27.1923
27.6069
28.0294
28.4595
28.8965
29.34
29.7893
30.2438
30.703
31.1662
31.6328
32.1023
32.5741
33.0476
33.5226
33.9985
34.4753
34.9527
35.4308
35.9096
36.3897
36.8714
37.3554
37.8427
38.3344
38.8319
39.3369
39.8512
40.3769
40.9165
41.4728
42.0485
42.6471
43.2721
43.9273
28.9667
28.4426
27.937
27.4492
26.9789
26.5257
26.0892
25.669
25.2649
24.8765
24.5036
24.1459
23.8032
23.4753
23.162
22.8632
22.5789
22.3088
22.0529
21.8112
21.5837
21.3705
21.1715
20.987
20.8171
20.6618
20.5216
20.3967
20.2874
20.1941
20.1173
20.0575
20.0153
19.9915
19.9867
20.0019
20.0367
20.0899
20.1607
20.2484
20.3523
20.4718
20.6064
20.7556
20.9189
21.0962
21.2869
21.4909
21.7079
21.9377
22.1799
22.4346
22.7014
22.9803
23.2709
23.5733
23.8871
24.2122
24.5484
24.8954
25.253
25.6209
25.9987
26.3862
26.783
27.1887
27.6027
28.0248
28.4543
28.8907
29.3335
29.782
30.2358
30.6942
31.1565
31.6222
32.0908
32.5617
33.0344
33.5085
33.9837
34.4598
34.9367
35.4145
35.8932
36.3733
36.8554
37.3401
37.8285
38.3217
38.8211
39.3285
39.8458
40.3751
40.9188
41.4798
42.0611
42.6658
43.2976
43.9603
28.9672
28.443
27.9373
27.4496
26.9793
26.5261
26.0895
25.6694
25.2652
24.8768
24.5039
24.1462
23.8035
23.4756
23.1623
22.8635
22.5791
22.309
22.0531
21.8115
21.584
21.3707
21.1718
20.9873
20.8173
20.6621
20.5219
20.3969
20.2876
20.1943
20.1175
20.0577
20.0155
19.9916
19.9869
20.0021
20.0368
20.09
20.1608
20.2485
20.3524
20.4718
20.6063
20.7555
20.9188
21.096
21.2867
21.4907
21.7076
21.9372
22.1795
22.434
22.7008
22.9795
23.2701
23.5723
23.886
24.2109
24.5469
24.8937
25.251
25.6186
25.9962
26.3833
26.7797
27.1849
27.5985
28.02
28.4489
28.8847
29.3267
29.7746
30.2275
30.6851
31.1465
31.6114
32.079
32.549
33.0209
33.4942
33.9687
34.4442
34.9206
35.398
35.8766
36.3569
36.8394
37.3249
37.8145
38.3092
38.8107
39.3207
39.841
40.374
40.922
41.488
42.0748
42.6857
43.3245
43.9948
28.9676
28.4434
27.9377
27.4499
26.9796
26.5264
26.0899
25.6697
25.2655
24.8771
24.5042
24.1465
23.8038
23.4758
23.1626
22.8638
22.5794
22.3093
22.0534
21.8117
21.5842
21.371
21.172
20.9875
20.8175
20.6623
20.5221
20.3971
20.2878
20.1945
20.1177
20.0579
20.0157
19.9918
19.9871
20.0022
20.037
20.0901
20.1609
20.2486
20.3524
20.4718
20.6063
20.7554
20.9187
21.0958
21.2865
21.4904
21.7072
21.9368
22.179
22.4335
22.7001
22.9787
23.2692
23.5713
23.8848
24.2096
24.5454
24.8919
25.249
25.6163
25.9935
26.3803
26.7763
27.181
27.5941
28.015
28.4433
28.8784
29.3198
29.7669
30.219
30.6757
31.1363
31.6002
32.067
32.5361
33.007
33.4796
33.9533
34.4282
34.9042
35.3813
35.8599
36.3404
36.8234
37.3098
37.8006
38.2971
38.8008
39.3134
39.8369
40.3737
40.9261
41.4971
42.0896
42.7069
43.3526
44.0306
28.968
28.4438
27.9381
27.4503
26.98
26.5267
26.0902
25.67
25.2659
24.8774
24.5045
24.1468
23.804
23.4761
23.1629
22.8641
22.5797
22.3096
22.0537
21.812
21.5845
21.3712
21.1723
20.9877
20.8178
20.6625
20.5223
20.3974
20.288
20.1947
20.1179
20.0581
20.0159
19.992
19.9873
20.0024
20.0371
20.0903
20.161
20.2486
20.3524
20.4718
20.6063
20.7553
20.9186
21.0957
21.2863
21.4901
21.7069
21.9364
22.1785
22.4329
22.6994
22.978
23.2683
23.5702
23.8836
24.2082
24.5438
24.8901
25.2469
25.6139
25.9908
26.3772
26.7728
27.1771
27.5896
28.01
28.4376
28.872
29.3127
29.7589
30.2103
30.6661
31.1257
31.5888
32.0546
32.5228
32.9929
33.4646
33.9377
34.412
34.8876
35.3645
35.8431
36.3239
36.8075
37.2949
37.787
38.2853
38.7912
39.3066
39.8335
40.3742
40.9312
41.5073
42.1055
42.7293
43.3821
44.0678
28.9684
28.4442
27.9384
27.4506
26.9803
26.5271
26.0905
25.6703
25.2662
24.8778
24.5048
24.1471
23.8043
23.4764
23.1631
22.8644
22.5799
22.3098
22.0539
21.8122
21.5847
21.3715
21.1725
20.988
20.818
20.6628
20.5225
20.3976
20.2882
20.1949
20.1181
20.0583
20.0161
19.9922
19.9874
20.0026
20.0372
20.0904
20.1611
20.2487
20.3525
20.4718
20.6062
20.7553
20.9185
21.0955
21.286
21.4898
21.7065
21.936
22.178
22.4323
22.6988
22.9772
23.2674
23.5692
23.8824
24.2068
24.5422
24.8883
25.2448
25.6115
25.988
26.3741
26.7692
27.173
27.585
28.0047
28.4317
28.8655
29.3053
29.7508
30.2013
30.6562
31.115
31.5771
32.042
32.5093
32.9785
33.4495
33.9219
34.3956
34.8708
35.3475
35.8262
36.3074
36.7916
37.28
37.7736
38.2738
38.7821
39.3004
39.8308
40.3755
40.9371
41.5185
42.1226
42.7529
43.4128
44.1062
28.9688
28.4446
27.9388
27.451
26.9806
26.5274
26.0908
25.6707
25.2665
24.8781
24.5051
24.1474
23.8046
23.4767
23.1634
22.8646
22.5802
22.3101
22.0542
21.8125
21.585
21.3717
21.1728
20.9882
20.8182
20.663
20.5228
20.3978
20.2885
20.1951
20.1183
20.0585
20.0163
19.9924
19.9876
20.0027
20.0374
20.0905
20.1612
20.2488
20.3525
20.4718
20.6062
20.7552
20.9183
21.0953
21.2858
21.4895
21.7062
21.9356
22.1775
22.4317
22.6981
22.9764
23.2665
23.5681
23.8812
24.2054
24.5405
24.8864
25.2426
25.609
25.9852
26.3708
26.7655
27.1687
27.5802
27.9994
28.4257
28.8587
29.2978
29.7424
30.192
30.646
31.1039
31.5651
32.0291
32.4954
32.9639
33.434
33.9058
34.379
34.8538
35.3305
35.8093
36.2908
36.7759
37.2654
37.7605
38.2627
38.7735
39.2948
39.8287
40.3776
40.9439
41.5306
42.1407
42.7776
43.4446
44.1458
28.9692
28.4449
27.9391
27.4513
26.981
26.5277
26.0912
25.671
25.2668
24.8784
24.5054
24.1477
23.8049
23.477
23.1637
22.8649
22.5805
22.3104
22.0545
21.8128
21.5852
21.372
21.173
20.9885
20.8185
20.6632
20.523
20.398
20.2887
20.1954
20.1185
20.0587
20.0165
19.9926
19.9878
20.0029
20.0376
20.0907
20.1613
20.2489
20.3526
20.4718
20.6062
20.7551
20.9182
21.0952
21.2856
21.4892
21.7058
21.9351
22.177
22.4311
22.6974
22.9756
23.2655
23.567
23.8799
24.2039
24.5389
24.8844
25.2404
25.6065
25.9823
26.3675
26.7616
27.1644
27.5753
27.9938
28.4195
28.8517
29.29
29.7338
30.1826
30.6357
31.0926
31.5528
32.0158
32.4813
32.9489
33.4183
33.8894
34.3622
34.8367
35.3133
35.7923
36.2743
36.7602
37.2509
37.7477
38.2519
38.7653
39.2898
39.8273
40.3804
40.9516
41.5438
42.1599
42.8033
43.4776
44.1865
28.9695
28.4453
27.9395
27.4516
26.9813
26.528
26.0915
25.6713
25.2671
24.8787
24.5057
24.148
23.8052
23.4773
23.164
22.8652
22.5808
22.3106
22.0547
21.813
21.5855
21.3722
21.1733
20.9887
20.8187
20.6635
20.5232
20.3983
20.2889
20.1956
20.1187
20.0589
20.0167
19.9928
19.988
20.0031
20.0377
20.0908
20.1615
20.249
20.3526
20.4719
20.6062
20.755
20.9181
21.095
21.2854
21.4889
21.7055
21.9347
22.1765
22.4305
22.6967
22.9748
23.2646
23.5659
23.8786
24.2024
24.5371
24.8825
25.2381
25.6038
25.9793
26.364
26.7577
27.16
27.5703
27.9881
28.4131
28.8446
29.2821
29.725
30.1729
30.625
31.081
31.5402
32.0024
32.467
32.9337
33.4024
33.8729
34.3452
34.8195
35.296
35.7752
36.2578
36.7446
37.2366
37.7351
38.2416
38.7577
39.2853
39.8267
40.3841
40.9602
41.5578
42.18
42.8301
43.5116
44.2283
28.9699
28.4457
27.9398
27.452
26.9816
26.5284
26.0918
25.6716
25.2674
24.879
24.506
24.1483
23.8055
23.4776
23.1643
22.8655
22.5811
22.3109
22.055
21.8133
21.5858
21.3725
21.1735
20.989
20.819
20.6637
20.5235
20.3985
20.2892
20.1958
20.119
20.0591
20.0169
19.993
19.9882
20.0033
20.0379
20.0909
20.1616
20.249
20.3527
20.4719
20.6061
20.755
20.918
21.0948
21.2851
21.4887
21.7051
21.9343
22.176
22.4299
22.696
22.9739
23.2636
23.5648
23.8773
24.2009
24.5354
24.8805
25.2358
25.6012
25.9762
26.3605
26.7537
27.1554
27.5651
27.9823
28.4065
28.8373
29.2739
29.716
30.1629
30.6141
31.0691
31.5274
31.9886
32.4523
32.9183
33.3862
33.8561
34.328
34.8021
35.2786
35.7582
36.2414
36.7292
37.2226
37.7229
38.2317
38.7506
39.2815
39.8267
40.3886
40.9697
41.5728
42.2011
42.8579
43.5466
44.2709
28.9703
28.446
27.9402
27.4523
26.9819
26.5287
26.0921
25.6719
25.2677
24.8793
24.5063
24.1486
23.8058
23.4779
23.1646
22.8658
22.5813
22.3112
22.0553
21.8135
21.586
21.3727
21.1738
20.9892
20.8192
20.664
20.5237
20.3988
20.2894
20.1961
20.1192
20.0593
20.0171
19.9932
19.9884
20.0034
20.038
20.0911
20.1617
20.2491
20.3527
20.4719
20.6061
20.7549
20.9179
21.0947
21.2849
21.4884
21.7048
21.9339
22.1755
22.4293
22.6953
22.9731
23.2627
23.5637
23.876
24.1994
24.5336
24.8784
25.2334
25.5984
25.9731
26.3569
26.7496
27.1507
27.5598
27.9763
28.3998
28.8298
29.2656
29.7068
30.1528
30.603
31.0571
31.5144
31.9747
32.4375
32.9026
33.3699
33.8392
34.3107
34.7846
35.2612
35.7411
36.2251
36.7139
37.2088
37.711
38.2222
38.744
39.2783
39.8275
40.3938
40.9799
41.5887
42.2231
42.8865
43.5824
44.3144
28.9706
28.4463
27.9405
27.4526
26.9823
26.529
26.0924
25.6722
25.268
24.8796
24.5066
24.1489
23.8061
23.4782
23.1649
22.866
22.5816
22.3115
22.0555
21.8138
21.5863
21.373
21.174
20.9895
20.8195
20.6642
20.524
20.399
20.2896
20.1963
20.1194
20.0596
20.0173
19.9934
19.9886
20.0036
20.0382
20.0912
20.1618
20.2492
20.3528
20.4719
20.6061
20.7549
20.9178
21.0945
21.2847
21.4881
21.7045
21.9335
22.175
22.4288
22.6946
22.9723
23.2617
23.5626
23.8747
24.1979
24.5318
24.8763
25.231
25.5957
25.9699
26.3532
26.7454
27.1459
27.5544
27.9702
28.393
28.8221
29.257
29.6973
30.1424
30.5917
31.0447
31.5011
31.9604
32.4224
32.8867
33.3533
33.8221
34.2932
34.767
35.2438
35.7241
36.2088
36.6988
37.1953
37.6995
38.2131
38.7379
39.2757
39.8289
40.3998
40.991
41.6054
42.246
42.916
43.619
44.3585
28.9709
28.4467
27.9408
27.4529
26.9826
26.5293
26.0927
25.6725
25.2683
24.8799
24.5069
24.1492
23.8064
23.4784
23.1651
22.8663
22.5819
22.3117
22.0558
21.8141
21.5865
21.3733
21.1743
20.9897
20.8197
20.6645
20.5242
20.3992
20.2899
20.1965
20.1197
20.0598
20.0176
19.9936
19.9888
20.0038
20.0384
20.0914
20.162
20.2493
20.3529
20.472
20.6061
20.7548
20.9177
21.0944
21.2845
21.4879
21.7041
21.9331
22.1745
22.4282
22.6939
22.9715
23.2607
23.5615
23.8734
24.1963
24.53
24.8742
25.2286
25.5928
25.9666
26.3495
26.7411
27.141
27.5488
27.9639
28.3859
28.8142
29.2483
29.6877
30.1318
30.5801
31.0322
31.4876
31.946
32.4071
32.8706
33.3365
33.8048
34.2757
34.7493
35.2263
35.7072
36.1927
36.684
37.1821
37.6884
38.2046
38.7323
39.2737
39.831
40.4065
41.0028
41.6228
42.2696
42.9463
43.6563
44.4033
28.9713
28.447
27.9411
27.4532
26.9829
26.5296
26.093
25.6728
25.2686
24.8802
24.5072
24.1494
23.8067
23.4787
23.1654
22.8666
22.5821
22.312
22.0561
21.8143
21.5868
21.3735
21.1745
20.99
20.82
20.6647
20.5245
20.3995
20.2901
20.1968
20.1199
20.06
20.0178
19.9939
19.989
20.004
20.0386
20.0915
20.1621
20.2495
20.353
20.472
20.6061
20.7548
20.9176
21.0943
21.2844
21.4876
21.7038
21.9327
22.174
22.4276
22.6932
22.9707
23.2598
23.5603
23.8721
24.1948
24.5282
24.8721
25.2261
25.5899
25.9632
26.3456
26.7367
27.136
27.5431
27.9575
28.3787
28.8061
29.2394
29.6778
30.1209
30.5683
31.0195
31.4739
31.9314
32.3916
32.8543
33.3196
33.7874
34.258
34.7317
35.2089
35.6903
36.1768
36.6693
37.1691
37.6776
38.1964
38.7274
39.2724
39.8338
40.4139
41.0154
41.6411
42.2939
42.9772
43.6942
44.4486
29.5148
28.9716
28.4473
27.9414
27.4535
26.9831
26.5299
26.0933
25.6731
25.2689
24.8805
24.5075
24.1497
23.807
23.479
23.1657
22.8669
22.5824
22.3123
22.0563
21.8146
21.5871
21.3738
21.1748
20.9902
20.8202
20.665
20.5247
20.3997
20.2904
20.197
20.1202
20.0603
20.018
19.9941
19.9892
20.0042
20.0388
20.0917
20.1622
20.2496
20.3531
20.4721
20.6062
20.7548
20.9176
21.0941
21.2842
21.4874
21.7035
21.9323
22.1736
22.4271
22.6926
22.9699
23.2588
23.5592
23.8707
24.1932
24.5264
24.8699
25.2236
25.587
25.9598
26.3417
26.7322
27.1309
27.5373
27.9509
28.3713
28.7979
29.2302
29.6676
30.1098
30.5562
31.0065
31.4602
31.9167
32.376
32.8379
33.3025
33.7699
34.2403
34.714
35.1915
35.6736
36.161
36.6549
37.1566
37.6673
38.1888
38.7229
39.2716
39.8372
40.422
41.0287
41.66
42.319
43.0088
43.7327
44.4944
29.5151
28.9719
28.4476
27.9417
27.4538
26.9834
26.5301
26.0936
25.6733
25.2692
24.8807
24.5078
24.15
23.8072
23.4793
23.166
22.8671
22.5827
22.3125
22.0566
21.8149
21.5873
21.374
21.1751
20.9905
20.8205
20.6652
20.525
20.4
20.2906
20.1973
20.1204
20.0605
20.0183
19.9943
19.9895
20.0044
20.039
20.0919
20.1624
20.2497
20.3532
20.4722
20.6062
20.7548
20.9175
21.0941
21.2841
21.4872
21.7033
21.932
22.1732
22.4265
22.6919
22.9691
23.2579
23.5581
23.8694
24.1916
24.5245
24.8677
25.221
25.584
25.9564
26.3377
26.7276
27.1257
27.5313
27.9442
28.3637
28.7894
29.2207
29.6571
30.0983
30.5439
30.9935
31.4464
31.9021
32.3604
32.8215
33.2855
33.7524
34.2225
34.6963
35.1742
35.657
36.1455
36.6409
37.1444
37.6574
38.1817
38.7191
39.2715
39.8413
40.4308
41.0427
41.6796
42.3447
43.0409
43.7717
44.5405
29.5153
28.9721
28.4478
27.942
27.4541
26.9837
26.5304
26.0938
25.6736
25.2694
24.881
24.508
24.1503
23.8075
23.4796
23.1662
22.8674
22.583
22.3128
22.0569
21.8151
21.5876
21.3743
21.1753
20.9908
20.8207
20.6655
20.5252
20.4003
20.2909
20.1975
20.1207
20.0608
20.0185
19.9946
19.9897
20.0047
20.0392
20.0921
20.1626
20.2499
20.3533
20.4723
20.6063
20.7548
20.9175
21.094
21.2839
21.487
21.703
21.9317
22.1728
22.426
22.6913
22.9684
23.257
23.557
23.8681
24.19
24.5226
24.8655
25.2184
25.581
25.9529
26.3337
26.723
27.1203
27.5252
27.9373
28.3559
28.7805
29.2107
29.6461
30.0866
30.5315
30.9804
31.4326
31.8876
32.3451
32.8052
33.2684
33.7349
34.2049
34.6787
35.157
35.6405
36.1302
36.6271
37.1325
37.648
38.1751
38.7158
39.272
39.8461
40.4403
41.0574
41.6999
42.3709
43.0735
43.811
29.5156
28.9724
28.4481
27.9423
27.4543
26.984
26.5307
26.0941
25.6739
25.2697
24.8813
24.5083
24.1505
23.8078
23.4798
23.1665
22.8677
22.5832
22.3131
22.0571
21.8154
21.5879
21.3746
21.1756
20.991
20.821
20.6658
20.5255
20.4005
20.2912
20.1978
20.1209
20.061
20.0188
19.9948
19.9899
20.0049
20.0394