/*--------------------------------*- C++ -*----------------------------------*\
  =========                 |
  \\      /  F ield         | OpenFOAM: The Open Source CFD Toolbox
   \\    /   O peration     | Website:  https://openfoam.org
    \\  /    A nd           | Version:  10
     \\/     M anipulation  |
\*---------------------------------------------------------------------------*/
FoamFile
{
    format      ascii;
    class       volScalarField;
    location    "46000";
    object      Co;
}
// * * * * * * * * * * * * * * * * * * * * * * * * * * * * * * * * * * * * * //

dimensions      [0 0 0 0 0 0 0];

internalField   nonuniform List<scalar> 
17981
(
239.469
241.91
244.28
246.578
248.814
250.997
253.135
255.237
257.31
259.361
261.397
263.423
265.446
267.469
269.498
271.537
273.589
275.658
277.748
279.861
282
284.168
286.367
288.6
290.869
293.176
295.524
297.915
300.351
302.833
305.364
307.947
310.582
313.273
316.022
318.83
321.699
324.633
327.633
330.701
333.841
337.053
340.342
343.709
347.157
350.688
354.306
358.013
250.167
252.469
254.69
256.84
258.93
260.97
262.97
264.939
266.885
268.815
270.738
272.659
274.585
276.519
278.468
280.435
282.424
284.438
286.481
288.555
290.663
292.807
294.991
297.215
299.482
301.795
304.155
306.564
309.024
311.537
314.105
316.73
319.413
322.158
324.966
327.838
330.778
333.786
336.866
340.02
343.25
346.559
349.948
353.42
356.979
360.626
364.364
368.197
259.838
261.946
263.972
265.928
267.826
269.678
271.494
273.284
275.058
276.825
278.592
280.365
282.152
283.957
285.785
287.64
289.526
291.446
293.404
295.401
297.44
299.523
301.652
303.83
306.057
308.336
310.669
313.057
315.502
318.006
320.569
323.195
325.885
328.64
331.463
334.355
337.319
340.355
343.468
346.658
349.927
353.28
356.716
360.239
363.852
367.557
371.357
375.255
275.462
277.079
278.666
280.232
281.791
283.349
284.917
286.502
288.109
289.745
291.413
293.119
294.865
296.655
298.491
300.375
302.31
304.297
306.337
308.433
310.586
312.797
315.067
317.398
319.791
322.248
324.77
327.358
330.015
332.741
335.538
338.408
341.352
344.373
347.472
350.652
353.914
357.261
360.694
364.216
367.83
371.538
375.342
379.246
281.748
283.078
284.382
285.674
286.966
288.269
289.591
290.942
292.327
293.752
295.221
296.739
298.308
299.932
301.611
303.348
305.145
307.002
308.921
310.902
312.947
315.056
317.23
319.471
321.779
324.156
326.601
329.117
331.704
334.363
337.097
339.906
342.792
345.757
348.801
351.928
355.138
358.433
361.817
365.29
368.855
372.515
376.271
380.127
286.587
287.569
288.533
289.495
290.469
291.466
292.496
293.569
294.691
295.866
297.101
298.396
299.756
301.182
302.675
304.236
305.866
307.565
309.334
311.174
313.083
315.064
317.115
319.238
321.433
323.699
326.039
328.452
330.939
333.501
336.139
338.854
341.646
344.519
347.472
350.507
353.626
356.83
360.121
363.502
366.974
370.538
374.199
377.957
290.36
290.921
291.494
292.096
292.739
293.435
294.19
295.013
295.906
296.875
297.92
299.045
300.248
301.531
302.894
304.336
305.857
307.456
309.133
310.888
312.719
314.626
316.609
318.669
320.804
323.014
325.301
327.663
330.102
332.618
335.212
337.883
340.634
343.465
346.377
349.371
352.45
355.614
358.865
362.204
365.634
369.156
372.774
291.414
291.601
291.854
292.182
292.593
293.094
293.686
294.372
295.152
296.028
296.997
298.06
299.214
300.459
301.791
303.211
304.716
306.305
307.977
309.729
311.562
313.473
315.463
317.531
319.676
321.897
324.195
326.57
329.022
331.551
334.158
336.843
339.608
342.452
345.377
348.385
351.476
354.651
357.913
361.263
364.703
288.689
288.537
288.488
288.549
288.724
289.013
289.416
289.934
290.562
291.3
292.145
293.093
294.141
295.287
296.528
297.862
299.284
300.794
302.39
304.068
305.828
307.667
309.586
311.582
313.655
315.804
318.029
320.329
322.704
325.155
327.681
330.282
332.959
335.713
338.545
341.455
344.444
347.514
350.666
353.902
282.149
281.879
281.747
281.754
281.896
282.169
282.571
283.096
283.74
284.499
285.368
286.342
287.418
288.591
289.859
291.218
292.665
294.198
295.813
297.509
299.285
301.137
303.065
305.067
307.142
309.289
311.507
313.797
316.157
318.588
321.09
323.663
326.307
329.023
331.811
334.673
337.61
340.622
271.814
271.884
272.096
272.446
272.925
273.528
274.25
275.083
276.023
277.066
278.205
279.438
280.759
282.167
283.656
285.225
286.87
288.59
290.381
292.244
294.175
296.174
298.239
300.37
302.566
304.827
307.152
309.541
311.993
314.51
317.092
319.738
322.451
325.229
259.24
259.155
259.225
259.442
259.799
260.286
260.896
261.623
262.461
263.402
264.441
265.574
266.795
268.1
269.486
270.948
272.483
274.09
275.764
277.505
279.309
281.174
283.101
285.086
287.129
289.23
291.387
293.599
295.867
298.19
300.568
303.002
305.491
308.036
244.377
244.198
244.184
244.324
244.609
245.03
245.577
246.242
247.019
247.899
248.877
249.946
251.102
252.339
253.653
255.039
256.495
258.016
259.599
261.242
262.942
264.697
266.505
268.364
270.273
272.231
274.235
276.286
278.383
280.525
282.712
284.943
287.218
289.538
227.511
227.309
227.278
227.406
227.681
228.093
228.631
229.288
230.054
230.921
231.883
232.933
234.064
235.272
236.552
237.898
239.306
240.773
242.295
243.869
245.493
247.163
248.877
250.633
252.43
254.265
256.138
258.046
259.99
261.968
263.979
266.023
268.1
270.208
208.87
208.893
209.075
209.404
209.868
210.457
211.159
211.968
212.873
213.867
214.943
216.095
217.316
218.602
219.946
221.345
222.793
224.289
225.827
227.405
229.019
230.668
232.349
234.06
235.799
237.564
239.354
241.168
243.003
244.86
246.737
248.634
250.551
189.348
189.495
189.799
190.245
190.823
191.521
192.327
193.232
194.228
195.305
196.456
197.674
198.952
200.285
201.668
203.094
204.561
206.064
207.599
209.162
210.752
212.365
213.998
215.65
217.317
218.999
220.694
222.4
224.115
225.839
227.569
229.307
231.05
169.257
169.589
170.074
170.697
171.447
172.311
173.278
174.336
175.475
176.686
177.96
179.29
180.669
182.091
183.55
185.042
186.561
188.105
189.668
191.248
192.841
194.445
196.057
197.675
199.297
200.92
202.542
204.163
205.78
207.393
208.998
210.597
212.187
149.75
150.469
151.322
152.297
153.379
154.555
155.813
157.14
158.526
159.963
161.442
162.956
164.5
166.067
167.653
169.253
170.864
172.481
174.102
175.724
177.344
178.959
180.567
182.166
183.753
187.601
193.705
199.647
205.416
211.015
216.449
221.72
130.505
131.473
132.573
133.798
135.135
136.568
138.076
139.639
141.241
142.874
144.532
146.209
147.898
149.596
151.297
152.999
154.698
156.391
159.736
166.186
173.985
181.591
189.008
196.235
203.276
210.133
216.808
223.304
229.626
235.776
241.76
247.58
112.192
113.409
114.745
116.196
117.754
119.407
121.14
122.933
124.774
126.65
128.54
130.429
132.309
134.273
139.952
149.259
158.379
167.31
176.051
184.599
192.954
201.117
209.087
216.867
224.457
231.861
239.08
246.117
252.977
259.664
266.18
272.531
94.7841
96.314
97.9409
99.6615
101.469
103.354
105.305
107.314
109.374
111.474
115.827
124.349
134.699
144.865
154.858
164.677
174.318
183.776
193.046
202.127
211.016
219.712
228.214
236.524
244.642
252.57
260.311
267.868
275.243
282.441
289.466
296.323
78.492
80.3911
82.3757
84.4436
86.5875
88.7957
91.0542
94.2344
102.133
113.805
125.225
136.389
147.309
158.007
168.508
178.831
188.981
198.952
208.739
218.338
227.745
236.958
245.977
254.8
263.428
271.862
280.106
288.16
296.03
303.717
311.227
318.565
63.8216
66.1424
68.5317
70.9907
73.5144
76.7956
85.1474
97.8455
110.343
122.615
134.645
146.425
157.951
169.231
180.282
191.134
201.805
212.298
222.608
232.727
242.654
252.383
261.913
271.244
280.375
289.307
298.042
306.582
314.931
323.092
331.069
338.867
51.0387
53.8308
56.6709
59.5643
65.5796
76.847
90.1956
103.416
116.462
129.298
141.902
154.26
166.366
178.225
189.845
201.247
212.456
223.485
234.327
244.976
255.427
265.677
275.722
285.561
295.193
304.619
313.84
322.858
331.677
340.299
348.73
356.974
40.247
43.545
46.8682
53.6523
65.6611
79.4255
93.192
106.883
120.435
133.803
146.952
159.863
172.528
184.946
197.124
209.08
220.835
232.407
243.789
254.975
265.958
276.732
287.296
297.645
307.779
317.698
327.402
336.894
346.176
355.252
364.126
372.803
31.4732
35.2895
41.2907
52.2267
66.0485
80.0637
94.1729
108.278
122.297
136.164
149.834
163.278
176.482
189.444
202.167
214.669
226.974
239.094
251.022
262.751
274.271
285.577
296.664
307.528
318.167
328.581
338.769
348.734
358.476
368.001
377.311
386.413
24.7025
29.028
37.5825
50.8636
64.7131
78.8678
93.2288
107.681
122.118
136.452
150.62
164.581
178.312
191.805
205.067
218.112
230.965
243.638
256.12
268.398
280.464
292.31
303.929
315.316
326.468
337.384
348.062
358.503
368.71
378.684
388.431
397.954
19.8615
25.1227
34.567
48.0014
61.7947
75.9795
90.4891
105.206
120.003
134.765
149.406
163.867
178.114
192.133
205.929
219.517
232.924
246.157
259.199
272.038
284.662
297.06
309.225
321.149
332.828
344.259
355.439
366.369
377.049
387.482
397.671
407.621
16.8231
22.1309
30.8273
43.6889
57.4202
71.5541
86.1093
100.997
116.081
131.223
146.308
161.251
176.003
190.541
204.868
219.004
232.973
246.775
260.391
273.806
287.003
299.972
312.701
325.181
337.406
349.37
361.07
372.505
383.675
394.581
405.227
415.615
21.2115
27.621
37.927
51.6705
65.7452
80.2639
95.2217
110.506
125.966
141.455
156.859
172.104
187.155
202.01
216.697
231.237
245.62
259.825
273.832
287.622
301.182
314.496
327.553
340.345
352.864
365.106
377.067
388.746
400.142
411.26
422.101
21.7435
27.9212
34.3192
44.5678
58.6561
73.1256
88.0717
103.461
119.157
134.996
150.83
166.554
182.111
197.493
212.733
227.852
242.828
257.637
272.254
286.659
300.831
314.753
328.413
341.797
354.895
367.702
380.211
392.419
404.327
415.935
427.245
23.5323
30.1311
36.6577
43.1136
51.8962
64.8115
79.7261
95.1385
110.982
127.099
143.318
159.498
175.553
191.461
207.257
222.962
238.543
253.972
269.22
284.26
299.07
313.628
327.917
341.921
355.627
369.026
382.11
394.874
407.317
419.436
431.235
26.3832
33.3823
40.2934
47.1183
53.8605
60.5244
70.8411
85.7198
101.63
117.943
134.485
151.087
167.627
184.059
200.415
216.712
232.911
248.977
264.876
280.577
296.052
311.276
326.225
340.88
355.226
369.249
382.939
396.288
409.293
421.951
434.263
51.9242
58.996
65.975
72.8677
79.7668
91.2862
107.718
124.51
141.481
158.48
175.431
192.349
209.245
226.074
242.795
259.368
275.756
291.926
307.847
323.491
338.834
353.855
368.538
382.87
396.839
410.439
423.666
436.52
57.3418
64.7199
71.9888
79.1566
86.2324
93.2249
100.868
113.571
130.85
148.269
165.722
183.199
200.697
218.166
235.559
252.829
269.933
286.83
303.484
319.86
335.93
351.668
367.052
382.065
396.693
410.926
424.759
438.186
63.1889
70.8529
78.3903
85.8102
93.123
100.34
107.468
114.487
123.099
137.146
155.075
173.102
191.2
209.316
227.395
245.385
263.233
280.893
298.318
315.469
332.31
348.809
364.94
380.679
396.01
410.919
425.396
439.436
69.2867
77.2197
85.0085
92.663
100.194
107.614
114.936
122.162
129.266
136.218
146.26
162.193
180.885
199.652
218.431
237.162
255.785
274.242
292.48
310.451
328.11
345.419
362.344
378.859
394.94
410.57
425.736
440.43
75.453
83.6376
91.6615
99.5351
107.27
114.88
122.377
129.775
137.074
144.266
151.363
158.396
170.708
189.313
208.804
228.296
247.72
267.009
286.099
304.933
323.457
341.626
359.397
376.738
393.619
410.019
425.92
441.311
81.5184
89.9339
98.1731
106.248
114.171
121.959
129.627
137.192
144.667
152.068
159.409
166.711
173.988
183.071
198.611
218.882
239.133
259.285
279.266
299.007
318.444
337.522
356.192
374.412
392.146
409.366
426.052
442.188
87.3587
95.986
104.423
112.682
120.78
128.734
136.566
144.297
151.949
159.542
167.099
174.639
182.181
189.739
197.323
210.278
230.038
251.089
272.001
292.697
313.1
333.144
352.77
371.927
390.573
408.672
426.199
443.132
92.8866
101.711
110.332
118.765
127.026
135.139
143.127
151.016
158.834
166.608
174.363
182.125
189.914
197.748
205.64
213.599
224.524
242.418
264.307
286.008
307.434
328.506
349.152
369.313
388.935
407.977
426.405
444.195
98.0328
107.041
115.835
124.431
132.847
141.108
149.242
157.279
165.251
173.19
181.128
189.094
197.115
205.212
213.402
221.696
230.1
239.58
256.192
278.951
301.458
323.622
345.357
366.591
387.261
407.315
426.712
445.422
102.747
111.926
120.882
129.63
138.191
146.59
154.858
163.03
171.141
179.23
187.334
195.488
203.725
212.071
220.548
229.171
237.948
246.88
255.964
271.937
295.176
318.499
341.394
363.776
385.569
406.71
427.15
446.848
106.997
116.334
125.44
134.33
143.025
151.552
159.943
168.236
176.471
184.693
192.944
201.268
209.702
218.281
227.033
235.976
245.123
254.477
264.035
273.785
289.792
313.13
337.262
360.871
383.868
406.177
427.737
448.501
112.351
120.251
129.496
138.517
147.336
155.98
164.483
172.884
181.229
189.566
197.945
206.417
215.029
223.822
232.831
242.082
251.593
261.369
271.408
281.7
292.224
308.907
332.943
357.865
382.152
405.716
428.482
450.392
119.552
123.682
133.052
142.195
151.128
159.88
168.483
176.981
185.42
193.855
202.342
210.941
219.707
228.691
237.937
247.48
257.342
267.535
278.06
288.905
300.049
311.464
329.439
354.731
380.403
405.315
429.379
452.524
126.734
126.646
136.129
145.382
154.421
163.271
171.966
180.548
189.068
197.584
206.159
214.861
223.755
232.903
242.361
252.173
262.37
272.971
283.979
295.385
307.168
319.295
331.724
351.551
378.587
404.951
430.414
454.891
132.915
129.176
138.759
148.111
157.246
166.187
174.965
183.622
192.21
200.79
209.433
218.213
227.207
236.489
246.127
256.18
266.688
277.68
289.164
301.135
313.57
326.433
339.679
354.468
376.663
404.589
431.56
457.475
138.104
132.552
140.986
150.426
159.647
168.67
177.523
186.247
194.892
203.523
212.213
221.045
230.108
239.49
249.273
259.529
270.317
281.675
293.621
306.152
319.248
332.871
346.969
361.478
379.23
404.184
432.785
460.253
142.339
137.07
142.864
152.378
161.675
170.772
179.692
188.475
197.168
205.835
214.555
223.415
232.516
241.958
251.843
262.261
273.288
284.977
297.359
310.44
324.199
338.599
353.581
369.072
384.99
406.079
434.047
463.196
145.682
141.196
144.45
154.027
163.388
172.548
181.529
190.363
199.095
207.788
216.52
225.384
234.49
243.954
253.894
264.422
275.637
287.613
300.395
314.002
328.419
343.606
359.501
376.022
393.072
410.641
435.3
466.27
148.234
144.46
145.808
155.434
164.848
174.061
183.092
191.969
200.733
209.442
218.171
227.018
236.098
245.541
255.485
266.066
277.409
289.613
302.748
316.845
331.902
347.881
364.713
382.306
400.551
419.321
441.089
469.44
150.117
146.968
147
156.664
166.117
175.372
184.443
193.355
202.142
210.857
219.571
228.381
237.406
246.788
256.682
267.252
278.651
291.013
304.436
318.975
334.642
351.404
369.19
387.898
407.401
427.553
448.196
474.189
148.849
148.088
157.777
167.258
176.542
185.641
194.577
203.379
212.091
220.78
229.536
238.481
247.762
257.553
268.043
279.419
291.855
305.485
320.398
336.628
354.151
372.899
392.758
413.584
435.208
457.441
481.466
150.239
149.131
158.832
168.33
177.631
186.746
195.694
204.499
213.2
221.853
230.542
239.384
248.53
258.166
268.505
279.772
292.184
305.924
321.124
337.849
356.097
375.801
396.84
419.052
442.239
466.182
490.645
159.884
169.386
178.692
187.811
196.758
205.555
214.233
222.84
231.451
240.172
249.154
258.587
268.707
279.773
292.052
305.787
321.163
338.295
357.207
377.847
400.087
423.745
448.593
474.372
500.803
160.982
170.474
179.774
188.884
197.818
206.592
215.235
223.786
232.307
240.895
249.688
258.88
268.717
279.491
291.522
305.117
320.537
337.957
357.45
378.984
402.432
427.592
454.203
481.959
510.527
171.636
180.916
190.006
198.914
207.653
216.246
224.728
233.149
241.591
250.18
259.1
268.6
278.997
290.66
303.971
319.276
336.837
356.795
379.155
403.802
430.513
458.992
488.877
519.77
172.906
182.152
191.209
200.079
208.77
217.3
225.698
234.007
242.294
250.666
259.291
268.412
278.358
289.539
302.411
317.423
334.947
355.217
378.304
404.114
432.415
462.868
495.049
528.48
174.309
183.507
192.516
201.335
209.966
218.42
226.721
234.904
243.025
251.171
259.487
268.201
277.637
288.231
300.51
315.032
332.306
352.696
376.368
403.277
433.189
465.722
500.382
536.591
184.998
193.945
202.697
211.255
219.622
227.812
235.854
243.796
251.707
259.708
267.998
276.883
286.807
298.348
312.175
328.954
349.222
373.287
401.188
432.708
467.426
504.763
544.025
186.633
195.503
204.174
212.643
220.91
228.979
236.868
244.615
252.28
259.96
267.818
276.13
285.323
296.003
308.933
324.95
344.807
369.014
397.745
430.834
467.83
508.06
550.687
197.192
205.766
214.129
222.279
230.214
237.941
245.483
252.889
260.239
267.664
275.395
283.823
293.546
305.395
320.372
339.484
363.513
392.844
427.416
466.765
510.121
556.471
199.006
207.466
215.707
223.722
231.506
239.057
246.387
253.524
260.535
267.526
274.68
282.331
291.039
301.658
315.325
333.319
356.774
386.389
422.287
464.038
510.766
561.252
200.934
209.262
217.362
225.224
232.838
240.198
247.302
254.165
260.829
267.379
273.963
280.846
288.522
297.81
309.93
326.42
348.831
378.308
415.283
459.431
509.788
564.886
211.14
219.079
226.767
234.19
241.338
248.201
254.778
261.09
267.196
273.211
279.345
285.997
293.911
304.307
318.923
339.765
368.564
406.241
452.705
506.945
567.206
213.078
220.834
228.325
235.535
242.448
249.048
255.325
261.278
266.937
272.385
277.784
283.446
289.991
298.561
310.99
329.707
357.164
395.01
443.594
501.953
568.019
215.056
222.605
229.874
236.844
243.496
249.808
255.762
261.344
266.557
271.443
276.119
280.826
286.05
292.775
302.797
318.858
344.2
381.487
431.825
494.488
567.095
224.368
231.387
238.088
244.449
250.444
256.048
261.237
265.995
270.329
274.303
278.088
282.053
286.985
294.503
307.465
329.859
365.642
417.132
484.18
564.173
226.102
232.84
239.239
245.275
250.92
256.142
260.908
265.189
268.967
272.258
275.159
277.93
281.167
286.207
295.786
314.425
347.55
399.275
470.603
558.935
227.782
234.207
240.27
245.945
251.2
256.001
260.309
264.083
267.285
269.891
271.933
273.57
275.227
277.927
284.049
298.267
327.427
378.075
453.271
550.982
229.377
235.455
241.144
246.416
251.238
255.571
259.374
262.597
265.19
267.103
268.312
268.877
269.067
269.618
272.409
281.801
305.665
353.48
431.643
539.802
230.843
236.539
241.814
246.637
250.973
254.784
258.024
260.641
262.577
263.766
264.154
263.725
262.592
261.21
260.934
265.427
282.835
325.639
405.154
524.724
232.099
237.376
242.194
246.519
250.314
253.541
256.154
258.103
259.325
259.75
259.302
257.914
255.582
252.514
249.551
249.439
259.663
295.019
373.27
504.825
232.989
237.802
242.111
245.88
249.069
251.64
253.551
254.755
255.195
254.804
253.499
251.186
247.777
243.281
238.119
234.074
237.129
262.735
335.75
478.809
233.164
237.44
241.161
244.287
246.779
248.6
249.711
250.072
249.638
248.356
246.155
242.944
238.618
233.089
226.447
219.556
216.438
230.939
293.301
445.173
231.734
235.324
238.291
240.601
242.225
243.134
243.298
242.694
241.295
239.066
235.964
231.935
226.895
220.729
213.323
207.657
198.573
200.628
246.898
402.32
225.934
228.363
230.086
231.106
231.421
231.035
229.959
228.209
225.807
222.751
219.054
214.712
210.151
207.845
205.255
204.797
197.752
184.15
198.886
350.066
204.912
204.62
203.563
201.851
199.587
196.882
193.853
190.621
187.299
183.966
181.83
180.614
180.478
184.212
189.541
196.34
203.088
196.142
174.268
292.829
103.292
97.9022
92.7236
87.9076
83.5825
79.8735
76.9082
74.8202
73.7554
73.8826
76.5419
81.6485
89.2736
100.208
115.53
136.485
165.083
196.976
204.848
210.51
2556.33
2542.54
2528.86
2515.28
2501.79
2488.38
2475.04
2461.76
2448.52
2435.32
2422.13
2408.93
2395.72
2382.48
2369.17
2355.78
2342.28
2328.66
2314.87
2300.89
2286.68
2272.22
2257.45
2242.34
2226.84
2210.89
2194.43
2177.42
2159.76
2141.39
2122.23
2102.17
2081.12
2058.97
2035.61
2010.89
1984.7
1956.89
1927.33
1895.89
1862.44
1826.87
1789.12
1749.14
1706.96
1662.61
1616.21
1567.83
1517.49
1464.94
1409.33
1348.25
1275.06
1165.37
902.931
2482.86
2469.44
2456.12
2442.89
2429.75
2416.69
2403.69
2390.75
2377.85
2364.98
2352.13
2339.28
2326.4
2313.5
2300.53
2287.49
2274.34
2261.07
2247.65
2234.04
2220.21
2206.14
2191.77
2177.07
2162
2146.49
2130.5
2113.97
2096.83
2079
2060.41
2040.97
2020.58
1999.14
1976.54
1952.67
1927.4
1900.62
1872.19
1842
1809.95
1775.95
1739.94
1701.89
1661.82
1619.77
1575.8
1529.94
1482.1
1431.83
1377.89
1316.91
1239.5
1114.28
828.404
2411.47
2398.41
2385.44
2372.56
2359.76
2347.03
2334.37
2321.77
2309.2
2296.67
2284.14
2271.62
2259.09
2246.51
2233.89
2221.19
2208.39
2195.47
2182.4
2169.16
2155.71
2142.02
2128.05
2113.76
2099.11
2084.05
2068.52
2052.46
2035.83
2018.53
2000.51
1981.67
1961.92
1941.18
1919.34
1896.29
1871.93
1846.14
1818.81
1789.84
1759.14
1726.63
1692.27
1656.02
1617.89
1577.9
1536.07
1492.33
1446.42
1397.62
1344.1
1281.34
1197.24
1057.28
771.832
2342.1
2329.38
2316.76
2304.21
2291.75
2279.36
2267.03
2254.76
2242.52
2230.31
2218.12
2205.92
2193.72
2181.48
2169.18
2156.82
2144.37
2131.8
2119.09
2106.21
2093.13
2079.82
2066.24
2052.36
2038.12
2023.49
2008.42
1992.84
1976.7
1959.93
1942.46
1924.21
1905.11
1885.05
1863.96
1841.72
1818.24
1793.42
1767.15
1739.36
1709.96
1678.88
1646.08
1611.52
1575.21
1537.13
1497.23
1455.33
1411.01
1363.19
1309.44
1243.98
1152.73
1002.25
733.589
2274.7
2262.32
2250.03
2237.82
2225.68
2213.62
2201.62
2189.66
2177.75
2165.86
2153.99
2142.12
2130.24
2118.33
2106.37
2094.34
2082.23
2070.01
2057.65
2045.13
2032.41
2019.48
2006.29
1992.8
1978.98
1964.78
1950.15
1935.04
1919.39
1903.14
1886.22
1868.56
1850.08
1830.7
1810.33
1788.88
1766.27
1742.4
1717.18
1690.53
1662.38
1632.68
1601.37
1568.43
1533.82
1497.5
1459.34
1419.06
1375.98
1328.68
1274.06
1205.28
1107.5
952.392
709.393
2209.21
2197.16
2185.19
2173.31
2161.5
2149.75
2138.07
2126.43
2114.84
2103.27
2091.72
2080.17
2068.61
2057.02
2045.39
2033.7
2021.92
2010.04
1998.02
1985.86
1973.51
1960.94
1948.13
1935.04
1921.63
1907.85
1893.66
1879.01
1863.84
1848.1
1831.72
1814.64
1796.78
1778.06
1758.41
1737.74
1715.98
1693.03
1668.83
1643.3
1616.37
1587.99
1558.11
1526.69
1493.68
1458.97
1422.35
1383.38
1341.16
1293.86
1237.74
1165.28
1062.45
908.605
694.286
2145.57
2133.84
2122.2
2110.64
2099.14
2087.72
2076.34
2065.02
2053.74
2042.49
2031.25
2020.02
2008.77
1997.51
1986.2
1974.83
1963.38
1951.84
1940.17
1928.35
1916.35
1904.16
1891.72
1879.02
1866.01
1852.64
1838.89
1824.69
1810
1794.77
1778.92
1762.4
1745.15
1727.09
1708.14
1688.24
1667.31
1645.27
1622.06
1597.61
1571.85
1544.75
1516.23
1486.24
1454.68
1421.4
1386.07
1348.09
1306.31
1258.49
1200.4
1124.48
1018.98
871.293
684.567
2083.74
2072.33
2061.01
2049.75
2038.57
2027.45
2016.39
2005.38
1994.4
1983.46
1972.53
1961.61
1950.68
1939.73
1928.74
1917.69
1906.57
1895.35
1884.02
1872.55
1860.91
1849.07
1837.01
1824.68
1812.07
1799.11
1785.79
1772.04
1757.82
1743.07
1727.75
1711.8
1695.14
1677.72
1659.47
1640.32
1620.2
1599.05
1576.8
1553.4
1528.77
1502.87
1475.62
1446.94
1416.68
1384.62
1350.31
1312.98
1271.21
1222.43
1162.22
1083.69
978.207
839.863
677.519
2023.68
2012.58
2001.56
1990.61
1979.73
1968.92
1958.16
1947.45
1936.78
1926.14
1915.52
1904.9
1894.28
1883.64
1872.96
1862.23
1851.43
1840.54
1829.54
1818.41
1807.11
1795.63
1783.93
1771.98
1759.75
1747.2
1734.3
1720.99
1707.23
1692.97
1678.17
1662.76
1646.69
1629.9
1612.33
1593.92
1574.59
1554.31
1532.99
1510.58
1487.02
1462.25
1436.16
1408.65
1379.52
1348.45
1314.88
1277.85
1235.71
1185.7
1123.59
1043.78
940.727
813.209
671.573
1965.32
1954.52
1943.8
1933.16
1922.58
1912.07
1901.61
1891.19
1880.82
1870.48
1860.16
1849.84
1839.52
1829.19
1818.82
1808.4
1797.92
1787.35
1776.68
1765.87
1754.92
1743.78
1732.44
1720.86
1709.02
1696.86
1684.37
1671.49
1658.19
1644.41
1630.11
1615.24
1599.75
1583.58
1566.67
1548.97
1530.42
1510.96
1490.53
1469.07
1446.51
1422.76
1397.73
1371.23
1343.03
1312.71
1279.58
1242.54
1199.76
1148.49
1085.09
1005.44
906.612
790.179
665.893
1908.62
1898.12
1887.7
1877.35
1867.07
1856.85
1846.68
1836.56
1826.48
1816.43
1806.41
1796.39
1786.37
1776.33
1766.27
1756.16
1745.98
1735.73
1725.38
1714.9
1704.28
1693.49
1682.5
1671.28
1659.81
1648.04
1635.95
1623.5
1610.64
1597.33
1583.53
1569.19
1554.26
1538.69
1522.42
1505.41
1487.6
1468.93
1449.34
1428.76
1407.11
1384.29
1360.17
1334.53
1307.05
1277.24
1244.3
1206.98
1163.42
1111.15
1047.26
969.084
875.61
769.798
660.049
1853.54
1843.34
1833.21
1823.15
1813.15
1803.22
1793.34
1783.51
1773.71
1763.96
1754.22
1744.49
1734.76
1725.02
1715.26
1705.45
1695.58
1685.63
1675.59
1665.44
1655.14
1644.69
1634.04
1623.18
1612.07
1600.69
1589
1576.95
1564.53
1551.68
1538.36
1524.54
1510.15
1495.16
1479.52
1463.17
1446.06
1428.13
1409.32
1389.54
1368.72
1346.72
1323.37
1298.41
1271.46
1241.94
1208.95
1171.19
1126.92
1074.08
1010.56
934.876
847.311
751.317
653.819
1800.04
1790.12
1780.27
1770.49
1760.78
1751.13
1741.53
1731.98
1722.48
1713
1703.55
1694.11
1684.67
1675.21
1665.74
1656.22
1646.65
1637.01
1627.28
1617.44
1607.46
1597.33
1587.03
1576.51
1565.76
1554.75
1543.44
1531.81
1519.81
1507.4
1494.56
1481.23
1467.37
1452.94
1437.89
1422.16
1405.71
1388.47
1370.37
1351.33
1331.23
1309.92
1287.2
1262.75
1236.15
1206.71
1173.51
1135.28
1090.52
1037.64
975.257
902.78
821.276
734.18
647.085
1748.07
1738.42
1728.86
1719.36
1709.92
1700.55
1691.23
1681.95
1672.72
1663.52
1654.35
1645.19
1636.03
1626.86
1617.67
1608.45
1599.17
1589.82
1580.39
1570.85
1561.19
1551.38
1541.4
1531.23
1520.83
1510.18
1499.25
1488.01
1476.42
1464.44
1452.05
1439.2
1425.85
1411.95
1397.46
1382.32
1366.48
1349.87
1332.42
1314.01
1294.53
1273.79
1251.56
1227.48
1201.04
1171.53
1138.04
1099.44
1054.51
1002.12
941.485
872.654
797.097
717.984
639.792
1697.58
1688.21
1678.91
1669.69
1660.52
1651.42
1642.37
1633.37
1624.41
1615.48
1606.58
1597.69
1588.81
1579.92
1571.01
1562.07
1553.07
1544.02
1534.88
1525.64
1516.28
1506.79
1497.13
1487.28
1477.22
1466.92
1456.36
1445.5
1434.3
1422.75
1410.79
1398.4
1385.52
1372.12
1358.16
1343.56
1328.28
1312.24
1295.36
1277.5
1258.54
1238.26
1216.38
1192.5
1166.08
1136.42
1102.66
1063.87
1019.14
967.714
909.273
844.303
774.424
702.438
631.922
1648.53
1639.43
1630.41
1621.45
1612.55
1603.71
1594.93
1586.19
1577.5
1568.84
1560.2
1551.58
1542.97
1534.35
1525.71
1517.04
1508.33
1499.55
1490.7
1481.75
1472.69
1463.5
1454.15
1444.62
1434.89
1424.93
1414.72
1404.22
1393.41
1382.25
1370.71
1358.75
1346.33
1333.4
1319.92
1305.82
1291.04
1275.51
1259.11
1241.72
1223.17
1203.23
1181.57
1157.78
1131.29
1101.45
1067.52
1028.79
984.599
934.518
878.581
817.528
752.975
687.341
623.491
1600.9
1592.06
1583.29
1574.59
1565.96
1557.38
1548.85
1540.38
1531.94
1523.54
1515.17
1506.81
1498.46
1490.1
1481.73
1473.33
1464.88
1456.38
1447.81
1439.14
1430.37
1421.47
1412.42
1403.2
1393.79
1384.16
1374.29
1364.14
1353.69
1342.91
1331.76
1320.21
1308.21
1295.71
1282.67
1269.02
1254.69
1239.59
1223.61
1206.6
1188.36
1168.65
1147.1
1123.29
1096.69
1066.72
1032.79
994.367
951.016
902.579
849.328
792.135
732.524
672.555
614.528
1554.62
1546.04
1537.53
1529.09
1520.7
1512.38
1504.11
1495.89
1487.71
1479.56
1471.44
1463.33
1455.24
1447.14
1439.02
1430.88
1422.7
1414.47
1406.16
1397.77
1389.27
1380.66
1371.9
1362.98
1353.87
1344.55
1335
1325.19
1315.09
1304.67
1293.88
1282.71
1271.09
1258.99
1246.35
1233.1
1219.16
1204.43
1188.79
1172.07
1154.05
1134.46
1112.94
1089.07
1062.37
1032.37
998.617
960.729
918.475
871.892
821.41
767.945
712.888
657.977
605.07
1509.68
1501.35
1493.09
1484.89
1476.76
1468.68
1460.66
1452.68
1444.75
1436.85
1428.97
1421.12
1413.27
1405.42
1397.55
1389.67
1381.74
1373.76
1365.71
1357.59
1349.36
1341.02
1332.54
1323.9
1315.08
1306.07
1296.83
1287.33
1277.55
1267.46
1257.02
1246.19
1234.93
1223.18
1210.9
1197.99
1184.38
1169.96
1154.58
1138.07
1120.19
1100.64
1079.09
1055.14
1028.41
998.509
965.11
927.97
887.012
842.42
794.716
744.804
693.924
643.539
595.157
1466.02
1457.93
1449.92
1441.96
1434.07
1426.24
1418.45
1410.72
1403.02
1395.36
1387.73
1380.11
1372.51
1364.9
1357.28
1349.63
1341.95
1334.22
1326.43
1318.55
1310.58
1302.5
1294.29
1285.92
1277.39
1268.65
1259.7
1250.5
1241.03
1231.24
1221.12
1210.61
1199.66
1188.23
1176.25
1163.64
1150.31
1136.13
1120.94
1104.56
1086.74
1067.18
1045.58
1021.59
994.911
965.245
932.364
896.144
856.63
814.104
769.134
722.574
675.518
629.194
584.83
1423.62
1415.77
1407.99
1400.27
1392.61
1385.01
1377.47
1369.96
1362.5
1355.08
1347.68
1340.29
1332.92
1325.54
1318.16
1310.75
1303.3
1295.81
1288.26
1280.63
1272.9
1265.07
1257.11
1249
1240.73
1232.26
1223.58
1214.66
1205.47
1195.97
1186.13
1175.9
1165.24
1154.09
1142.37
1130
1116.89
1102.88
1087.82
1071.51
1053.69
1034.09
1012.45
988.491
961.963
932.66
900.441
865.279
827.624
788.755
747.861
703.265
657.961
614.906
574.13
1382.42
1374.81
1367.26
1359.77
1352.35
1344.97
1337.65
1330.38
1323.14
1315.94
1308.77
1301.61
1294.46
1287.31
1280.15
1272.97
1265.75
1258.49
1251.16
1243.76
1236.28
1228.68
1220.96
1213.1
1205.07
1196.85
1188.43
1179.76
1170.82
1161.58
1152
1142.02
1131.61
1120.69
1109.19
1097.02
1084.07
1070.18
1055.19
1038.88
1021.03
1001.41
979.768
955.907
929.636
900.815
869.38
836.613
803.21
767.576
728.7
686.589
642.374
600.656
563.094
1342.78
1335.13
1327.7
1320.44
1313.23
1306.08
1298.98
1291.93
1284.91
1277.93
1270.97
1264.03
1257.1
1250.16
1243.22
1236.25
1229.25
1222.21
1215.11
1207.93
1200.66
1193.29
1185.8
1178.16
1170.37
1162.38
1154.19
1145.75
1137.05
1128.04
1118.68
1108.93
1098.72
1088
1076.68
1064.65
1051.8
1037.98
1023
1006.68
988.795
969.159
947.583
923.903
897.985
869.749
841.305
812.66
781.436
747.405
710.502
670.768
628.36
587.536
551.757
1304.8
1297.34
1289.91
1282.51
1275.29
1268.3
1261.42
1254.57
1247.77
1241
1234.25
1227.52
1220.79
1214.07
1207.33
1200.57
1193.78
1186.94
1180.05
1173.08
1166.02
1158.86
1151.58
1144.16
1136.57
1128.8
1120.82
1112.6
1104.1
1095.3
1086.14
1076.57
1066.54
1055.98
1044.78
1032.86
1020.07
1006.26
991.264
974.903
957.002
937.399
915.948
892.527
867.864
843.329
818.079
790.569
760.642
728.198
693.213
655.746
615.949
575.609
540.148
1267.92
1260.68
1253.48
1246.31
1239.17
1232.05
1225.04
1218.28
1211.68
1205.11
1198.56
1192.03
1185.51
1178.98
1172.44
1165.88
1159.29
1152.65
1145.95
1139.18
1132.32
1125.35
1118.27
1111.04
1103.65
1096.08
1088.29
1080.25
1071.94
1063.31
1054.32
1044.91
1035.02
1024.57
1013.47
1001.59
988.819
974.995
959.965
943.577
925.688
906.168
884.905
863.617
842.664
820.225
795.862
769.423
740.796
709.916
676.785
641.474
604.125
564.943
529.387
1232.1
1225.09
1218.11
1211.16
1204.24
1197.34
1190.45
1183.58
1176.78
1170.24
1163.88