/*--------------------------------*- C++ -*----------------------------------*\
  =========                 |
  \\      /  F ield         | OpenFOAM: The Open Source CFD Toolbox
   \\    /   O peration     | Website:  https://openfoam.org
    \\  /    A nd           | Version:  10
     \\/     M anipulation  |
\*---------------------------------------------------------------------------*/
FoamFile
{
    format      ascii;
    class       volScalarField;
    location    "46000";
    object      omega;
}
// * * * * * * * * * * * * * * * * * * * * * * * * * * * * * * * * * * * * * //

dimensions      [0 0 -1 0 0 0 0];

internalField   nonuniform List<scalar> 
17981
(
38.663
39.8575
41.0902
42.3475
43.6157
44.881
46.131
47.3547
48.5429
49.6885
50.786
51.832
52.8243
53.7623
54.6462
55.4769
56.2561
56.9856
57.6677
58.3047
58.8991
59.4532
59.9694
60.4501
60.8974
61.3135
61.7003
62.0598
62.3938
62.7039
62.9918
63.2589
63.5068
63.7367
63.9499
64.1473
64.3294
64.4971
64.6514
64.7932
64.9233
65.0425
65.1516
65.2513
65.3422
65.4249
65.5001
65.5683
39.5741
40.8121
42.0921
43.3994
44.719
46.0361
47.3373
48.6107
49.8464
51.037
52.1769
53.2623
54.2914
55.2634
56.1787
57.0385
57.8445
58.5988
59.3039
59.9622
60.5762
61.1485
61.6816
62.1779
62.6396
63.0689
63.468
63.8387
64.1829
64.5024
64.7987
65.0736
65.3284
65.5645
65.7832
65.9853
66.1714
66.3426
66.4997
66.6437
66.7756
66.8961
67.006
67.1061
67.197
67.2793
67.3538
67.4209
40.617
41.8982
43.2245
44.5805
45.9497
47.3164
48.6659
49.9858
51.2656
52.4976
53.676
54.7972
55.8593
56.8618
57.8053
58.6912
59.5213
60.298
61.0238
61.7014
62.3333
62.9222
63.4708
63.9814
64.4564
64.898
65.3084
65.6896
66.0434
66.3716
66.6759
66.958
67.2192
67.4611
67.6848
67.8911
68.0808
68.2548
68.4143
68.5601
68.6932
68.8145
68.9247
69.0246
69.1149
69.1963
69.2695
69.3349
47.3071
48.7203
50.1148
51.4772
52.7969
54.0659
55.2785
56.4312
57.5224
58.5517
59.5199
60.4286
61.28
62.0765
62.8208
63.5156
64.1637
64.7678
65.3305
65.8543
66.3416
66.7947
67.2157
67.6067
67.9695
68.306
68.6178
68.9066
69.174
69.4213
69.6496
69.8597
70.0524
70.2289
70.3903
70.5375
70.6714
70.7929
70.9029
71.0022
71.0914
71.1713
71.2425
71.3057
48.7915
50.2472
51.682
53.0821
54.4367
55.7377
56.9796
58.1592
59.275
60.3271
61.3164
62.2448
63.1147
63.9285
64.6891
65.3994
66.0621
66.6799
67.2556
67.7917
68.2905
68.7543
69.1854
69.5857
69.9571
70.3015
70.6206
70.9159
71.1891
71.4417
71.6743
71.8878
72.0833
72.262
72.4249
72.573
72.7073
72.8287
72.9381
73.0362
73.1238
73.2016
73.2704
73.3308
50.4002
51.8936
53.3633
54.7954
56.1791
57.5065
58.7724
59.9739
61.1098
62.1806
63.1875
64.1325
65.0181
65.8469
66.622
67.346
68.0219
68.6524
69.2402
69.7878
70.2975
70.7717
71.2124
71.6218
72.0017
72.3539
72.6802
72.9822
73.2615
73.5191
73.7557
73.9726
74.1707
74.3514
74.5156
74.6645
74.7989
74.9198
75.0282
75.1247
75.2103
75.2856
75.3514
75.4083
53.6539
55.1519
56.6094
58.0156
59.3632
60.6473
61.8655
63.0171
64.1026
65.1236
66.0822
66.9811
67.823
68.6108
69.3473
70.0354
70.6779
71.2772
71.8359
72.3563
72.8408
73.2913
73.7098
74.0984
74.4587
74.7926
75.1017
75.3872
75.6498
75.8905
76.1106
76.3113
76.4938
76.6592
76.8085
76.9427
77.0628
77.1696
77.2641
77.3471
77.4193
77.4815
77.5344
58.5115
59.9332
61.2944
62.5909
63.8207
64.9835
66.08
67.1121
68.082
68.9923
69.8457
70.6452
71.3935
72.0933
72.7474
73.3582
73.9282
74.4596
74.9546
75.4153
75.8436
76.2414
76.6106
76.9528
77.2693
77.5609
77.8285
78.0733
78.2968
78.5001
78.6843
78.8507
79.0003
79.134
79.253
79.358
79.4501
79.53
79.5986
79.6567
79.7049
61.9131
63.2814
64.5847
65.8216
66.9918
68.0965
69.1374
70.1168
71.0373
71.9017
72.7125
73.4725
74.1843
74.8505
75.4734
76.0553
76.5985
77.105
77.5768
78.0158
78.424
78.803
79.1544
79.4786
79.7764
80.0494
80.2988
80.5259
80.732
80.9182
81.0857
81.2355
81.3688
81.4864
81.5894
81.6788
81.7553
81.8198
81.8732
81.9162
66.6052
67.8457
69.0208
70.1318
71.1805
72.169
73.0997
73.9753
74.7981
75.5707
76.2956
76.9751
77.6114
78.2067
78.7632
79.2827
79.7673
80.2188
80.639
81.0295
81.3905
81.7228
82.0279
82.307
82.5616
82.793
83.0023
83.1909
83.3597
83.51
83.6428
83.7592
83.8601
83.9465
84.0194
84.0795
84.1278
84.165
73.221
74.2197
75.162
76.0503
76.8869
77.674
78.414
79.109
79.761
80.372
80.9441
81.4791
81.9788
82.4452
82.8797
83.2825
83.6541
83.9959
84.3094
84.596
84.8569
85.0934
85.3068
85.4984
85.6691
85.8203
85.953
86.0683
86.1672
86.2506
86.3196
86.3751
86.418
86.449
75.2408
76.2514
77.2076
78.1112
78.9642
79.7688
80.5269
81.2404
81.9111
82.541
83.1319
83.6855
84.2036
84.6879
85.1382
85.5547
85.9389
86.2922
86.616
86.9115
87.1801
87.423
87.6417
87.8372
88.0107
88.1635
88.2966
88.4112
88.5083
88.5889
88.6541
88.7049
88.742
88.7666
77.2178
78.2442
79.2181
80.141
81.0146
81.8407
82.621
83.3572
84.0509
84.7037
85.3173
85.8936
86.4342
86.9386
87.4067
87.8398
88.2393
88.6066
88.9428
89.2495
89.5278
89.779
90.0044
90.2053
90.3828
90.5381
90.6724
90.7869
90.8826
90.9606
91.0221
91.068
91.0993
91.117
79.1322
80.1798
81.1766
82.1241
83.0236
83.8764
84.6841
85.448
86.1697
86.8507
87.4926
88.0972
88.6636
89.1909
89.6805
90.1337
90.5517
90.9358
91.2874
91.6076
91.8979
92.1594
92.3934
92.6011
92.7839
92.943
93.0794
93.1945
93.2894
93.3653
93.4232
93.4643
93.4896
93.5002
82.0413
83.068
84.0469
84.9788
85.8648
86.7063
87.5044
88.2605
88.976
89.6527
90.2894
90.8846
91.4393
91.9546
92.4318
92.872
93.2765
93.6466
93.9834
94.2883
94.5625
94.8073
95.0239
95.2137
95.3779
95.5178
95.6346
95.7295
95.8037
95.8585
95.895
95.9143
95.9176
83.816
84.8805
85.8984
86.8703
87.797
88.6796
89.5191
90.3169
91.0744
91.7906
92.4633
93.0926
93.6797
94.2255
94.7312
95.1979
95.6268
96.019
96.3759
96.6986
96.9884
97.2465
97.4744
97.6733
97.8445
97.9892
98.1089
98.2048
98.2783
98.3304
98.3626
98.3761
98.372
85.4919
86.6034
87.6693
88.6899
89.6658
90.5979
91.4871
92.3348
93.1406
93.9013
94.6159
95.2852
95.9102
96.4919
97.0311
97.5291
97.9868
98.4054
98.7862
99.1302
99.4389
99.7134
99.9552
100.165
100.346
100.497
100.621
100.719
100.793
100.843
100.871
100.879
100.868
88.2281
89.3526
90.4322
91.4671
92.4582
93.4063
94.3124
95.1726
95.984
96.7471
97.4627
98.1317
98.7548
99.333
99.8673
100.359
100.808
101.217
101.587
101.918
102.212
102.47
102.695
102.886
103.046
103.177
103.278
103.353
103.402
103.427
103.429
103.41
89.7465
90.942
92.0928
93.1986
94.26
95.2782
96.2505
97.1719
98.0416
98.8601
99.6285
100.347
101.018
101.641
102.216
102.746
103.232
103.673
104.072
104.429
104.747
105.025
105.267
105.472
105.643
105.781
105.888
105.965
106.014
106.036
106.034
106.007
91.1455
92.4308
93.6716
94.8663
96.0139
97.1146
98.1615
99.1492
100.081
100.96
101.786
102.56
103.283
103.955
104.578
105.152
105.677
106.156
106.588
106.976
107.32
107.623
107.884
108.107
108.291
108.44
108.554
108.636
108.686
108.707
108.7
108.667
92.4138
93.7944
95.1328
96.426
97.6721
98.8693
100.009
101.085
102.097
103.047
103.937
104.769
105.547
106.273
106.946
107.568
108.139
108.66
109.132
109.556
109.932
110.263
110.549
110.793
110.995
111.157
111.282
111.37
111.424
111.445
111.435
111.396
93.5364
95.0173
96.46
97.8598
99.2132
100.517
101.76
102.935
104.04
105.078
106.048
106.954
107.799
108.585
109.315
109.992
110.615
111.186
111.703
112.169
112.584
112.949
113.266
113.535
113.76
113.94
114.078
114.176
114.235
114.258
114.247
114.204
94.4987
96.0824
97.6346
99.1487
100.619
102.042
103.402
104.687
105.898
107.034
108.098
109.092
110.018
110.879
111.679
112.42
113.104
113.732
114.304
114.82
115.281
115.688
116.041
116.343
116.594
116.797
116.953
117.064
117.133
117.161
117.15
117.103
95.3024
96.9876
98.6512
100.285
101.88
103.43
104.918
106.328
107.659
108.91
110.082
111.177
112.198
113.149
114.031
114.85
115.607
116.303
116.94
117.516
118.031
118.488
118.886
119.226
119.511
119.742
119.921
120.049
120.13
120.165
120.158
120.109
95.9594
97.7397
99.5117
101.266
102.989
104.672
106.298
107.849
109.316
110.697
111.993
113.205
114.337
115.391
116.371
117.28
118.123
118.901
119.614
120.261
120.842
121.357
121.808
122.196
122.521
122.786
122.993
123.144
123.241
123.287
123.284
123.236
96.4811
98.35
100.223
102.091
103.942
105.762
107.537
109.243
110.862
112.39
113.826
115.172
116.429
117.602
118.694
119.71
120.654
121.527
122.329
123.06
123.718
124.304
124.817
125.261
125.635
125.941
126.183
126.361
126.479
126.539
126.544
126.498
96.8569
98.8245
100.793
102.768
104.742
106.7
108.627
110.497
112.283
113.975
115.57
117.066
118.467
119.776
120.997
122.135
123.196
124.181
125.088
125.916
126.664
127.332
127.92
128.429
128.861
129.217
129.499
129.711
129.854
129.932
129.949
129.907
97.0701
99.148
101.224
103.303
105.394
107.485
109.561
111.6
113.568
115.441
117.212
118.879
120.442
121.905
123.273
124.552
125.747
126.861
127.889
128.831
129.684
130.447
131.122
131.708
132.207
132.622
132.953
133.204
133.379
133.48
133.511
133.475
97.1132
99.303
101.5
103.697
105.901
108.121
110.343
112.547
114.702
116.773
118.74
120.596
122.342
123.979
125.514
126.953
128.304
129.565
130.733
131.804
132.778
133.652
134.427
135.103
135.681
136.163
136.552
136.85
137.062
137.19
137.239
137.214
99.2819
101.601
103.931
106.264
108.61
110.974
113.338
115.678
117.956
120.138
122.205
124.154
125.987
127.71
129.332
130.86
132.289
133.616
134.837
135.948
136.95
137.84
138.619
139.288
139.849
140.305
140.658
140.914
141.075
141.146
141.132
99.0793
101.522
103.986
106.466
108.953
111.457
113.979
116.495
118.979
121.389
123.689
125.865
127.918
129.852
131.68
133.407
135.027
136.535
137.926
139.195
140.341
141.363
142.261
143.035
143.687
144.22
144.637
144.944
145.143
145.241
145.243
98.6893
101.256
103.857
106.484
109.131
111.791
114.471
117.165
119.845
122.48
125.029
127.457
129.755
131.927
133.986
135.938
137.774
139.486
141.069
142.518
143.829
145.001
146.034
146.927
147.684
148.306
148.797
149.162
149.406
149.535
149.555
98.107
100.796
103.534
106.313
109.124
111.957
114.81
117.684
120.565
123.42
126.214
128.912
131.482
133.919
136.238
138.441
140.519
142.462
144.262
145.914
147.412
148.755
149.942
150.971
151.847
152.57
153.146
153.578
153.874
154.039
154.081
105.939
108.919
111.937
114.98
118.045
121.133
124.216
127.257
130.22
133.079
135.812
138.42
140.905
143.253
145.455
147.5
149.38
151.09
152.626
153.987
155.171
156.181
157.02
157.692
158.202
158.557
158.763
158.831
105.356
108.505
111.712
114.961
118.239
121.54
124.858
128.16
131.399
134.545
137.587
140.515
143.312
145.962
148.453
150.772
152.91
154.858
156.613
158.17
159.53
160.693
161.663
162.444
163.041
163.463
163.718
163.814
104.549
107.866
111.263
114.725
118.236
121.777
125.34
128.907
132.442
135.899
139.254
142.503
145.639
148.627
151.442
154.069
156.495
158.713
160.713
162.493
164.051
165.388
166.506
167.41
168.107
168.605
168.913
169.042
103.512
106.988
110.571
114.246
117.996
121.801
125.638
129.488
133.326
137.112
140.815
144.415
147.894
151.233
154.405
157.377
160.128
162.647
164.925
166.956
168.737
170.269
171.554
172.598
173.407
173.991
174.36
174.526
102.239
105.862
109.622
113.505
117.493
121.566
125.699
129.864
134.031
138.167
142.242
146.224
150.087
153.799
157.337
160.681
163.795
166.653
169.243
171.556
173.589
175.341
176.815
178.016
178.952
179.632
180.07
180.277
100.731
104.485
108.408
112.488
116.71
121.051
125.486
129.984
134.51
139.03
143.506
147.9
152.178
156.304
160.248
163.98
167.483
170.719
173.658
176.289
178.606
180.607
182.293
183.672
184.75
185.539
186.054
186.307
98.9937
102.857
106.925
111.189
115.634
120.24
124.979
129.819
134.723
139.649
144.555
149.396
154.129
158.711
163.103
167.273
171.188
174.829
178.16
181.149
183.786
186.067
187.994
189.573
190.812
191.724
192.325
192.631
97.0341
100.984
105.174
109.601
114.254
119.113
124.153
129.339
134.631
139.983
145.346
150.668
155.896
160.979
165.869
170.523
174.905
178.983
182.737
186.128
189.126
191.724
193.923
195.728
197.149
198.2
198.898
199.262
94.862
98.874
103.161
107.725
112.563
117.658
122.986
128.515
134.2
139.993
145.836
151.671
157.434
163.065
168.505
173.7
178.603
183.175
187.388
191.216
194.622
197.579
200.086
202.148
203.775
204.982
205.79
206.219
92.4925
96.5412
100.895
105.567
110.56
115.866
121.464
127.322
133.398
139.639
145.982
152.358
158.696
164.923
170.967
176.762
182.248
187.376
192.107
196.415
200.268
203.633
206.489
208.842
210.702
212.088
213.019
213.522
89.9377
94.0012
98.3934
103.14
108.254
113.736
119.575
125.742
132.197
138.885
145.739
152.682
159.632
166.501
173.206
179.663
185.801
191.554
196.872
201.716
206.067
209.885
213.139
215.822
217.948
219.534
220.605
221.191
87.2067
91.27
95.6743
100.46
105.656
111.276
117.318
123.763
130.574
137.699
145.066
152.594
160.187
167.746
175.168
182.356
189.217
195.672
201.653
207.111
212.01
216.335
220.04
223.099
225.527
227.341
228.571
229.25
84.3063
88.3632
92.76
97.5532
102.79
108.501
114.7
121.38
128.513
136.051
143.924
152.045
160.307
168.598
176.796
184.782
192.446
199.685
206.416
212.57
218.1
222.983
227.191
230.682
233.455
235.531
236.941
237.725
81.2318
85.2876
89.669
94.4451
99.683
105.436
111.739
118.6
126.008
133.922
142.279
150.987
159.935
168.994
178.023
186.88
195.429
203.544
211.118
218.063
224.314
229.833
234.605
238.588
241.754
244.128
245.745
246.648
77.9671
82.0367
86.4102
91.1587
96.3672
102.115
108.463
115.444
123.066
131.304
140.104
149.38
159.016
168.868
178.778
188.578
198.1
207.191
215.714
223.556
230.631
236.883
242.289
246.819
250.441
253.158
255.011
256.05
74.495
78.5903
82.9776
87.7076
92.8721
98.576
104.911
111.944
119.706
128.199
137.386
147.19
157.497
168.156
178.988
189.797
200.383
210.556
220.144
229.003
237.018
244.113
250.246
255.402
259.542
262.653
264.777
265.972
70.8176
74.9281
79.3493
84.0881
89.2178
94.856
101.129
108.143
115.966
124.63
134.125
144.395
155.335
166.793
178.573
190.452
202.193
213.562
224.343
234.352
243.441
251.505
258.479
264.352
269.082
272.646
275.083
276.455
67.0973
71.0452
75.4942
80.2724
85.402
90.9824
97.1636
104.096
111.895
120.635
130.343
140.992
152.501
164.723
177.457
190.453
203.434
216.115
228.23
239.541
249.857
259.037
266.988
273.677
279.081
283.171
285.971
287.548
63.6305
67.1365
71.3986
76.219
81.392
86.957
93.0501
99.8584
107.556
116.272
126.08
137
148.982
161.905
175.569
189.707
204.001
218.112
231.708
244.49
256.207
266.67
275.753
283.393
289.582
294.279
297.495
299.309
60.5141
63.5322
67.2922
71.9025
77.1351
82.7441
88.798
95.4795
103.018
111.612
121.4
132.459
144.791
158.314
172.848
188.122
203.783
219.434
234.668
249.105
262.421
274.364
284.76
293.512
300.614
306.014
309.712
311.799
60.3216
63.5435
67.5879
72.589
78.2784
84.3709
90.9787
98.3423
106.737
116.387
127.441
139.971
153.954
169.256
185.618
202.669
219.954
236.981
253.274
268.414
282.066
293.991
304.048
312.198
318.413
322.683
325.089
57.4794
60.2369
63.6875
68.0524
73.493
79.6896
86.3216
93.5639
101.727
111.135
122.038
134.594
148.863
164.781
182.133
200.551
219.534
238.5
256.86
274.073
289.695
303.402
314.99
324.377
331.551
336.49
339.269
60.2819
63.9891
68.7173
74.6543
81.4155
88.6548
96.6335
105.744
116.363
128.766
143.116
159.45
177.633
197.335
218.034
239.064
259.704
279.265
297.159
312.945
326.333
337.185
345.493
351.22
354.435
57.3314
60.4806
64.4766
69.6192
76.1193
83.5116
91.4425
100.288
110.536
122.615
136.827
153.336
172.128
192.958
215.324
238.499
261.622
283.825
304.334
322.549
338.061
350.654
360.309
366.967
370.694
57.4774
60.8577
65.1814
70.8011
77.9432
86.044
94.7743
104.658
116.286
130.144
146.56
165.678
187.396
211.294
236.627
262.406
287.554
311.063
332.118
350.147
364.821
376.064
383.829
388.173
54.9397
57.8015
61.4421
66.1402
72.315
80.1924
89.094
98.7653
109.911
123.236
139.285
158.403
180.687
205.876
233.282
261.828
290.215
317.145
341.518
362.532
379.7
392.848
401.944
407.03
52.8357
55.2604
58.3301
62.2661
67.3963
74.2246
82.9481
92.7634
103.566
116.272
131.71
150.482
172.938
199.064
228.33
259.654
291.532
322.328
350.568
375.129
395.298
410.759
421.472
427.45
53.1981
55.7897
59.0933
63.3671
69.0009
76.6077
86.3103
97.1836
109.376
124.045
142.144
164.337
190.934
221.697
255.665
291.203
326.308
359.032
387.812
411.607
429.895
442.585
449.649
51.5899
53.78
56.5573
60.1258
64.789
71.0156
79.5605
90.4046
102.529
116.471
133.645
155.139
181.664
213.399
249.687
288.908
328.72
366.602
400.398
428.592
450.353
465.482
473.884
52.274
54.6122
57.5979
61.4685
66.5848
73.5165
83.2014
95.3924
109.04
125.232
145.653
171.53
203.571
241.633
284.345
329.147
372.888
412.626
446.171
472.227
490.392
500.46
51.2584
53.2301
55.7328
58.9539
63.1728
68.8229
76.6066
87.6796
101.482
117.049
136.2
160.89
192.483
231.546
277.267
327.136
377.4
424.136
464.202
495.606
517.568
529.742
50.7329
52.3991
54.5016
57.1888
60.6797
65.3075
71.6015
80.4448
93.1945
108.943
127.031
150.147
180.533
219.635
267.549
322.236
379.546
434.43
482.44
520.55
547.308
562.188
52.1246
53.8956
56.1433
59.0402
62.8459
67.9656
75.0611
85.2764
100.028
118.144
139.674
168.21
206.299
255.253
314.062
378.651
442.844
500.489
547.034
579.981
598.396
52.4321
53.9295
55.8147
58.2241
61.3611
65.539
71.2602
79.3744
91.4143
108.572
129.647
156.025
192.107
240.697
302.404
374.01
448.535
517.76
574.949
615.971
639.076
53.3709
54.6449
56.2325
58.2409
60.8293
64.2401
68.856
75.3101
84.7128
99.1646
119.358
144.383
177.742
224.482
287.344
364.994
450.482
533.399
604.007
655.66
685.109
56.1182
57.4649
59.1459
61.2845
64.0674
67.7854
72.91
80.2442
91.2478
108.805
133.143
163.917
207.475
269.364
351.208
447.544
546.214
633.643
699.399
737.604
58.4735
59.6307
61.0494
62.8234
65.0953
68.0862
72.1501
77.8775
86.3086
99.4115
120.945
151.087
190.689
249.375
332.683
438.594
554.632
662.87
747.421
797.954
61.904
62.9201
64.1357
65.6204
67.4808
69.8838
73.0977
77.5683
84.0732
94.0605
110.485
137.152
174.827
228.533
310.015
422.773
556.739
690.113
799.687
867.911
66.7142
67.6355
68.7036
69.9661
71.4992
73.4245
75.9408
79.3801
84.318
91.8065
103.92
125.212
159.205
208.145
284.521
399.882
550.483
713.05
855.634
949.624
73.3994
74.2719
75.2445
76.3457
77.6241
79.1618
81.0979
83.6697
87.2909
92.7073
101.338
116.108
143.807
189.602
258.353
370.835
534.106
728.542
913.793
1045.61
82.8098
83.6796
84.6053
85.5975
86.6799
87.8997
89.344
91.1715
93.6698
97.3686
103.277
113.443
132.458
169.517
233.652
337.583
506.619
732.733
971.339
1158.36
96.5185
97.432
98.3511
99.2686
100.186
101.118
102.108
103.246
104.715
106.874
110.434
116.857
129.386
156.227
209.388
302.421
468.192
721.214
1022.98
1290.48
117.761
118.761
119.689
120.518
121.229
121.81
122.265
122.627
122.99
123.565
124.806
127.672
134.256
149.505
186.94
269.621
421.666
690.269
1060.65
1442.45
154.286
155.381
156.241
156.819
157.077
156.981
156.507
155.648
154.43
152.953
151.488
150.629
151.716
157.917
177.527
233.361
371.526
637.601
1072
1610.67
229.391
230.335
230.631
230.23
229.086
227.159
224.411
220.812
216.345
211.069
205.325
199.561
194.688
193.052
198.89
227.226
323.099
567.536
1046.41
1773.88
442.389
441.148
438.264
433.812
427.804
420.202
410.935
399.896
386.924
372.06
358.979
348.555
339.683
331.165
324.57
325.261
351.97
480.742
975.106
1855.22
1530.04
1523.65
1517.47
1511.5
1505.74
1500.16
1494.78
1489.57
1484.54
1479.67
1474.96
1470.4
1466
1461.73
1457.61
1453.61
1449.74
1446
1442.38
1438.87
41.2348
41.7845
42.3615
42.9702
43.6154
44.3024
45.0371
45.8259
46.6756
47.5939
48.589
49.6701
50.8471
52.1308
53.5332
55.0677
56.7487
58.5924
60.6167
62.8415
65.2891
67.9843
70.9549
74.2319
77.8504
81.8495
86.2733
91.1714
96.5994
102.62
109.303
116.726
124.977
134.152
144.358
155.71
168.334
182.366
197.949
215.236
234.387
255.578
279.005
304.916
333.659
365.78
402.213
444.645
496.239
563.224
658.794
814.374
1118.94
1879.37
4002.34
41.2464
41.8015
42.3845
43
43.6529
44.3485
45.0927
45.8919
46.753
47.6836
48.6921
49.7875
50.9797
52.2797
53.6993
55.2519
56.9518
58.8151
60.8597
63.1053
65.574
68.2904
71.2818
74.5791
78.2167
82.2331
86.6717
91.5809
97.0153
103.036
109.71
117.114
125.332
134.457
144.591
155.844
168.338
182.202
197.572
214.596
233.43
254.247
277.251
302.703
330.979
362.675
398.806
441.186
493.185
561.363
659.395
818.739
1121.59
1801.09
3065.19
41.2594
41.82
42.4093
43.0319
43.6927
44.3971
45.151
45.9608
46.8335
47.7766
48.7986
49.9084
51.1161
52.4324
53.8693
55.4398
57.1586
59.0414
61.1061
63.3722
65.8615
68.5985
71.6102
74.9269
78.5825
82.615
87.0669
91.9856
97.4243
103.442
110.105
117.487
125.669
134.74
144.799
155.951
168.311
182.004
197.161
213.923
232.445
252.9
275.498
300.515
328.356
359.666
395.532
437.874
490.203
559.211
658.417
817.257
1105.24
1653.12
2419.39
41.2738
41.8401
42.4359
43.0658
43.7347
44.4481
45.2119
46.0325
46.9169
47.8728
48.9084
50.0328
51.256
52.5887
54.0428
55.6314
57.3688
59.271
61.3554
63.6416
66.1512
68.9081
71.9393
75.2745
78.9472
82.9945
87.4582
92.3846
97.8255
103.839
110.488
117.845
125.987
135.001
144.981
156.028
168.253
181.773
196.717
213.221
231.437
251.54
273.749
298.356
325.794
356.752
392.38
434.675
487.217
556.655
655.922
811.548
1076.87
1493.15
1959.86
41.2895
41.8617
42.4643
43.1017
43.7789
44.5016
45.2755
46.1071
47.0034
47.9721
49.0215
50.1606
51.3993
52.7484
54.2197
55.8263
57.5823
59.5036
61.6075
63.9134
66.4426
69.2189
72.2688
75.6216
79.3101
83.3709
87.8447
92.777
98.2181
104.224
110.857
118.186
126.286
135.239
145.137
156.076
168.163
181.51
196.241
212.49
230.408
250.173
272.011
296.233
323.297
353.932
389.338
431.561
484.183
553.676
652.155
802.828
1033.42
1345.8
1632.73
41.3067
41.8851
42.4945
43.1396
43.8254
44.5575
45.3417
46.1845
47.0929
48.0746
49.1379
50.2918
51.5461
52.9116
54.4001
56.0244
57.7988
59.7389
61.862
64.1872
66.7355
69.5305
72.5981
75.9675
79.6706
83.7435
88.2259
93.1621
98.6012
104.598
111.212
118.509
126.564
135.454
145.267
156.096
168.042
181.216
195.736
211.735
229.363
248.803
270.29
294.149
320.868
351.204
386.397
428.513
481.09
550.337
647.396
788.871
981.194
1214.95
1395.78
41.3254
41.9101
42.5266
43.1796
43.8742
44.6159
45.4106
46.2647
47.1854
48.1803
49.2575
50.4262
51.6961
53.078
54.5835
56.2256
58.0181
59.9768
62.1186
64.4625
67.0293
69.8422
72.9268
76.3116
80.0282
84.1116
88.6009
93.5391
98.974
104.958
111.551
118.815
126.82
135.644
145.369
156.086
167.891
180.891
195.203
210.957
228.305
247.434
268.588
292.11
318.507
348.567
383.553
425.533
477.969
546.754
641.217
768.078
925.683
1100.88
1218.69
41.3456
41.9368
42.5606
43.2218
43.9253
44.6768
45.4821
46.3478
47.2809
48.289
49.3803
50.5638
51.8494
53.2475
54.77
56.4295
58.24
60.2169
62.377
64.7391
67.3237
70.1537
73.2543
76.6534
80.382
84.4745
88.9689
93.9071
99.3356
105.306
111.873
119.101
127.055
135.81
145.445
156.047
167.71
180.538
194.645
210.16
227.238
246.07
266.911
290.117
316.217
346.023
380.812
422.643
474.882
542.85
631.833
741.987
870.512
1002.21
1081.84
41.3674
41.9653
42.5967
43.2661
43.9788
44.7402
45.5564
46.4337
47.3793
48.4007
49.5061
50.7045
52.0056
53.42
54.9593
56.636
58.4642
60.4588
62.6368
65.0165
67.6182
70.4644
73.5799
76.9922
80.7315
84.8315
89.3291
94.2653
99.6851
105.638
112.179
119.367
127.267
135.95
145.493
155.98
167.501
180.158
194.064
209.347
226.166
244.716
265.262
288.177
314.007
343.582
378.194
419.885
471.827
537.701
618.509
712.837
817.585
917.038
972.705
41.3908
41.9956
42.6347
43.3126
44.0346
44.8062
45.6333
46.5224
47.4806
48.5153
49.6349
50.8481
52.1647
53.5953
55.1511
56.8449
58.6903
60.7023
62.8976
65.2942
67.9122
70.7738
73.9032
77.3273
81.0759
85.1817
89.6807
94.6128
100.022
105.955
112.467
119.613
127.456
136.065
145.514
155.884
167.264
179.753
193.461
208.521
225.092
243.376
263.65
286.298
311.887
341.264
375.734
417.279
468.372
530.211
601.931
682.449
767.761
843.42
883.458
41.4159
42.0278
42.6747
43.3614
44.0928
44.8746
45.7128
46.6138
47.5846
48.6328
49.7665
50.9945
52.3266
53.773
55.3453
57.0558
58.9181
60.947
63.159
65.5718
68.2054
71.0812
74.2234
77.6581
81.4144
85.5243
90.023
94.9489
100.345
106.257
112.736
119.837
127.622
136.155
145.509
155.762
167.001
179.324
192.842
207.687
224.022
242.059
262.082
284.493
309.876
339.1
373.46
414.624
463.674
520.154
583.264
651.94
721.397
779.504
808.976
41.4426
42.0619
42.7168
43.4123
44.1534
44.9456
45.795
46.7079
47.6915
48.7531
49.9008
51.1436
52.4909
53.9532
55.5415
57.2684
59.1471
61.1925
63.4205
65.8489
68.497
71.3862
74.5399
77.9838
81.7464
85.8587
90.355
95.2727
100.653
106.541
112.985
120.04
127.764
136.219
145.477
155.614
166.714
178.875
192.208
206.848
222.964
240.772
260.572
282.78
308.003
337.12
371.279
411.364
457.187
508.038
563.465
621.965
678.567
723.668
745.777
41.4711
42.0978
42.761
43.4654
44.2162
45.019
45.8797
46.8047
47.8009
48.8759
50.0378
51.2952
52.6576
54.1353
55.7396
57.4824
59.3771
61.4383
63.6817
66.1248
68.7866
71.688
74.852
78.3038
82.071
86.184
90.676
95.5834
100.946
106.808
113.216
120.221
127.882
136.259
145.42
155.441
166.405
178.409
191.566
206.013
221.925
239.53
259.137
281.186
306.297
335.284
368.841
406.937
448.967
494.539
543.17
592.931
639.169
674.556
691.405
41.5014
42.1357
42.8072
43.5207
44.2814
45.0948
45.9668
46.9039
47.9129
49.0013
50.1771
51.449
52.8263
54.3193
55.939
57.6975
59.6077
61.684
63.9421
66.3991
69.0736
71.9861
75.1591
78.6173
82.3875
86.4994
90.9852
95.8803
101.223
107.056
113.425
120.381
127.977
136.274
145.339
155.245
166.077
177.93
190.921
205.19
220.919
238.347
257.802
279.738
304.748
333.377
365.678
401.161
439.405
480.193
522.801
565.09
603.002
631.06
644.078
41.5334
42.1754
42.8554
43.5782
44.3489
45.173
46.0564
47.0056
48.0273
49.129
50.3187
51.6049
52.9969
54.5049
56.1397
57.9132
59.8384
61.9292
64.2012
66.6711
69.3573
72.2797
75.4605
78.9235
82.6952
86.8042
91.282
96.1627
101.484
107.287
113.615
120.518
128.049
136.267
145.236
155.031
165.735
177.445
190.282
204.39
219.961
237.247
256.592
278.441
303.225
331.041
361.509
394.195
428.91
465.379
502.646
538.585
569.813
592.286
602.466
41.5671
42.2171
42.9057
43.6379
44.4186
45.2534
46.1483
47.1095
48.1439
49.2589
50.4622
51.7625
53.169
54.6916
56.3411
58.1292
60.0687
62.1734
64.4585
66.9404
69.6371
72.5683
75.7554
79.2219
82.9933
87.0977
91.5655
96.4301
101.728
107.498
113.784
120.634
128.099
136.238
145.114
154.801
165.383
176.962
189.658
203.627
219.07
236.254
255.521
277.218
301.463
327.976
356.337
386.323
417.805
450.364
482.913
513.482
539.338
557.509
565.56
41.6026
42.2606
42.958
43.6996
44.4904
45.3361
46.2424
47.2157
48.2627
49.3907
50.6076
51.9218
53.3423
54.8792
56.5429
58.3451
60.2982
62.416
64.7133
67.2063
69.9125
72.8511
76.0432
79.5116
83.2813
87.3793
91.8354
96.682
101.954
107.691
113.934
120.73
128.129
136.19
144.976
154.561
165.03
176.489
189.064
202.92
218.269
235.382
254.543
275.877
299.188
324.092
350.331
377.805
406.326
435.344
463.745
489.79
511.315
526.14
532.572
41.6399
42.306
43.0122
43.7633
44.5644
45.4208
46.3386
47.3238
48.3833
49.5243
50.7545
52.0823
53.5166
55.0673
56.7447
58.5604
60.5265
62.6566
64.9652
67.4682
70.1827
73.1276
76.3233
79.7921
83.5584
87.6485
92.0913
96.9183
102.164
107.865
114.064
120.806
128.141
136.127
144.827
154.316
164.684
176.038
188.515
202.287
217.575
234.611
253.524
274.184
296.257
319.465
343.692
368.844
394.644
420.466
445.238
467.48
485.496
497.69
502.873
41.6788
42.3532
43.0684
43.829
44.6403
45.5076
46.4367
47.4338
48.5057
49.6594
50.9027
52.2438
53.6915
55.2555
56.9462
58.7746
60.7531
62.8947
65.2136
67.7255
70.4473
73.3971
76.5951
80.0629
83.8242
87.9048
92.3328
97.1388
102.356
108.022
114.177
120.866
128.138
136.052
144.672
154.075
164.355
175.625
188.029
201.748
216.978
233.844
252.269
271.974
292.677
314.237
336.589
359.592
382.893
405.839
427.451
446.494
461.655
471.759
475.966
41.7195
42.4022
43.1263
43.8966
44.7181
45.5961
46.5366
47.5455
48.6296
49.7958
51.0519
52.4059
53.8667
55.4435
57.1468
58.9875
60.9774
63.1296
65.458
67.9778
70.7055
73.6591
76.858
80.3234
84.0784
88.1482
92.56
97.344
102.533
108.163
114.274
120.911
128.124
135.971
144.519
153.848
164.056
175.265
187.624
201.3
216.414
232.927
250.614
269.206
288.54
308.55
329.158
350.166
371.175
391.546
410.413
426.765
439.588
448.018
451.458
41.7618
42.4529
43.1861
43.966
44.7977
45.6864
46.6381
47.6587
48.7547
49.9333
51.2019
52.5684
54.0417
55.6309
57.3462
59.1983
61.199
63.3609
65.6978
68.2244
70.9571
73.9131
77.1117
80.5734
84.3208
88.3785
92.7732
97.5344
102.694
108.289
114.358
120.946
128.104
135.891
144.377
153.647
163.804
174.975
187.303
200.901
215.759
231.704
248.487
265.931
283.959
302.52
321.501
340.658
359.574
377.65
394.132
408.21
419.112
426.192
429.027
41.8057
42.5053
43.2475
44.037
44.8788
45.7783
46.741
47.7731
48.8809
50.0715
51.3522
52.7309
54.2163
55.8173
57.5439
59.4068
61.4174
63.5882
65.9325
68.465
71.2013
74.1587
77.3557
80.8126
84.5513
88.596
92.9729
97.7111
102.842
108.402
114.431
120.974
128.083
135.82
144.257
153.485
163.612
174.762
187.038
200.453
214.876
230.086
245.902
262.233
279.035
296.241
313.701
331.145
348.153
364.181
378.599
390.758
400.065
406.051
408.407
41.8511
42.5592
43.3105
44.1096
44.9615
45.8715
46.8452
47.8885
49.0079
50.2102
51.5027
52.8931
54.39
56.0022
57.7396
59.6125
61.6322
63.8109
66.1617
68.699
71.438
74.3956
77.59
81.041
84.7702
88.8012
93.1601
97.8754
102.979
108.507
114.499
121.002
128.069
135.767
144.171
153.376
163.49
174.607
186.754
199.836
213.664
228.059
242.918
258.197
273.851
289.786
305.827
321.678
336.95
351.164
363.796
374.33
382.314
387.402
389.375
41.898
42.6146
43.3749
44.1836
45.0455
45.9659
46.9504
48.0048
49.1354
50.3491
51.6529
53.0546
54.5625
56.1853
57.9327
59.8149
61.8429
64.0286
66.3851
68.9261
71.6668
74.6237
77.8146
81.2589
84.978
88.9951
93.336
98.0294
103.107
108.605
114.566
121.036
128.072
135.744
144.132
153.331
163.426
174.454
186.349
198.951
212.092
225.661
239.608
253.899
268.475
283.215
297.917
312.299
326.002
338.613
349.7
358.855
365.733
370.079
371.744
41.9464
42.6714
43.4407
44.2588
45.1306
46.0613
47.0563
48.1215
49.2631
50.4878
51.8026
53.215
54.7333
56.3662
58.1229
60.0136
62.0491
64.2411
66.6022
69.1461
71.8877
74.843
78.0297
81.4668
85.1755
89.1789
93.5028
98.1758
103.23
108.703
114.638
121.084
128.102
135.764
144.151
153.342
163.378
174.216
185.725
197.75
210.177
222.95
236.038
249.401
262.955
276.561
290.014
303.048
315.338
326.534
336.282
344.262
350.21
353.942
355.355
41.996
42.7295
43.5077
44.3352
45.2168
46.1575
47.1628
48.2385
49.3908
50.626
51.9513
53.3741
54.9023