/*--------------------------------*- C++ -*----------------------------------*\
  =========                 |
  \\      /  F ield         | OpenFOAM: The Open Source CFD Toolbox
   \\    /   O peration     | Website:  https://openfoam.org
    \\  /    A nd           | Version:  10
     \\/     M anipulation  |
\*---------------------------------------------------------------------------*/
FoamFile
{
    format      ascii;
    class       volScalarField;
    location    "11000";
    object      p;
}
// * * * * * * * * * * * * * * * * * * * * * * * * * * * * * * * * * * * * * //

dimensions      [0 2 -2 0 0 0 0];

internalField   nonuniform List<scalar> 
17922
(
15.1263
15.0037
14.8789
14.7518
14.6224
14.4907
14.3567
14.2202
14.0814
13.9401
13.7963
13.6501
13.5013
13.3499
13.196
13.0395
12.8803
12.7184
12.5539
12.3866
12.2166
12.0438
11.8682
11.6898
11.5085
11.3244
11.1374
10.9475
10.7563
10.5672
10.3819
10.2001
10.0219
9.84723
9.67596
9.50804
9.34341
9.18201
9.02378
8.86864
8.71655
8.56743
8.42122
8.27788
8.13733
7.99953
7.86442
7.73193
7.60203
7.47465
7.34974
7.22726
7.10715
6.98936
6.87385
6.76057
6.64948
6.54052
6.43366
6.32884
6.22604
6.12521
6.02631
5.9293
5.83414
5.74079
5.64921
5.55938
5.47126
5.3848
5.29999
5.21677
5.13513
5.05503
4.97644
4.89933
4.82367
4.74943
4.67659
4.60511
4.53497
4.46614
4.39859
4.3323
4.26726
4.20342
4.14077
4.07928
4.01894
3.95972
3.9016
3.84456
3.78856
15.1259
15.0033
14.8785
14.7514
14.622
14.4903
14.3563
14.2198
14.081
13.9397
13.7959
13.6497
13.5009
13.3495
13.1956
13.039
12.8798
12.718
12.5534
12.3862
12.2161
12.0433
11.8677
11.6893
11.508
11.3239
11.1369
10.947
10.7558
10.5667
10.3814
10.1996
10.0214
9.84673
9.67545
9.50753
9.3429
9.1815
9.02326
8.86812
8.71602
8.5669
8.4207
8.27735
8.1368
7.999
7.86388
7.7314
7.60149
7.47411
7.3492
7.22672
7.10661
6.98882
6.87331
6.76003
6.64893
6.53997
6.43311
6.3283
6.22549
6.12466
6.02576
5.92875
5.83359
5.74024
5.64866
5.55883
5.47071
5.38425
5.29944
5.21622
5.13458
5.05448
4.97589
4.89879
4.82313
4.74889
4.67604
4.60456
4.53442
4.46559
4.39805
4.33176
4.26672
4.20288
4.14023
4.07875
4.01841
3.95919
3.90107
3.84402
3.78803
15.1255
15.003
14.8781
14.751
14.6216
14.4899
14.3559
14.2194
14.0806
13.9393
13.7955
13.6492
13.5004
13.3491
13.1951
13.0386
12.8794
12.7175
12.553
12.3857
12.2157
12.0428
11.8672
11.6888
11.5075
11.3234
11.1364
10.9464
10.7553
10.5662
10.3808
10.1991
10.0209
9.84618
9.6749
9.50697
9.34234
9.18093
9.02269
8.86755
8.71544
8.56632
8.42011
8.27676
8.13621
7.9984
7.86328
7.7308
7.60089
7.47351
7.3486
7.22611
7.106
6.98821
6.8727
6.75942
6.64832
6.53936
6.43249
6.32768
6.22488
6.12405
6.02515
5.92813
5.83297
5.73962
5.64805
5.55822
5.4701
5.38365
5.29883
5.21562
5.13398
5.05388
4.97529
4.89819
4.82253
4.74829
4.67545
4.60397
4.53383
4.46501
4.39746
4.33118
4.26614
4.2023
4.13966
4.07818
4.01784
3.95863
3.90051
3.84347
3.78747
15.1252
15.0026
14.8777
14.7507
14.6213
14.4895
14.3555
14.219
14.0802
13.9389
13.7951
13.6488
13.5
13.3486
13.1947
13.0381
12.8789
12.7171
12.5525
12.3852
12.2152
12.0424
11.8668
11.6883
11.507
11.3229
11.1359
10.9459
10.7548
10.5657
10.3803
10.1986
10.0204
9.84565
9.67437
9.50644
9.3418
9.18039
9.02214
8.867
8.71489
8.56576
8.41955
8.2762
8.13564
7.99784
7.86271
7.73022
7.60031
7.47293
7.34802
7.22553
7.10542
6.98763
6.87212
6.75883
6.64773
6.53877
6.43191
6.3271
6.2243
6.12347
6.02456
5.92755
5.83239
5.73904
5.64747
5.55764
5.46952
5.38307
5.29825
5.21504
5.13341
5.05331
4.97472
4.89762
4.82196
4.74773
4.67489
4.60341
4.53328
4.46445
4.39691
4.33063
4.26559
4.20176
4.13912
4.07764
4.01731
3.9581
3.89998
3.84294
3.78695
15.1248
15.0022
14.8774
14.7503
14.6209
14.4892
14.3551
14.2187
14.0798
13.9385
13.7947
13.6484
13.4996
13.3482
13.1943
13.0377
12.8785
12.7167
12.5521
12.3848
12.2147
12.0419
11.8663
11.6879
11.5066
11.3224
11.1354
10.9455
10.7543
10.5652
10.3798
10.1981
10.0199
9.84516
9.67387
9.50593
9.34129
9.17988
9.02163
8.86648
8.71437
8.56523
8.41902
8.27566
8.13511
7.99729
7.86217
7.72968
7.59976
7.47238
7.34746
7.22498
7.10486
6.98707
6.87155
6.75827
6.64717
6.53821
6.43134
6.32653
6.22373
6.1229
6.024
5.92698
5.83182
5.73848
5.64691
5.55708
5.46896
5.3825
5.29769
5.21448
5.13284
5.05275
4.97416
4.89706
4.8214
4.74717
4.67433
4.60286
4.53273
4.4639
4.39637
4.33009
4.26505
4.20122
4.13858
4.07711
4.01678
3.95757
3.89946
3.84242
3.78643
15.1245
15.0019
14.8771
14.75
14.6206
14.4888
14.3548
14.2183
14.0794
13.9381
13.7943
13.6481
13.4992
13.3479
13.1939
13.0373
12.8781
12.7163
12.5517
12.3844
12.2143
12.0415
11.8659
11.6874
11.5061
11.322
11.135
10.945
10.7539
10.5648
10.3794
10.1976
10.0194
9.84468
9.67339
9.50545
9.3408
9.17938
9.02113
8.86597
8.71386
8.56472
8.4185
8.27514
8.13458
7.99676
7.86164
7.72914
7.59923
7.47184
7.34692
7.22443
7.10431
6.98652
6.871
6.75772
6.64662
6.53765
6.43079
6.32597
6.22317
6.12234
6.02344
5.92642
5.83126
5.73792
5.64635
5.55652
5.46839
5.38194
5.29713
5.21392
5.13228
5.05219
4.97361
4.8965
4.82085
4.74662
4.67378
4.60231
4.53218
4.46335
4.39582
4.32955
4.26451
4.20068
4.13805
4.07658
4.01625
3.95704
3.89893
3.8419
3.78591
15.1242
15.0016
14.8768
14.7497
14.6203
14.4885
14.3544
14.218
14.0791
13.9378
13.794
13.6477
13.4989
13.3475
13.1936
13.037
12.8778
12.7159
12.5513
12.384
12.2139
12.0411
11.8655
11.687
11.5057
11.3216
11.1345
10.9446
10.7534
10.5643
10.3789
10.1972
10.0189
9.84422
9.67292
9.50498
9.34033
9.17891
9.02065
8.86549
8.71337
8.56422
8.418
8.27463
8.13407
7.99625
7.86112
7.72862
7.5987
7.47131
7.34639
7.2239
7.10377
6.98598
6.87046
6.75717
6.64607
6.53711
6.43024
6.32542
6.22262
6.12179
6.02288
5.92587
5.83071
5.73736
5.64579
5.55596
5.46784
5.38139
5.29657
5.21336
5.13173
5.05163
4.97305
4.89595
4.8203
4.74607
4.67323
4.60176
4.53163
4.46281
4.39528
4.329
4.26397
4.20015
4.13751
4.07605
4.01572
3.95652
3.89841
3.84138
3.78539
15.1239
15.0013
14.8765
14.7494
14.62
14.4882
14.3541
14.2177
14.0788
13.9375
13.7937
13.6474
13.4986
13.3472
13.1932
13.0366
12.8774
12.7155
12.5509
12.3836
12.2136
12.0407
11.8651
11.6866
11.5053
11.3212
11.1341
10.9442
10.753
10.5639
10.3785
10.1967
10.0185
9.84379
9.67248
9.50453
9.33987
9.17844
9.02018
8.86501
8.71289
8.56374
8.41751
8.27414
8.13357
7.99575
7.86061
7.72811
7.59819
7.47079
7.34587
7.22337
7.10325
6.98545
6.86993
6.75664
6.64553
6.53657
6.4297
6.32488
6.22208
6.12124
6.02233
5.92532
5.83016
5.73681
5.64524
5.55541
5.46729
5.38083
5.29602
5.21281
5.13118
5.05108
4.9725
4.8954
4.81975
4.74552
4.67268
4.60121
4.53108
4.46227
4.39474
4.32846
4.26343
4.19961
4.13698
4.07552
4.0152
3.95599
3.89789
3.84086
3.78487
15.1237
15.001
14.8762
14.7491
14.6197
14.4879
14.3538
14.2174
14.0785
13.9372
13.7934
13.6471
13.4982
13.3469
13.1929
13.0363
12.8771
12.7152
12.5506
12.3833
12.2132
12.0404
11.8647
11.6863
11.505
11.3208
11.1338
10.9438
10.7526
10.5635
10.3781
10.1963
10.0181
9.84336
9.67205
9.5041
9.33944
9.178
9.01973
8.86456
8.71243
8.56327
8.41704
8.27367
8.13309
7.99526
7.86012
7.72761
7.59769
7.47029
7.34536
7.22286
7.10273
6.98493
6.86941
6.75611
6.64501
6.53604
6.42916
6.32435
6.22154
6.1207
6.0218
5.92478
5.82962
5.73627
5.64469
5.55486
5.46674
5.38029
5.29547
5.21227
5.13063
5.05054
4.97195
4.89485
4.8192
4.74497
4.67214
4.60067
4.53054
4.46173
4.3942
4.32793
4.2629
4.19908
4.13645
4.07499
4.01467
3.95547
3.89737
3.84034
3.78435
15.1234
15.0008
14.8759
14.7488
14.6194
14.4877
14.3536
14.2171
14.0782
13.9369
13.7931
13.6468
13.4979
13.3466
13.1926
13.036
12.8768
12.7149
12.5503
12.3829
12.2129
12.04
11.8644
11.6859
11.5046
11.3204
11.1334
10.9435
10.7523
10.5631
10.3777
10.1959
10.0177
9.84296
9.67164
9.50368
9.33901
9.17757
9.01929
8.86412
8.71198
8.56282
8.41658
8.2732
8.13262
7.99479
7.85964
7.72713
7.5972
7.46979
7.34486
7.22236
7.10223
6.98442
6.8689
6.7556
6.64449
6.53552
6.42864
6.32382
6.22101
6.12017
6.02126
5.92425
5.82908
5.73573
5.64416
5.55432
5.4662
5.37975
5.29493
5.21172
5.13009
5.04999
4.97141
4.89431
4.81866
4.74443
4.6716
4.60013
4.53001
4.46119
4.39366
4.3274
4.26237
4.19855
4.13593
4.07447
4.01415
3.95495
3.89685
3.83982
3.78384
15.1232
15.0005
14.8757
14.7486
14.6192
14.4874
14.3533
14.2168
14.078
13.9366
13.7928
13.6465
13.4977
13.3463
13.1923
13.0357
12.8765
12.7146
12.55
12.3826
12.2126
12.0397
11.8641
11.6856
11.5043
11.3201
11.1331
10.9431
10.7519
10.5628
10.3774
10.1956
10.0173
9.84257
9.67125
9.50328
9.33861
9.17716
9.01888
8.86369
8.71155
8.56239
8.41614
8.27275
8.13217
7.99433
7.85918
7.72666
7.59672
7.46931
7.34438
7.22187
7.10173
6.98392
6.86839
6.75509
6.64398
6.535
6.42813
6.3233
6.22049
6.11965
6.02074
5.92372
5.82855
5.7352
5.64362
5.55379
5.46566
5.37921
5.2944
5.21119
5.12955
5.04946
4.97088
4.89377
4.81812
4.7439
4.67106
4.5996
4.52947
4.46066
4.39313
4.32687
4.26184
4.19803
4.1354
4.07395
4.01363
3.95444
3.89634
3.83931
3.78332
15.1229
15.0003
14.8755
14.7484
14.6189
14.4872
14.3531
14.2166
14.0777
13.9364
13.7926
13.6463
13.4974
13.346
13.192
13.0354
12.8762
12.7143
12.5497
12.3823
12.2123
12.0394
11.8638
11.6853
11.504
11.3198
11.1327
10.9428
10.7516
10.5624
10.377
10.1952
10.017
9.8422
9.67087
9.5029
9.33822
9.17676
9.01847
8.86328
8.71113
8.56196
8.41571
8.27232
8.13173
7.99388
7.85872
7.7262
7.59626
7.46884
7.3439
7.22139
7.10125
6.98344
6.8679
6.7546
6.64348
6.5345
6.42762
6.32279
6.21998
6.11913
6.02022
5.9232
5.82803
5.73467
5.6431
5.55326
5.46514
5.37868
5.29387
5.21066
5.12902
5.04893
4.97034
4.89324
4.81759
4.74337
4.67053
4.59907
4.52894
4.46013
4.3926
4.32634
4.26132
4.1975
4.13488
4.07343
4.01312
3.95393
3.89583
3.8388
3.78281
15.1227
15.0001
14.8753
14.7481
14.6187
14.487
14.3529
14.2164
14.0775
13.9361
13.7923
13.646
13.4972
13.3458
13.1918
13.0352
12.8759
12.714
12.5494
12.3821
12.212
12.0391
11.8635
11.685
11.5037
11.3195
11.1324
10.9425
10.7512
10.5621
10.3767
10.1949
10.0166
9.84185
9.67051
9.50253
9.33784
9.17638
9.01809
8.86289
8.71073
8.56155
8.41529
8.27189
8.1313
7.99344
7.85828
7.72575
7.59581
7.46838
7.34344
7.22092
7.10078
6.98296
6.86742
6.75411
6.64299
6.53401
6.42712
6.32229
6.21947
6.11863
6.01971
5.92269
5.82751
5.73416
5.64258
5.55274
5.46461
5.37816
5.29334
5.21013
5.12849
5.0484
4.96982
4.89271
4.81707
4.74284
4.67001
4.59854
4.52842
4.45961
4.39208
4.32582
4.2608
4.19699
4.13437
4.07292
4.01261
3.95342
3.89532
3.83829
3.78231
15.1226
14.9999
14.8751
14.7479
14.6185
14.4868
14.3527
14.2162
14.0773
13.9359
13.7921
13.6458
13.497
13.3455
13.1916
13.0349
12.8757
12.7138
12.5492
12.3818
12.2117
12.0389
11.8632
11.6847
11.5034
11.3192
11.1321
10.9422
10.7509
10.5618
10.3764
10.1945
10.0163
9.84151
9.67017
9.50218
9.33749
9.17602
9.01771
8.86251
8.71034
8.56116
8.41489
8.27149
8.13088
7.99302
7.85785
7.72532
7.59536
7.46794
7.34299
7.22046
7.10031
6.98249
6.86695
6.75363
6.64251
6.53352
6.42663
6.3218
6.21898
6.11813
6.01921
5.92218
5.82701
5.73365
5.64207
5.55223
5.4641
5.37764
5.29282
5.20961
5.12797
5.04788
4.9693
4.89219
4.81654
4.74232
4.66949
4.59802
4.5279
4.45909
4.39156
4.3253
4.26028
4.19648
4.13386
4.07241
4.0121
3.95292
3.89482
3.83779
3.78181
15.1224
14.9998
14.8749
14.7478
14.6183
14.4866
14.3525
14.216
14.0771
13.9357
13.7919
13.6456
13.4967
13.3453
13.1913
13.0347
12.8755
12.7135
12.5489
12.3816
12.2115
12.0386
11.8629
11.6845
11.5031
11.3189
11.1319
10.9419
10.7507
10.5615
10.3761
10.1942
10.016
9.84119
9.66984
9.50185
9.33714
9.17567
9.01735
8.86214
8.70997
8.56078
8.4145
8.27109
8.13048
7.99261
7.85744
7.7249
7.59494
7.4675
7.34255
7.22002
7.09986
6.98203
6.86648
6.75317
6.64203
6.53304
6.42615
6.32132
6.21849
6.11764
6.01871
5.92168
5.82651
5.73314
5.64156
5.55172
5.46359
5.37713
5.29231
5.2091
5.12746
5.04736
4.96878
4.89168
4.81603
4.7418
4.66897
4.59751
4.52738
4.45857
4.39105
4.32479
4.25978
4.19597
4.13336
4.07191
4.0116
3.95242
3.89432
3.8373
3.78131
15.1222
14.9996
14.8747
14.7476
14.6182
14.4864
14.3523
14.2158
14.0769
13.9356
13.7917
13.6454
13.4966
13.3451
13.1911
13.0345
12.8753
12.7133
12.5487
12.3814
12.2113
12.0384
11.8627
11.6842
11.5029
11.3187
11.1316
10.9416
10.7504
10.5612
10.3758
10.1939
10.0157
9.84089
9.66953
9.50153
9.33682
9.17533
9.01701
8.86179
8.70961
8.56041
8.41413
8.27071
8.13009
7.99222
7.85703
7.72449
7.59452
7.46708
7.34212
7.21958
7.09942
6.98159
6.86603
6.75271
6.64157
6.53258
6.42568
6.32084
6.21801
6.11715
6.01823
5.92119
5.82601
5.73265
5.64106
5.55122
5.46309
5.37663
5.29181
5.20859
5.12695
5.04686
4.96827
4.89117
4.81552
4.74129
4.66846
4.597
4.52688
4.45807
4.39055
4.32429
4.25927
4.19547
4.13286
4.07141
4.01111
3.95193
3.89383
3.83681
3.78082
15.5908
15.4768
15.3607
15.2425
15.1221
14.9994
14.8746
14.7475
14.618
14.4863
14.3522
14.2157
14.0768
13.9354
13.7916
13.6453
13.4964
13.345
13.191
13.0343
12.8751
12.7131
12.5485
12.3812
12.211
12.0382
11.8625
11.684
11.5027
11.3185
11.1314
10.9414
10.7501
10.561
10.3755
10.1937
10.0154
9.8406
9.66923
9.50122
9.3365
9.17501
9.01668
8.86145
8.70927
8.56006
8.41377
8.27034
8.12971
7.99183
7.85664
7.72409
7.59412
7.46667
7.3417
7.21916
7.09899
6.98115
6.86559
6.75226
6.64112
6.53212
6.42522
6.32038
6.21754
6.11668
6.01775
5.92071
5.82553
5.73216
5.64058
5.55073
5.4626
5.37613
5.29131
5.20809
5.12645
5.04636
4.96777
4.89067
4.81502
4.74079
4.66796
4.5965
4.52638
4.45757
4.39005
4.32379
4.25878
4.19498
4.13237
4.07092
4.01062
3.95144
3.89335
3.83632
3.78033
15.5907
15.4767
15.3606
15.2424
15.1219
14.9993
14.8745
14.7473
14.6179
14.4861
14.352
14.2155
14.0766
13.9353
13.7914
13.6451
13.4962
13.3448
13.1908
13.0342
12.8749
12.713
12.5483
12.381
12.2109
12.038
11.8623
11.6838
11.5024
11.3182
11.1311
10.9411
10.7499
10.5607
10.3753
10.1934
10.0151
9.84032
9.66895
9.50093
9.3362
9.1747
9.01637
8.86113
8.70894
8.55972
8.41342
8.26998
8.12935
7.99146
7.85627
7.7237
7.59372
7.46627
7.34129
7.21874
7.09857
6.98072
6.86516
6.75183
6.64068
6.53168
6.42477
6.31992
6.21708
6.11622
6.01728
5.92024
5.82506
5.73169
5.6401
5.55025
5.46211
5.37565
5.29082
5.2076
5.12596
5.04586
4.96728
4.89017
4.81452
4.7403
4.66747
4.596
4.52588
4.45708
4.38956
4.3233
4.25829
4.19449
4.13188
4.07044
4.01015
3.95096
3.89287
3.83584
3.77985
15.5905
15.4766
15.3605
15.2422
15.1218
14.9992
14.8743
14.7472
14.6178
14.486
14.3519
14.2154
14.0765
13.9351
13.7913
13.645
13.4961
13.3447
13.1907
13.034
12.8747
12.7128
12.5482
12.3808
12.2107
12.0378
11.8621
11.6836
11.5022
11.318
11.1309
10.9409
10.7497
10.5605
10.375
10.1932
10.0149
9.84006
9.66868
9.50065
9.33592
9.17441
9.01607
8.86082
8.70862
8.55939
8.41309
8.26964
8.129
7.99111
7.8559
7.72333
7.59334
7.46588
7.3409
7.21834
7.09816
6.98031
6.86474
6.7514
6.64025
6.53124
6.42433
6.31947
6.21663
6.11576
6.01683
5.91978
5.82459
5.73122
5.63963
5.54978
5.46164
5.37517
5.29034
5.20712
5.12548
5.04538
4.96679
4.88969
4.81404
4.73981
4.66698
4.59552
4.5254
4.45659
4.38908
4.32282
4.25781
4.19402
4.13141
4.06997
4.00967
3.95049
3.8924
3.83537
3.77938
15.9199
15.8121
15.7023
15.5904
15.4765
15.3604
15.2422
15.1217
14.9991
14.8743
14.7471
14.6177
14.4859
14.3518
14.2153
14.0764
13.935
13.7912
13.6448
13.496
13.3445
13.1905
13.0339
12.8746
12.7127
12.548
12.3806
12.2105
12.0376
11.8619
11.6834
11.5021
11.3178
11.1307
10.9407
10.7495
10.5603
10.3748
10.1929
10.0146
9.83982
9.66843
9.50039
9.33565
9.17413
9.01578
8.86053
8.70831
8.55908
8.41277
8.26931
8.12866
7.99076
7.85555
7.72297
7.59297
7.46551
7.34052
7.21795
7.09777
6.97991
6.86433
6.75099
6.63983
6.53082
6.4239
6.31904
6.21619
6.11532
6.01638
5.91933
5.82414
5.73076
5.63916
5.54931
5.46117
5.3747
5.28987
5.20665
5.12501
5.04491
4.96632
4.88921
4.81356
4.73934
4.66651
4.59504
4.52492
4.45612
4.3886
4.32235
4.25734
4.19355
4.13094
4.06951
4.00921
3.95003
3.89194
3.83491
3.77891
15.9198
15.8121
15.7022
15.5904
15.4764
15.3603
15.2421
15.1217
14.999
14.8742
14.747
14.6176
14.4858
14.3517
14.2152
14.0763
13.9349
13.7911
13.6447
13.4959
13.3444
13.1904
13.0338
12.8745
12.7125
12.5479
12.3805
12.2104
12.0375
11.8618
11.6833
11.5019
11.3177
11.1306
10.9405
10.7493
10.5601
10.3746
10.1927
10.0144
9.83959
9.66819
9.50015
9.33539
9.17387
9.01551
8.86025
8.70802
8.55878
8.41246
8.269
8.12834
7.99043
7.85521
7.72262
7.59262
7.46515
7.34015
7.21758
7.09738
6.97952
6.86394
6.75058
6.63942
6.5304
6.42348
6.31862
6.21577
6.11489
6.01594
5.91889
5.82369
5.73031
5.63871
5.54886
5.46071
5.37424
5.28941
5.20619
5.12454
5.04444
4.96585
4.88875
4.8131
4.73887
4.66604
4.59458
4.52446
4.45565
4.38814
4.32189
4.25688
4.19309
4.13049
4.06905
4.00876
3.94958
3.89149
3.83446
3.77845
15.9198
15.812
15.7022
15.5903
15.4764
15.3603
15.242
15.1216
14.999
14.8741
14.747
14.6175
14.4858
14.3516
14.2151
14.0762
13.9348
13.791
13.6446
13.4958
13.3443
13.1903
13.0337
12.8744
12.7124
12.5478
12.3804
12.2102
12.0373
11.8616
11.6831
11.5018
11.3175
11.1304
10.9404
10.7491
10.5599
10.3744
10.1925
10.0142
9.83937
9.66797
9.49991
9.33515
9.17362
9.01525
8.85998
8.70775
8.5585
8.41217
8.2687
8.12803
7.99011
7.85488
7.72229
7.59228
7.4648
7.33979
7.21721
7.09701
6.97914
6.86355
6.7502
6.63903
6.53
6.42307
6.3182
6.21535
6.11447
6.01552
5.91846
5.82326
5.72988
5.63828
5.54842
5.46027
5.3738
5.28896
5.20574
5.12409
5.04399
4.9654
4.88829
4.81264
4.73841
4.66558
4.59412
4.524
4.4552
4.38769
4.32144
4.25643
4.19264
4.13004
4.06861
4.00832
3.94914
3.89105
3.83401
3.778
15.9197
15.812
15.7021
15.5903
15.4763
15.3602
15.242
15.1216
14.9989
14.8741
14.7469
14.6175
14.4857
14.3516
14.2151
14.0761
13.9348
13.7909
13.6446
13.4957
13.3442
13.1902
13.0336
12.8743
12.7123
12.5476
12.3803
12.2101
12.0372
11.8615
11.683
11.5016
11.3174
11.1303
10.9402
10.7489
10.5597
10.3742
10.1923
10.014
9.83917
9.66776
9.4997
9.33493
9.17339
9.01501
8.85973
8.70749
8.55823
8.41189
8.26841
8.12774
7.98981
7.85457
7.72197
7.59195
7.46446
7.33945
7.21686
7.09666
6.97878
6.86318
6.74982
6.63864
6.52961
6.42268
6.31781
6.21494
6.11406
6.0151
5.91804
5.82284
5.72945
5.63785
5.54799
5.45984
5.37336
5.28853
5.2053
5.12365
5.04355
4.96496
4.88785
4.8122
4.73797
4.66514
4.59368
4.52356
4.45476
4.38725
4.321
4.256
4.19221
4.12961
4.06818
4.00789
3.94871
3.89062
3.83358
3.77756
15.9197
15.8119
15.7021
15.5902
15.4763
15.3602
15.2419
15.1215
14.9989
14.874
14.7469
14.6174
14.4857
14.3515
14.215
14.0761
13.9347
13.7909
13.6445
13.4956
13.3442
13.1901
13.0335
12.8742
12.7122
12.5476
12.3802
12.21
12.0371
11.8614
11.6829
11.5015
11.3173
11.1301
10.9401
10.7488
10.5596
10.3741
10.1922
10.0138
9.83898
9.66756
9.49949
9.33472
9.17316
9.01478
8.85949
8.70724
8.55797
8.41163
8.26814
8.12746
7.98952
7.85427
7.72166
7.59164
7.46414
7.33912
7.21653
7.09631
6.97843
6.86282
6.74945
6.63827
6.52924
6.4223
6.31742
6.21455
6.11366
6.0147
5.91764
5.82243
5.72904
5.63743
5.54757
5.45942
5.37294
5.2881
5.20488
5.12322
5.04312
4.96453
4.88742
4.81177
4.73754
4.66471
4.59325
4.52313
4.45433
4.38682
4.32058
4.25557
4.19179
4.12919
4.06776
4.00747
3.94829
3.8902
3.83315
3.77713
15.9197
15.8119
15.7021
15.5902
15.4763
15.3602
15.2419
15.1215
14.9989
14.874
14.7468
14.6174
14.4856
14.3515
14.215
14.076
13.9347
13.7908
13.6445
13.4956
13.3441
13.1901
13.0334
12.8741
12.7121
12.5475
12.3801
12.2099
12.037
11.8613
11.6828
11.5014
11.3171
11.13
10.94
10.7487
10.5594
10.3739
10.192
10.0137
9.83881
9.66738
9.49931
9.33452
9.17296
9.01456
8.85927
8.70701
8.55773
8.41138
8.26788
8.12719
7.98924
7.85399
7.72137
7.59134
7.46383
7.3388
7.2162
7.09598
6.97809
6.86248
6.74911
6.63792
6.52888
6.42193
6.31705
6.21418
6.11328
6.01432
5.91725
5.82204
5.72865
5.63703
5.54717
5.45901
5.37253
5.28769
5.20446
5.12281
5.0427
4.96411
4.887
4.81135
4.73712
4.66429
4.59283
4.52271
4.45391
4.38641
4.32016
4.25516
4.19138
4.12879
4.06736
4.00707
3.94789
3.88979
3.83274
3.77672
15.9197
15.8119
15.7021
15.5902
15.4763
15.3602
15.2419
15.1215
14.9989
14.874
14.7468
14.6174
14.4856
14.3515
14.215
14.076
13.9346
13.7908
13.6444
13.4955
13.3441
13.19
13.0334
12.8741
12.7121
12.5474
12.38
12.2099
12.0369
11.8612
11.6827
11.5013
11.317
11.1299
10.9398
10.7485
10.5593
10.3738
10.1919
10.0135
9.83866
9.66722
9.49913
9.33434
9.17277
9.01436
8.85906
8.70679
8.55751
8.41114
8.26764
8.12694
7.98898
7.85372
7.72109
7.59105
7.46354
7.3385
7.2159
7.09567
6.97777
6.86215
6.74877
6.63758
6.52853
6.42158
6.31669
6.21381
6.11291
6.01395
5.91687
5.82166
5.72826
5.63665
5.54678
5.45862
5.37214
5.2873
5.20407
5.12241
5.0423
4.96371
4.8866
4.81095
4.73672
4.66389
4.59243
4.52231
4.45351
4.38601
4.31977
4.25477
4.19098
4.12839
4.06697
4.00668
3.9475
3.88939
3.83234
3.77631
15.9197
15.8119
15.7021
15.5902
15.4763
15.3602
15.2419
15.1215
14.9989
14.874
14.7468
14.6174
14.4856
14.3515
14.215
14.076
13.9346
13.7908
13.6444
13.4955
13.344
13.19
13.0333
12.874
12.712
12.5474
12.38
12.2098
12.0369
11.8612
11.6826
11.5012
11.317
11.1298
10.9397
10.7484
10.5592
10.3737
10.1917
10.0134
9.83851
9.66707
9.49897
9.33417
9.17259
9.01418
8.85887
8.70659
8.5573
8.41092
8.26741
8.1267
7.98874
7.85347
7.72083
7.59078
7.46326
7.33822
7.2156
7.09537
6.97746
6.86184
6.74845
6.63725
6.5282
6.42124
6.31635
6.21347
6.11256
6.01359
5.91651
5.8213
5.72789
5.63628
5.5464
5.45824
5.37176
5.28692
5.20368
5.12203
5.04192
4.96332
4.88621
4.81056
4.73633
4.6635
4.59204
4.52193
4.45313
4.38562
4.31938
4.25439
4.19061
4.12802
4.06659
4.0063
3.94712
3.88901
3.83195
3.77592
15.9197
15.812
15.7021
15.5903
15.4763
15.3602
15.242
15.1215
14.9989
14.874
14.7469
14.6174
14.4856
14.3515
14.215
14.076
13.9346
13.7908
13.6444
13.4955
13.344
13.19
13.0333
12.874
12.712
12.5473
12.3799
12.2098
12.0368
11.8611
11.6826
11.5012
11.3169
11.1297
10.9397
10.7483
10.5591
10.3735
10.1916
10.0133
9.83838
9.66693
9.49883
9.33402
9.17243
9.01401
8.85869
8.70641
8.5571
8.41072
8.2672
8.12648
7.98851
7.85323
7.72059
7.59053
7.463
7.33795
7.21533
7.09509
6.97717
6.86154
6.74815
6.63694
6.52788
6.42092
6.31602
6.21314
6.11223
6.01325
5.91617
5.82095
5.72754
5.63592
5.54605
5.45788
5.3714
5.28655
5.20332
5.12166
5.04155
4.96296
4.88585
4.81019
4.73596
4.66313
4.59167
4.52156
4.45276
4.38526
4.31902
4.25403
4.19025
4.12766
4.06624
4.00595
3.94676
3.88865
3.83158
3.77554
15.9198
15.812
15.7022
15.5903
15.4763
15.3602
15.242
15.1216
14.9989
14.874
14.7469
14.6174
14.4856
14.3515
14.215
14.076
13.9346
13.7908
13.6444
13.4955
13.344
13.19
13.0333
12.874
12.712
12.5473
12.3799
12.2097
12.0368
11.8611
11.6825
11.5011
11.3168
11.1297
10.9396
10.7483
10.559
10.3735
10.1915
10.0132
9.83827
9.66681
9.4987
9.33388
9.17229
9.01386
8.85853
8.70624
8.55692
8.41053
8.267
8.12628
7.9883
7.85301
7.72036
7.59029
7.46275
7.3377
7.21507
7.09482
6.9769
6.86126
6.74786
6.63665
6.52758
6.42062
6.31571
6.21282
6.11191
6.01293
5.91584
5.82062
5.72721
5.63559
5.54571
5.45754
5.37105
5.28621
5.20297
5.12131
5.0412
4.9626
4.88549
4.80984
4.73561
4.66278
4.59132
4.52121
4.45241
4.38491
4.31868
4.25368
4.18991
4.12732
4.0659
4.00561
3.94642
3.8883
3.83123
3.77518
15.9198
15.8121
15.7022
15.5904
15.4764
15.3603
15.242
15.1216
14.999
14.8741
14.7469
14.6175
14.4857
14.3515
14.215
14.0761
13.9347
13.7908
13.6444
13.4955
13.344
13.19
13.0333
12.874
12.712
12.5473
12.3799
12.2097
12.0368
11.861
11.6825
11.5011
11.3168
11.1296
10.9395
10.7482
10.5589
10.3734
10.1914
10.0131
9.83817
9.6667
9.49859
9.33376
9.17216
9.01372
8.85838
8.70608
8.55676
8.41036
8.26682
8.12609
7.9881
7.8528
7.72015
7.59007
7.46253
7.33746
7.21483
7.09457
6.97664
6.861
6.74759
6.63637
6.5273
6.42033
6.31542
6.21253
6.11161
6.01262
5.91554
5.82031
5.72689
5.63527
5.54539
5.45722
5.37073
5.28588
5.20264
5.12098
5.04087
4.96227
4.88516
4.80951
4.73528
4.66245
4.59099
4.52088
4.45208
4.38458
4.31835
4.25336
4.18959
4.127
4.06558
4.00529
3.94609
3.88797
3.83089
3.77485
15.9199
15.8121
15.7023
15.5904
15.4764
15.3603
15.2421
15.1217
14.999
14.8741
14.747
14.6175
14.4857
14.3516
14.215
14.0761
13.9347
13.7908
13.6444
13.4955
13.3441
13.19
13.0333
12.874
12.712
12.5473
12.3799
12.2097
12.0368
11.861
11.6825
11.5011
11.3168
11.1296
10.9395
10.7482
10.5589
10.3733
10.1914
10.013
9.83809
9.66661
9.49849
9.33366
9.17205
9.0136
8.85825
8.70594
8.55662
8.41021
8.26666
8.12592
7.98792
7.85262
7.71995
7.58987
7.46232
7.33725
7.2146
7.09434
6.97641
6.86076
6.74734
6.63612
6.52704
6.42007
6.31515
6.21225
6.11133
6.01234
5.91525
5.82001
5.7266
5.63497
5.54509
5.45691
5.37042
5.28557
5.20233
5.12067
5.04056
4.96196
4.88485
4.80919
4.73497
4.66214
4.59068
4.52057
4.45178
4.38428
4.31805
4.25306
4.18929
4.1267
4.06528
4.00499
3.94579
3.88766
3.83058
3.77454
15.92
15.8122
15.7024
15.5905
15.4765
15.3604
15.2422
15.1217
14.9991
14.8742
14.747
14.6176
14.4858
14.3516
14.2151
14.0761
13.9347
13.7909
13.6445
13.4956
13.3441
13.19
13.0333
12.874
12.712
12.5473
12.3799
12.2097
12.0368
11.861
11.6825
11.5011
11.3168
11.1296
10.9395
10.7481
10.5589
10.3733
10.1913
10.0129
9.83803
9.66654
9.49841
9.33357
9.17195
9.0135
8.85814
8.70583
8.55649
8.41007
8.26652
8.12577
7.98776
7.85245
7.71978
7.58969
7.46213
7.33705
7.2144
7.09413
6.97619
6.86053
6.74711
6.63588
6.5268
6.41982
6.3149
6.21199
6.11107
6.01207
5.91498
5.81974
5.72632
5.63469
5.54481
5.45663
5.37014
5.28528
5.20204
5.12038
5.04027
4.96167
4.88456
4.8089
4.73468
4.66185
4.59039
4.52028
4.45149
4.38399
4.31776
4.25278
4.18901
4.12643
4.065
4.00471
3.94551
3.88737
3.83028
3.77425
15.9201
15.8123
15.7025
15.5906
15.4766
15.3605
15.2423
15.1218
14.9992
14.8743
14.7471
14.6177
14.4859
14.3517
14.2152
14.0762
13.9348
13.7909
13.6445
13.4956
13.3441
13.1901
13.0334
12.8741
12.712
12.5473
12.3799
12.2097
12.0368
11.861
11.6825
11.5011
11.3168
11.1296
10.9395
10.7481
10.5588
10.3732
10.1913
10.0129
9.83798
9.66648
9.49834
9.3335
9.17187
9.01341
8.85805
8.70572
8.55638
8.40995
8.26639
8.12563
7.98762
7.8523
7.71962
7.58952
7.46196
7.33687
7.21421
7.09394
6.97599
6.86033
6.7469
6.63567
6.52658
6.41959
6.31467
6.21176
6.11083
6.01183
5.91473
5.81949
5.72607
5.63444
5.54455
5.45637
5.36987
5.28502
5.20178
5.12012
5.04
4.9614
4.88429
4.80864
4.73441
4.66158
4.59013
4.52002
4.45123
4.38373
4.31751
4.25252
4.18876
4.12617
4.06475
4.00445
3.94525
3.88711
3.83002
3.77401
15.9202
15.8124
15.7026
15.5907
15.4767
15.3606
15.2424
15.1219
14.9993
14.8744
14.7472
14.6177
14.4859
14.3518
14.2152
14.0763
13.9349
13.791
13.6446
13.4957
13.3442
13.1901
13.0334
12.8741
12.7121
12.5474
12.38
12.2098
12.0368
11.8611
11.6825
11.5011
11.3168
11.1296
10.9395
10.7481
10.5588
10.3732
10.1913
10.0129
9.83794
9.66644
9.4983
9.33344
9.17181
9.01334
8.85797
8.70564
8.55629
8.40986
8.26628
8.12552
7.9875
7.85217
7.71948
7.58938
7.46181
7.33671
7.21405
7.09377
6.97581
6.86015
6.74671
6.63547
6.52638
6.41939
6.31446
6.21155
6.11061
6.01161
5.91451
5.81926
5.72584
5.6342
5.54431
5.45614
5.36964
5.28478
5.20154
5.11988
5.03976
4.96116
4.88405
4.80839
4.73417
4.66134
4.58989
4.51978
4.45099
4.3835
4.31727
4.25229
4.18853
4.12595
4.06452
4.00422
3.94501
3.88687
3.82979
3.77381
15.9203
15.8125
15.7027
15.5908
15.4768
15.3607
15.2425
15.122
14.9994
14.8745
14.7473
14.6178
14.486
14.3519
14.2153
14.0764
13.935
13.7911
13.6447
13.4958
13.3443
13.1902
13.0335
12.8742
12.7122
12.5474
12.38
12.2098
12.0369
11.8611
11.6825
11.5011
11.3168
11.1296
10.9395
10.7481
10.5588
10.3732
10.1913
10.0128
9.83792
9.66642
9.49827
9.3334
9.17177
9.01329
8.85791
8.70558
8.55622
8.40978
8.2662
8.12542
7.9874
7.85206
7.71937
7.58926
7.46168
7.33658
7.21391
7.09362
6.97566
6.85999
6.74655
6.6353
6.52621
6.41921
6.31428
6.21136
6.11042
6.01142
5.91431
5.81906
5.72564
5.634
5.5441
5.45592
5.36942
5.28457
5.20132
5.11966
5.03954
4.96095
4.88383
4.80818
4.73395
4.66113
4.58967
4.51957
4.45078
4.38329
4.31707
4.25209
4.18833
4.12575
4.06432
4.00402
3.9448
3.88665
3.82958
3.77365
16.0262
15.9204
15.8126
15.7028
15.5909
15.4769
15.3608
15.2426
15.1221
14.9995
14.8746
14.7474
14.6179
14.4862
14.352
14.2154
14.0765
13.9351
13.7912
13.6448
13.4959
13.3444
13.1903
13.0336
12.8742
12.7122
12.5475
12.3801
12.2099
12.0369
11.8612
11.6826
11.5012
11.3169
11.1297
10.9395
10.7482
10.5589
10.3732
10.1913
10.0129
9.83792
9.66641
9.49826
9.33339
9.17174
9.01326
8.85788
8.70553
8.55616
8.40972
8.26613
8.12535
7.98732
7.85198
7.71927
7.58916
7.46157
7.33646
7.21379
7.09349
6.97553
6.85985
6.74641
6.63516
6.52605
6.41906
6.31412
6.21119
6.11025
6.01124
5.91414
5.81889
5.72546
5.63382
5.54392
5.45574
5.36924
5.28438
5.20114
5.11947
5.03936
4.96076
4.88364
4.80799
4.73377
4.66094
4.58949
4.51939
4.4506
4.38311
4.31689
4.25192
4.18815
4.12558
4.06415
4.00384
3.94462
3.88648
3.82942
3.77353
16.0263
15.9206
15.8128
15.703
15.5911
15.4771
15.361
15.2427
15.1223
14.9996
14.8747
14.7475
14.6181
14.4863
14.3521
14.2156
14.0766
13.9352
13.7913
13.6449
13.496
13.3445
13.1904
13.0337
12.8743
12.7123
12.5476
12.3801
12.21
12.037
11.8612
11.6826
11.5012
11.3169
11.1297
10.9396
10.7482
10.5589
10.3733
10.1913
10.0129
9.83794
9.66643
9.49826
9.33339
9.17174
9.01325
8.85786
8.70551
8.55613
8.40968
8.26609
8.1253
7.98726
7.85191
7.7192
7.58908
7.46149
7.33638
7.21369
7.09339
6.97542
6.85974
6.74629
6.63504
6.52593
6.41893
6.31398
6.21106
6.11011
6.0111
5.91399
5.81874
5.72531
5.63366
5.54377
5.45558
5.36908
5.28422
5.20098
5.11931
5.0392
4.9606
4.88349
4.80783
4.73361
4.66078
4.58933
4.51923
4.45045
4.38297
4.31675
4.25177
4.18801
4.12543
4.06401
4.0037
3.94448
3.88634
3.82931
3.77344
16.0265
15.9207
15.8129
15.7031
15.5912
15.4772
15.3611
15.2429
15.1224
14.9998
14.8749
14.7477
14.6182
14.4864
14.3522
14.2157
14.0767
13.9353
13.7914
13.645
13.4961
13.3446
13.1905
13.0338
12.8744
12.7124
12.5477
12.3802
12.21
12.0371
11.8613
11.6827
11.5013
11.317
11.1298
10.9396
10.7483
10.5589
10.3733
10.1913
10.0129
9.83798
9.66646
9.49829
9.33341
9.17175
9.01326
8.85786
8.7055
8.55612
8.40966
8.26607
8.12527
7.98723
7.85187
7.71916
7.58903
7.46143
7.33631
7.21362
7.09332
6.97534
6.85965
6.7462
6.63494
6.52583
6.41882
6.31388
6.21095
6.11
6.01098
5.91387
5.81862
5.72518
5.63354
5.54364
5.45546
5.36895
5.28409
5.20085
5.11918
5.03907
4.96047
4.88336
4.8077
4.73348
4.66066
4.58921
4.51911
4.45033
4.38285
4.31664
4.25166
4.1879
4.12532
4.06389
4.00358
3.94436
3.88623
3.82924
16.0267
15.9209
15.8131
15.7033
15.5914
15.4774
15.3613
15.243
15.1226
14.9999
14.875
14.7478
14.6184
14.4865
14.3524
14.2158
14.0769
13.9354
13.7915
13.6451
13.4962
13.3447
13.1906
13.0339
12.8745
12.7125
12.5478
12.3803
12.2101
12.0372
11.8614
11.6828
11.5014
11.3171
11.1299
10.9397
10.7483
10.559