/*--------------------------------*- C++ -*----------------------------------*\
  =========                 |
  \\      /  F ield         | OpenFOAM: The Open Source CFD Toolbox
   \\    /   O peration     | Website:  https://openfoam.org
    \\  /    A nd           | Version:  10
     \\/     M anipulation  |
\*---------------------------------------------------------------------------*/
FoamFile
{
    format      ascii;
    class       volVectorField;
    location    "11000";
    object      U;
}
// * * * * * * * * * * * * * * * * * * * * * * * * * * * * * * * * * * * * * //

dimensions      [0 1 -1 0 0 0 0];

internalField   nonuniform List<vector> 
17922
(
(-3.92586 4.29507 0)
(-3.92011 4.28865 7.63684e-19)
(-3.91404 4.28188 -2.98301e-18)
(-3.90766 4.27475 1.31867e-23)
(-3.90096 4.26727 7.01379e-19)
(-3.89394 4.25942 1.36886e-18)
(-3.88658 4.25119 3.90035e-23)
(-3.8789 4.2426 6.42065e-19)
(-3.87088 4.23363 -6.22741e-21)
(-3.86253 4.22427 -6.10427e-19)
(-3.85383 4.21452 -4.71131e-18)
(-3.84478 4.20438 0)
(-3.83538 4.19384 0)
(-3.82563 4.18289 -5.32741e-19)
(-3.81551 4.17154 5.21868e-19)
(-3.80503 4.15977 -4.99081e-19)
(-3.79418 4.14757 4.88952e-19)
(-3.78295 4.13495 -1.88006e-18)
(-3.77135 4.1219 -4.5148e-19)
(-3.75936 4.1084 -1.75121e-18)
(-3.74697 4.09446 -1.27047e-18)
(-3.73419 4.08007 4.07073e-19)
(-3.721 4.06522 -1.98265e-18)
(-3.70739 4.0499 1.52882e-18)
(-3.69336 4.03411 -1.47536e-18)
(-3.6789 4.01784 0)
(-3.664 4.00108 0)
(-3.64869 3.98385 0)
(-3.63309 3.9663 2.62341e-18)
(-3.6175 3.94876 3.24594e-19)
(-3.60207 3.93138 9.78546e-19)
(-3.5868 3.91417 2.61531e-18)
(-3.5717 3.89713 -1.14521e-18)
(-3.55676 3.88028 1.14238e-18)
(-3.542 3.86361 -1.30765e-18)
(-3.52741 3.84712 0)
(-3.51299 3.83082 1.62326e-19)
(-3.49876 3.81472 -1.64008e-18)
(-3.48471 3.79881 -9.86031e-19)
(-3.47083 3.7831 -1.64761e-18)
(-3.45714 3.76758 1.66682e-19)
(-3.44364 3.75228 -1.64334e-19)
(-3.43032 3.73718 -1.1641e-18)
(-3.41719 3.72228 -1.65816e-19)
(-3.40425 3.7076 1.34754e-18)
(-3.39149 3.69313 -2.36576e-18)
(-3.37892 3.67887 -2.89127e-21)
(-3.36654 3.66482 -1.37086e-18)
(-3.35434 3.65099 1.2032e-18)
(-3.34232 3.63737 0)
(-3.33049 3.62396 6.97829e-19)
(-3.31884 3.61075 7.02748e-19)
(-3.30737 3.59776 -8.83345e-19)
(-3.29608 3.58497 8.92899e-19)
(-3.28496 3.57239 0)
(-3.27402 3.56001 5.4444e-19)
(-3.26325 3.54783 1.83861e-19)
(-3.25264 3.53585 7.34966e-19)
(-3.2422 3.52406 0)
(-3.23192 3.51246 -7.4635e-19)
(-3.22181 3.50106 0)
(-3.21185 3.48984 1.87914e-19)
(-3.20205 3.47881 -9.56057e-19)
(-3.1924 3.46795 -7.6942e-19)
(-3.1829 3.45728 7.75316e-19)
(-3.17355 3.44678 -7.81173e-19)
(-3.16435 3.43646 5.91863e-19)
(-3.1553 3.42631 -3.96407e-19)
(-3.14638 3.41632 -1e-18)
(-3.13761 3.40651 0)
(-3.12897 3.39685 4.05241e-19)
(-3.12046 3.38736 4.08123e-19)
(-3.11209 3.37802 -3.0213e-23)
(-3.10385 3.36884 6.19283e-19)
(-3.09574 3.35982 -6.26816e-19)
(-3.08776 3.35094 4.19644e-19)
(-3.0799 3.34222 4.22532e-19)
(-3.07216 3.33364 -8.50755e-19)
(-3.06454 3.3252 2.12481e-19)
(-3.05705 3.31691 -2.17249e-19)
(-3.04966 3.30875 6.49561e-19)
(-3.0424 3.30074 -4.37153e-19)
(-3.03525 3.29287 3.38204e-21)
(-3.02821 3.28513 2.23282e-19)
(-3.02128 3.27752 1.11422e-18)
(-3.01447 3.27005 -2.87015e-23)
(-3.00776 3.26271 6.80893e-19)
(-3.00115 3.2555 0)
(-2.99466 3.24842 -2.28356e-19)
(-2.98827 3.24146 2.33804e-19)
(-2.98199 3.23464 -4.6619e-19)
(-2.97581 3.22794 2.38809e-19)
(-2.96972 3.22134 4.71639e-19)
(-3.91563 4.30448 -8.05268e-19)
(-3.90989 4.29805 7.77512e-19)
(-3.90385 4.29127 -7.62878e-19)
(-3.89748 4.28413 2.95589e-18)
(-3.8908 4.27663 -3.87376e-23)
(-3.8838 4.26876 -6.95215e-19)
(-3.87647 4.26053 2.03904e-18)
(-3.8688 4.25192 0)
(-3.86081 4.24293 -3.19652e-18)
(-3.85248 4.23355 6.24282e-19)
(-3.8438 4.22378 2.41044e-18)
(-3.83478 4.21362 -2.33767e-18)
(-3.82541 4.20306 0)
(-3.81568 4.1921 0)
(-3.80559 4.18072 0)
(-3.79514 4.16893 2.57274e-18)
(-3.78432 4.15671 1.98863e-18)
(-3.77313 4.14407 1.44482e-18)
(-3.76155 4.13099 4.638e-19)
(-3.74959 4.11747 1.35146e-18)
(-3.73724 4.1035 6.77145e-23)
(-3.72449 4.08908 0)
(-3.71133 4.0742 4.04493e-19)
(-3.69776 4.05885 -1.97054e-18)
(-3.68376 4.04303 1.5196e-18)
(-3.66933 4.02672 0)
(-3.65448 4.00994 0)
(-3.6392 3.99267 0)
(-3.62364 3.97509 -1.27445e-22)
(-3.60809 3.95751 0)
(-3.5927 3.9401 3.34707e-19)
(-3.57747 3.92286 -3.40506e-19)
(-3.5624 3.90579 2.69868e-18)
(-3.54751 3.88891 1.01487e-18)
(-3.53278 3.8722 3.40369e-19)
(-3.51823 3.85569 0)
(-3.50385 3.83936 -1.35192e-18)
(-3.48965 3.82322 1.354e-18)
(-3.47563 3.80728 1.52472e-18)
(-3.4618 3.79154 1.18835e-18)
(-3.44814 3.776 -1.19473e-18)
(-3.43467 3.76066 1.1959e-18)
(-3.42138 3.74554 0)
(-3.40829 3.73061 -1.70977e-19)
(-3.39537 3.7159 -1.38324e-18)
(-3.38265 3.7014 2.96261e-18)
(-3.37011 3.68712 1.73668e-19)
(-3.35775 3.67304 1.05723e-18)
(-3.34558 3.65918 -1.23961e-18)
(-3.3336 3.64553 8.90687e-19)
(-3.32179 3.63209 3.59251e-19)
(-3.31017 3.61886 -5.41141e-19)
(-3.29872 3.60584 7.28626e-19)
(-3.28746 3.59303 0)
(-3.27636 3.58042 -1.83243e-19)
(-3.26544 3.56801 1.87676e-19)
(-3.25469 3.55581 7.49969e-19)
(-3.24411 3.5438 -7.55572e-19)
(-3.23369 3.53199 0)
(-3.22344 3.52037 -1.90117e-19)
(-3.21334 3.50894 1.94683e-19)
(-3.20341 3.49769 -1.9294e-19)
(-3.19363 3.48663 1.5708e-18)
(-3.184 3.47576 9.88546e-19)
(-3.17452 3.46506 0)
(-3.16519 3.45454 0)
(-3.15601 3.44419 -2.00062e-19)
(-3.14697 3.43402 1.01723e-18)
(-3.13808 3.42401 1.63631e-18)
(-3.12932 3.41417 0)
(-3.1207 3.4045 0)
(-3.11221 3.39498 -6.28004e-19)
(-3.10386 3.38563 -4.23701e-19)
(-3.09564 3.37642 -2.13233e-19)
(-3.08754 3.36738 4.25924e-19)
(-3.07957 3.35848 -4.28662e-19)
(-3.07173 3.34973 -4.31338e-19)
(-3.064 3.34113 2.1875e-19)
(-3.0564 3.33268 4.40169e-19)
(-3.04892 3.32437 4.42941e-19)
(-3.04155 3.31619 3.3893e-21)
(-3.0343 3.30816 -2.20885e-19)
(-3.02716 3.30026 5.71484e-23)
(-3.02013 3.29251 -6.74799e-19)
(-3.01322 3.28488 -2.25266e-19)
(-3.00641 3.27739 -6.8363e-19)
(-2.99971 3.27003 -2.28303e-19)
(-2.99312 3.2628 0)
(-2.98664 3.25569 0)
(-2.98026 3.24872 7.04463e-19)
(-2.974 3.24188 -2.37176e-19)
(-2.96783 3.23516 1.73638e-21)
(-2.96175 3.22855 0)
(-3.90507 4.31414 8.06304e-19)
(-3.89935 4.3077 -7.91677e-19)
(-3.89332 4.30091 3.07028e-18)
(-3.88698 4.29375 -2.98794e-18)
(-3.88031 4.28624 -1.45338e-18)
(-3.87333 4.27836 -7.03424e-19)
(-3.86602 4.27011 2.06405e-18)
(-3.85838 4.26148 2.67006e-18)
(-3.85041 4.25247 1.9485e-18)
(-3.8421 4.24308 -1.88557e-18)
(-3.83345 4.2333 0)
(-3.82446 4.22312 2.96159e-18)
(-3.81511 4.21254 -5.78303e-19)
(-3.80541 4.20155 -5.54406e-19)
(-3.79535 4.19015 5.43592e-19)
(-3.78493 4.17833 2.09424e-18)
(-3.77414 4.1661 -4.0565e-18)
(-3.76298 4.15343 0)
(-3.75144 4.14032 -1.42833e-18)
(-3.73951 4.12678 -6.25783e-21)
(-3.72719 4.11278 3.54945e-18)
(-3.71447 4.09833 -8.59344e-19)
(-3.70135 4.08342 1.66716e-18)
(-3.68781 4.06804 6.17215e-21)
(-3.67385 4.05218 -1.54346e-18)
(-3.65946 4.03584 3.77589e-19)
(-3.64464 4.01902 0)
(-3.6294 4.00173 3.48347e-19)
(-3.61388 3.98411 -3.11493e-18)
(-3.59837 3.96649 -3.4226e-19)
(-3.58302 3.94905 1.72771e-18)
(-3.56783 3.93178 -1.3788e-18)
(-3.55281 3.91468 -1.71974e-18)
(-3.53795 3.89776 -6.89049e-19)
(-3.52326 3.88103 -6.89155e-19)
(-3.50875 3.86448 1.72684e-18)
(-3.49441 3.84812 1.72255e-18)
(-3.48025 3.83195 -3.48586e-19)
(-3.46627 3.81598 0)
(-3.45246 3.80021 -1.73201e-18)
(-3.43884 3.78464 1.39786e-18)
(-3.42541 3.76928 3.52084e-19)
(-3.41215 3.75412 -1.22776e-18)
(-3.39909 3.73917 -1.58473e-18)
(-3.38621 3.72443 1.58913e-18)
(-3.37351 3.7099 -1.77628e-18)
(-3.361 3.69558 -1.24852e-18)
(-3.34868 3.68148 0)
(-3.33654 3.66759 1.26634e-18)
(-3.32458 3.65391 -1.27129e-18)
(-3.3128 3.64044 -9.13569e-19)
(-3.30121 3.62719 1.85786e-19)
(-3.28979 3.61414 0)
(-3.27855 3.6013 0)
(-3.26748 3.58866 -7.52361e-19)
(-3.25659 3.57623 0)
(-3.24586 3.564 -7.63167e-19)
(-3.2353 3.55196 0)
(-3.22491 3.54013 7.74059e-19)
(-3.21468 3.52848 0)
(-3.2046 3.51702 0)
(-3.19469 3.50576 0)
(-3.18493 3.49467 -7.96405e-19)
(-3.17532 3.48377 0)
(-3.16587 3.47305 -2.00259e-19)
(-3.15656 3.46251 4.06578e-19)
(-3.1474 3.45214 -4.09371e-19)
(-3.13838 3.44194 -6.16541e-19)
(-3.1295 3.43191 -8.29902e-19)
(-3.12076 3.42205 0)
(-3.11216 3.41235 -4.20402e-19)
(-3.10369 3.40281 4.23167e-19)
(-3.09535 3.39343 4.25813e-19)
(-3.08715 3.38421 0)
(-3.07907 3.37514 0)
(-3.07112 3.36623 2.15193e-19)
(-3.06329 3.35746 -2.19828e-19)
(-3.05558 3.34884 0)
(-3.04799 3.34036 -2.19135e-19)
(-3.04052 3.33203 -2.20416e-19)
(-3.03317 3.32383 0)
(-3.02593 3.31578 8.99047e-19)
(-3.01881 3.30786 4.52258e-19)
(-3.0118 3.30009 -4.54923e-19)
(-3.00489 3.29244 0)
(-2.9981 3.28493 2.31963e-19)
(-2.99141 3.27755 2.33479e-19)
(-2.98484 3.27029 4.66659e-19)
(-2.97837 3.26317 4.6842e-19)
(-2.972 3.25618 -7.10787e-19)
(-2.96575 3.24932 2.38631e-19)
(-2.95959 3.24258 -3.52516e-21)
(-2.95352 3.23595 -2.41602e-19)
(-3.89417 4.32406 8.1986e-19)
(-3.88847 4.31761 -7.92387e-19)
(-3.88246 4.3108 -1.54347e-18)
(-3.87613 4.30364 2.26707e-18)
(-3.86949 4.29611 7.31159e-19)
(-3.86253 4.28821 -1.42911e-18)
(-3.85524 4.27995 -2.42738e-23)
(-3.84763 4.2713 -6.78965e-19)
(-3.83968 4.26228 6.53317e-19)
(-3.8314 4.25287 1.9103e-18)
(-3.82277 4.24306 0)
(-3.81381 4.23286 0)
(-3.80449 4.22226 -2.33365e-18)
(-3.79482 4.21125 2.26358e-18)
(-3.78479 4.19983 0)
(-3.7744 4.18799 -2.65595e-18)
(-3.76364 4.17573 2.57963e-18)
(-3.75251 4.16304 -1.99619e-18)
(-3.741 4.14991 3.86532e-18)
(-3.7291 4.13633 -4.64422e-19)
(-3.71682 4.12231 -1.35402e-18)
(-3.70414 4.10783 0)
(-3.69105 4.09289 -1.69179e-18)
(-3.67755 4.07748 -1.63497e-18)
(-3.66362 4.06158 1.97146e-18)
(-3.64927 4.04521 -7.64075e-19)
(-3.63448 4.02836 3.73225e-19)
(-3.61928 4.01102 0)
(-3.60381 3.99337 0)
(-3.58834 3.97572 0)
(-3.57303 3.95824 -1.40891e-18)
(-3.55788 3.94093 0)
(-3.5429 3.9238 -1.40712e-18)
(-3.52808 3.90685 -1.7555e-18)
(-3.51344 3.89009 7.03543e-19)
(-3.49896 3.87351 -1.76282e-18)
(-3.48466 3.85712 0)
(-3.47054 3.84092 0)
(-3.45659 3.82492 0)
(-3.44283 3.80912 3.5098e-19)
(-3.42924 3.79352 1.06181e-18)
(-3.41584 3.77812 -3.53001e-19)
(-3.40262 3.76293 1.7898e-18)
(-3.38959 3.74795 1.43514e-18)
(-3.37674 3.73318 1.44144e-18)
(-3.36408 3.71862 1.44844e-18)
(-3.3516 3.70428 1.03183e-22)
(-3.33931 3.69015 0)
(-3.3272 3.67623 -1.8264e-19)
(-3.31527 3.66252 1.66846e-18)
(-3.30352 3.64903 -5.60674e-19)
(-3.29196 3.63574 -9.39469e-19)
(-3.28057 3.62267 0)
(-3.26935 3.6098 -1.88509e-19)
(-3.25831 3.59713 9.5857e-19)
(-3.24744 3.58467 1.91103e-19)
(-3.23674 3.57241 3.88029e-19)
(-3.22621 3.56035 1.1722e-18)
(-3.21584 3.54849 -1.18037e-18)
(-3.20563 3.53682 9.91991e-19)
(-3.19558 3.52533 -1.97811e-19)
(-3.18569 3.51404 2.02443e-19)
(-3.17595 3.50293 8.08645e-19)
(-3.16637 3.49201 -2.01886e-19)
(-3.15693 3.48126 1.0261e-18)
(-3.14764 3.47069 -8.24987e-19)
(-3.1385 3.4603 0)
(-3.1295 3.45008 8.35881e-19)
(-3.12064 3.44003 2.08621e-19)
(-3.11192 3.43014 -6.36547e-19)
(-3.10334 3.42042 6.40527e-19)
(-3.09489 3.41086 2.15944e-19)
(-3.08657 3.40146 -1.07601e-18)
(-3.07838 3.39221 2.18517e-19)
(-3.07032 3.38312 0)
(-3.06239 3.37418 4.38616e-19)
(-3.05457 3.36539 8.82218e-19)
(-3.04688 3.35675 0)
(-3.03931 3.34825 -6.67336e-19)
(-3.03186 3.3399 4.48489e-19)
(-3.02452 3.33168 -6.78168e-19)
(-3.0173 3.32361 -6.78533e-19)
(-3.01019 3.31567 3.46955e-21)
(-3.00319 3.30787 1.14816e-18)
(-2.9963 3.30021 0)
(-2.98952 3.29267 -2.33672e-19)
(-2.98285 3.28527 2.3152e-19)
(-2.97628 3.278 -7.06231e-19)
(-2.96983 3.27086 -7.09509e-19)
(-2.96348 3.26385 2.38261e-19)
(-2.95723 3.25696 -2.39816e-19)
(-2.95109 3.2502 2.42591e-19)
(-2.94503 3.24355 0)
(-3.88292 4.33425 2.47261e-18)
(-3.87724 4.32778 -7.99122e-19)
(-3.87125 4.32096 7.85292e-19)
(-3.86495 4.31378 -1.52352e-18)
(-3.85833 4.30624 0)
(-3.85139 4.29833 0)
(-3.84412 4.29004 1.40518e-18)
(-3.83653 4.28138 -2.73361e-18)
(-3.82861 4.27234 -6.61146e-19)
(-3.82035 4.26291 6.4909e-19)
(-3.81175 4.25309 2.5096e-18)
(-3.80281 4.24287 3.04324e-18)
(-3.79352 4.23225 1.77129e-18)
(-3.78388 4.22122 -4.59209e-18)
(-3.77388 4.20977 -2.22722e-18)
(-3.76352 4.19791 -5.36653e-19)
(-3.7528 4.18562 5.26606e-19)
(-3.7417 4.1729 1.52454e-18)
(-3.73022 4.15974 -2.94686e-18)
(-3.71836 4.14614 -4.7876e-19)
(-3.70611 4.13209 -4.56999e-19)
(-3.69347 4.11758 4.48482e-19)
(-3.68042 4.10261 2.14995e-18)
(-3.66695 4.08716 3.32415e-18)
(-3.65306 4.07124 -8.04761e-19)
(-3.63874 4.05483 7.79077e-19)
(-3.624 4.03794 -6.38933e-21)
(-3.60884 4.02057 -3.69328e-19)
(-3.59341 4.00288 -3.57168e-19)
(-3.57799 3.9852 1.80277e-18)
(-3.56272 3.96768 0)
(-3.54761 3.95034 -1.08079e-18)
(-3.53267 3.93318 7.18092e-19)
(-3.5179 3.91619 1.79788e-18)
(-3.50329 3.89939 0)
(-3.48886 3.88278 -1.79228e-18)
(-3.4746 3.86636 3.62498e-19)
(-3.46051 3.85013 0)
(-3.44661 3.8341 1.44132e-18)
(-3.43288 3.81826 0)
(-3.41933 3.80263 -1.08904e-18)
(-3.40597 3.7872 1.08588e-18)
(-3.39278 3.77198 -3.61118e-19)
(-3.37978 3.75697 1.46883e-18)
(-3.36697 3.74217 -1.09854e-18)
(-3.35434 3.72759 -1.84154e-18)
(-3.34189 3.71321 1.48949e-18)
(-3.32963 3.69905 3.75933e-19)
(-3.31755 3.6851 -2.99897e-18)
(-3.30566 3.67136 -7.54179e-19)
(-3.29394 3.65784 5.65605e-23)
(-3.2824 3.64453 9.52785e-19)
(-3.27104 3.63142 -1.93699e-19)
(-3.25985 3.61852 0)
(-3.24884 3.60583 0)
(-3.23799 3.59334 -1.9427e-19)
(-3.22732 3.58106 -5.89996e-19)
(-3.21681 3.56897 -7.94079e-19)
(-3.20647 3.55708 0)
(-3.19628 3.54538 -7.12892e-23)
(-3.18626 3.53387 0)
(-3.17639 3.52255 0)
(-3.16668 3.51142 -1.64112e-18)
(-3.15711 3.50047 -8.25817e-19)
(-3.1477 3.4897 -8.31177e-19)
(-3.13844 3.4791 2.07496e-19)
(-3.12932 3.46868 -2.12096e-19)
(-3.12034 3.45844 6.36765e-19)
(-3.1115 3.44836 -6.37232e-19)
(-3.1028 3.43845 4.28555e-19)
(-3.09423 3.42871 -8.62109e-19)
(-3.0858 3.41912 2.18462e-19)
(-3.0775 3.4097 6.55741e-19)
(-3.06933 3.40043 0)
(-3.06129 3.39132 0)
(-3.05337 3.38236 -4.43183e-19)
(-3.04558 3.37354 -8.90965e-19)
(-3.0379 3.36488 0)
(-3.03035 3.35636 4.50062e-19)
(-3.02291 3.34798 2.24458e-19)
(-3.01559 3.33975 4.51258e-19)
(-3.00838 3.33165 -6.87296e-19)
(-3.00129 3.32369 -4.59375e-19)
(-2.9943 3.31587 -4.61798e-19)
(-2.98743 3.30818 -4.64136e-19)
(-2.98066 3.30063 0)
(-2.974 3.2932 -9.38567e-19)
(-2.96745 3.28591 4.72214e-19)
(-2.96101 3.27875 0)
(-2.95467 3.27172 2.39362e-19)
(-2.94844 3.26481 0)
(-2.94231 3.25803 -2.41652e-19)
(-2.93627 3.25136 -2.41405e-19)
(-3.87131 4.3447 -2.484e-18)
(-3.86565 4.33823 3.23476e-18)
(-3.85968 4.33139 -6.67604e-21)
(-3.8534 4.3242 7.65178e-19)
(-3.8468 4.31664 0)
(-3.83988 4.30871 -1.45835e-18)
(-3.83264 4.30041 -1.41976e-18)
(-3.82507 4.29173 -3.45065e-18)
(-3.81718 4.28267 6.75331e-19)
(-3.80895 4.27322 -2.61369e-18)
(-3.80038 4.26338 -3.17237e-18)
(-3.79146 4.25314 -1.84803e-18)
(-3.7822 4.2425 0)
(-3.77259 4.23145 -5.78504e-19)
(-3.76263 4.21998 3.38834e-18)
(-3.7523 4.20809 -5.51151e-19)
(-3.74161 4.19578 2.12497e-18)
(-3.73054 4.18303 0)
(-3.7191 4.16985 6.24494e-23)
(-3.70728 4.15622 -1.93327e-18)
(-3.69506 4.14214 1.87186e-18)
(-3.68245 4.1276 -1.81172e-18)
(-3.66944 4.11259 1.75286e-18)
(-3.65601 4.09711 -1.69536e-18)
(-3.64216 4.08115 0)
(-3.62788 4.0647 0)
(-3.61318 4.04778 1.15806e-18)
(-3.59806 4.03037 3.76739e-19)
(-3.58267 4.01264 0)
(-3.5673 3.99492 -1.46889e-18)
(-3.55207 3.97737 0)
(-3.53701 3.96 1.46586e-18)
(-3.52211 3.9428 -3.63015e-19)
(-3.50738 3.92578 -1.458e-18)
(-3.49282 3.90895 7.32199e-19)
(-3.47842 3.8923 1.09543e-18)
(-3.4642 3.87585 0)
(-3.45016 3.85958 1.83079e-18)
(-3.43629 3.84352 -1.47574e-18)
(-3.4226 3.82765 -6.37627e-21)
(-3.40909 3.81199 1.46904e-18)
(-3.39577 3.79653 -1.48596e-18)
(-3.38262 3.78128 -7.42148e-19)
(-3.36966 3.76624 -1.11415e-18)
(-3.35688 3.75141 3.70751e-19)
(-3.34428 3.73679 -7.51242e-19)
(-3.33187 3.72238 -1.12904e-18)
(-3.31964 3.70819 -3.76154e-19)
(-3.30759 3.69421 3.43609e-18)
(-3.29573 3.68044 0)
(-3.28404 3.66689 7.71695e-19)
(-3.27253 3.65355 0)
(-3.2612 3.64041 7.81055e-19)
(-3.25004 3.62749 0)
(-3.23906 3.61477 0)
(-3.22824 3.60225 -1.19061e-18)
(-3.21759 3.58993 1.20485e-18)
(-3.20711 3.57782 1.99878e-19)
(-3.19679 3.5659 -3.33792e-21)
(-3.18663 3.55417 -1.02228e-18)
(-3.17663 3.54264 -8.21579e-19)
(-3.16679 3.53129 0)
(-3.1571 3.52013 7.67431e-23)
(-3.14756 3.50915 8.37058e-19)
(-3.13817 3.49836 2.08826e-19)
(-3.12893 3.48774 6.33711e-19)
(-3.11983 3.47729 0)
(-3.11087 3.46702 -6.44631e-19)
(-3.10205 3.45692 6.44887e-19)
(-3.09337 3.44699 -2.15012e-19)
(-3.08483 3.43722 2.19709e-19)
(-3.07642 3.42761 -2.20871e-19)
(-3.06814 3.41816 -2.22013e-19)
(-3.05999 3.40887 0)
(-3.05196 3.39973 0)
(-3.04406 3.39075 2.21899e-19)
(-3.03628 3.38191 4.45992e-19)
(-3.02863 3.37322 -3.49784e-21)
(-3.02109 3.36468 -4.57274e-19)
(-3.01367 3.35628 -3.50644e-21)
(-3.00636 3.34803 -4.58028e-19)
(-2.99917 3.33991 1.15222e-18)
(-2.99209 3.33193 4.62379e-19)
(-2.98513 3.32408 0)
(-2.97827 3.31637 4.66776e-19)
(-2.97152 3.30879 0)
(-2.96487 3.30135 6.06398e-23)
(-2.95834 3.29403 0)
(-2.95191 3.28685 2.36873e-19)
(-2.94558 3.2798 -3.56059e-21)
(-2.93937 3.27287 -2.41596e-19)
(-2.93325 3.26607 2.44087e-19)
(-2.92722 3.25937 4.81915e-19)
(-3.85933 4.35543 1.6691e-18)
(-3.85369 4.34894 -2.43997e-18)
(-3.84774 4.3421 7.97861e-19)
(-3.84148 4.33489 0)
(-3.8349 4.32732 0)
(-3.82801 4.31937 1.47175e-18)
(-3.82079 4.31106 0)
(-3.81325 4.30236 2.79141e-18)
(-3.80538 4.29328 2.71667e-18)
(-3.79717 4.28381 5.9433e-18)
(-3.78863 4.27395 -6.45932e-19)
(-3.77975 4.26369 0)
(-3.77052 4.25302 0)
(-3.76094 4.24195 2.35819e-18)
(-3.75101 4.23045 2.28958e-18)
(-3.74071 4.21854 5.52178e-19)
(-3.73005 4.2062 -2.69823e-18)
(-3.71902 4.19343 0)
(-3.70762 4.18021 6.0199e-23)
(-3.69583 4.16656 6.00203e-23)
(-3.68365 4.15244 -1.90243e-18)
(-3.67108 4.13787 4.57241e-19)
(-3.65811 4.12283 -2.23203e-18)
(-3.64471 4.10732 4.27955e-19)
(-3.6309 4.09132 -6.62619e-21)
(-3.61666 4.07484 -4.07734e-19)
(-3.602 4.05787 -1.56933e-18)
(-3.58693 4.04043 -3.04629e-18)
(-3.57159 4.02267 -2.99955e-18)
(-3.55626 4.00491 0)
(-3.54108 3.98732 3.707e-19)
(-3.52606 3.96991 -3.76959e-19)
(-3.51121 3.95268 0)
(-3.49652 3.93562 1.49302e-18)
(-3.482 3.91876 -1.1228e-18)
(-3.46765 3.90208 -7.46494e-19)
(-3.45347 3.88559 7.46869e-19)
(-3.43947 3.86929 -1.8721e-18)
(-3.42564 3.85319 -1.49692e-18)
(-3.41199 3.83729 0)
(-3.39852 3.8216 -3.37786e-18)
(-3.38523 3.80611 3.79897e-19)
(-3.37212 3.79082 -3.74542e-19)
(-3.3592 3.77575 3.82349e-19)
(-3.34645 3.76088 -1.1449e-18)
(-3.33389 3.74623 -3.85445e-19)
(-3.32152 3.7318 2.69086e-18)
(-3.30932 3.71757 3.89104e-19)
(-3.29731 3.70356 -1.55137e-18)
(-3.28547 3.68976 0)
(-3.27382 3.67618 7.84214e-19)
(-3.26234 3.66281 -7.8874e-19)
(-3.25104 3.64964 -7.93449e-19)
(-3.23991 3.63669 -3.95754e-19)
(-3.22895 3.62394 4.04845e-19)
(-3.21816 3.61139 8.0793e-19)
(-3.20754 3.59905 -4.09814e-19)
(-3.19709 3.5869 -1.23004e-18)
(-3.1868 3.57495 1.23076e-18)
(-3.17666 3.5632 4.10454e-19)
(-3.16669 3.55164 8.32789e-19)
(-3.15687 3.54026 4.15444e-19)
(-3.1472 3.52907 4.17945e-19)
(-3.13769 3.51807 -4.20356e-19)
(-3.12832 3.50725 -4.22747e-19)
(-3.1191 3.4966 0)
(-3.11003 3.48613 -2.13793e-19)
(-3.10109 3.47583 -6.48347e-19)
(-3.0923 3.46571 8.71464e-19)
(-3.08364 3.45575 -2.17286e-19)
(-3.07512 3.44595 4.43836e-19)
(-3.06672 3.43632 2.23022e-19)
(-3.05846 3.42685 -2.20612e-19)
(-3.05033 3.41753 3.50885e-21)
(-3.04233 3.40837 8.97893e-19)
(-3.03445 3.39936 -2.27264e-19)
(-3.02669 3.3905 0)
(-3.01905 3.38179 -2.25743e-19)
(-3.01153 3.37323 -2.26699e-19)
(-3.00413 3.3648 0)
(-2.99684 3.35652 4.60878e-19)
(-2.98966 3.34838 -4.62905e-19)
(-2.9826 3.34038 -2.30659e-19)
(-2.97565 3.33251 2.35195e-19)
(-2.96881 3.32478 4.68853e-19)
(-2.96207 3.31718 0)
(-2.95544 3.30971 4.73354e-19)
(-2.94892 3.30237 2.397e-19)
(-2.94251 3.29517 1.79673e-21)
(-2.9362 3.28809 -1.76939e-21)
(-2.93 3.28115 -7.26304e-19)
(-2.9239 3.27432 2.46214e-19)
(-2.91788 3.2676 2.43763e-19)
(-3.84696 4.36645 -3.35779e-18)
(-3.84134 4.35995 0)
(-3.83541 4.35308 0)
(-3.82917 4.34586 1.55424e-18)
(-3.82262 4.33827 -1.52923e-18)
(-3.81575 4.33031 -7.45503e-19)
(-3.80856 4.32198 -1.44639e-18)
(-3.80104 4.31326 1.40896e-18)
(-3.7932 4.30417 -4.11593e-18)
(-3.78502 4.29468 -2.66401e-18)
(-3.77651 4.28479 1.29929e-18)
(-3.76766 4.27451 -6.35239e-19)
(-3.75846 4.26382 -2.45696e-18)
(-3.74891 4.25272 2.98114e-18)
(-3.73901 4.24121 -2.90265e-18)
(-3.72875 4.22927 2.8117e-18)
(-3.71813 4.2169 -5.49888e-19)
(-3.70713 4.2041 2.12082e-18)
(-3.69576 4.19086 2.05691e-18)
(-3.68401 4.17717 5.77279e-23)
(-3.67187 4.16303 0)
(-3.65934 4.14842 1.40733e-18)
(-3.6464 4.13335 -1.35603e-18)
(-3.63305 4.1178 0)
(-3.61928 4.10176 0)
(-3.60508 4.08524 4.08407e-19)
(-3.59047 4.06824 -4.03041e-19)
(-3.57544 4.05076 3.84793e-19)
(-3.56014 4.03295 2.29323e-18)
(-3.54486 4.01516 3.85089e-19)
(-3.52973 3.99753 0)
(-3.51476 3.98008 0)
(-3.49995 3.96281 -1.14488e-18)
(-3.4853 3.94573 -3.83656e-19)
(-3.47083 3.92882 1.89775e-18)
(-3.45652 3.91211 -7.60437e-19)
(-3.44239 3.89558 -1.51474e-18)
(-3.42843 3.87925 2.28374e-18)
(-3.41464 3.86312 2.66407e-18)
(-3.40103 3.84719 0)
(-3.3876 3.83146 1.52957e-18)
(-3.37435 3.81593 -1.53315e-18)
(-3.36128 3.80062 -3.81075e-19)
(-3.3484 3.78551 3.88937e-19)
(-3.33569 3.77061 1.54819e-18)
(-3.32316 3.75593 0)
(-3.31082 3.74146 -1.9482e-18)
(-3.29866 3.72721 2.35266e-18)
(-3.28668 3.71316 -3.97392e-19)
(-3.27488 3.69933 3.99409e-19)
(-3.26326 3.68572 -1.58616e-18)
(-3.25181 3.67231 1.20462e-18)
(-3.24054 3.65912 3.99294e-19)
(-3.22944 3.64613 -4.08349e-19)
(-3.21851 3.63335 4.03917e-19)
(-3.20776 3.62078 -4.13076e-19)
(-3.19716 3.6084 0)
(-3.18674 3.59623 8.28951e-19)
(-3.17647 3.58425 -8.33756e-19)
(-3.16637 3.57247 -7.11518e-23)
(-3.15642 3.56087 -8.43274e-19)
(-3.14663 3.54947 0)
(-3.13699 3.53826 -4.22938e-19)
(-3.1275 3.52723 8.5751e-19)
(-3.11815 3.51637 8.62163e-19)
(-3.10896 3.5057 8.66767e-19)
(-3.09991 3.49521 -4.39156e-19)
(-3.09099 3.48488 8.75836e-19)
(-3.08222 3.47473 -1.32382e-18)
(-3.07358 3.46474 -3.54151e-21)
(-3.06508 3.45492 0)
(-3.05671 3.44526 4.46448e-19)
(-3.04848 3.43577 -4.48481e-19)
(-3.04036 3.42643 4.50466e-19)
(-3.03238 3.41724 -9.04854e-19)
(-3.02452 3.40821 -6.79679e-19)
(-3.01678 3.39932 2.29857e-19)
(-3.00916 3.39059 4.57957e-19)
(-3.00166 3.382 4.59804e-19)
(-2.99427 3.37355 0)
(-2.987 3.36525 -2.33474e-19)
(-2.97985 3.35708 -4.65125e-19)
(-2.9728 3.34906 2.35234e-19)
(-2.96587 3.34117 0)
(-2.95904 3.33341 -9.41137e-19)
(-2.95232 3.32579 4.72492e-19)
(-2.94571 3.3183 2.35554e-19)
(-2.9392 3.31094 -4.80682e-19)
(-2.93281 3.30371 -1.76943e-21)
(-2.92652 3.29661 4.82521e-19)
(-2.92033 3.28964 0)
(-2.91424 3.28279 -2.42719e-19)
(-2.90823 3.27605 2.40112e-19)
(-3.83419 4.37775 1.68753e-18)
(-3.82859 4.37124 1.64176e-18)
(-3.82269 4.36436 -1.61671e-18)
(-3.81647 4.35712 1.5647e-18)
(-3.80994 4.34952 -1.54033e-18)
(-3.80309 4.34154 2.9847e-18)
(-3.79593 4.33319 -6.88053e-21)
(-3.78844 4.32445 2.84279e-18)
(-3.78063 4.31534 1.3779e-18)
(-3.77248 4.30583 -1.795e-23)
(-3.764 4.29592 1.83051e-23)
(-3.75517 4.28562 1.90572e-18)
(-3.74601 4.2749 1.8603e-18)
(-3.73649 4.26378 -4.23152e-18)
(-3.72662 4.25224 -2.93851e-18)
(-3.7164 4.24027 -2.28111e-18)
(-3.70581 4.22788 0)
(-3.69485 4.21505 -2.68427e-18)
(-3.68352 4.20178 6.89604e-21)
(-3.67181 4.18806 4.55623e-18)
(-3.65971 4.17388 0)
(-3.64722 4.15925 -4.71854e-19)
(-3.63432 4.14414 4.63925e-19)
(-3.62101 4.12855 -4.42453e-19)
(-3.60728 4.11248 6.86041e-21)
(-3.59312 4.09592 4.22503e-19)
(-3.57855 4.07887 -1.62768e-18)
(-3.56357 4.06135 3.16246e-18)
(-3.54832 4.04351 -3.85931e-19)
(-3.53309 4.02568 3.92324e-19)
(-3.518 4.00801 1.93818e-18)
(-3.50308 3.99053 -1.9429e-18)
(-3.48832 3.97322 3.10048e-18)
(-3.47372 3.95609 -1.54918e-18)
(-3.45929 3.93915 -1.9323e-18)
(-3.44503 3.9224 1.55513e-18)
(-3.43094 3.90584 2.3231e-18)
(-3.41703 3.88948 -1.94038e-18)
(-3.40328 3.87331 -1.55107e-18)
(-3.38972 3.85734 0)
(-3.37633 3.84158 0)
(-3.36312 3.82602 1.55928e-18)
(-3.35009 3.81067 -1.1758e-18)
(-3.33724 3.79553 -3.95373e-19)
(-3.32457 3.7806 -1.57336e-18)
(-3.31208 3.76588 -1.18784e-18)
(-3.29978 3.75138 -7.92937e-19)
(-3.28765 3.73709 -1.19134e-18)
(-3.27571 3.72302 0)
(-3.26394 3.70916 -4.05471e-19)
(-3.25235 3.69551 1.60958e-18)
(-3.24094 3.68207 -8.12429e-19)
(-3.2297 3.66884 4.11808e-19)
(-3.21863 3.65583 0)
(-3.20774 3.64301 -4.16269e-19)
(-3.19701 3.63041 -1.24884e-18)
(-3.18645 3.618 0)
(-3.17605 3.6058 -1.25571e-18)
(-3.16581 3.59379 1.26956e-18)
(-3.15573 3.58198 -8.48713e-19)
(-3.14581 3.57036 8.53289e-19)
(-3.13605 3.55893 -4.25401e-19)
(-3.12643 3.54768 4.34659e-19)
(-3.11697 3.53662 -8.66727e-19)
(-3.10765 3.52574 -1.74235e-18)
(-3.09848 3.51504 4.41247e-19)
(-3.08945 3.50452 4.43436e-19)
(-3.08056 3.49417 4.38466e-19)
(-3.07181 3.48399 4.40569e-19)
(-3.0632 3.47397 -4.48173e-23)
(-3.05472 3.46413 -4.48045e-19)
(-3.04638 3.45444 -4.50019e-19)
(-3.03816 3.44492 4.48361e-19)
(-3.03007 3.43555 -1.36112e-18)
(-3.0221 3.42634 1.8219e-18)
(-3.01426 3.41728 -9.14348e-19)
(-3.00655 3.40838 7.13503e-21)
(-2.99895 3.39962 5.01246e-26)
(-2.99146 3.391 -4.65703e-19)
(-2.9841 3.38253 2.30084e-19)
(-2.97685 3.3742 2.30854e-19)
(-2.96971 3.36601 2.31678e-19)
(-2.96268 3.35796 4.64927e-19)
(-2.95577 3.35005 -2.36852e-19)
(-2.94896 3.34227 4.71833e-19)
(-2.94225 3.33462 -9.47164e-19)
(-2.93566 3.3271 0)
(-2.92917 3.31972 4.77785e-19)
(-2.92279 3.31247 2.40149e-19)
(-2.91652 3.30535 -4.81089e-19)
(-2.91035 3.29836 2.42423e-19)
(-2.90427 3.29149 -2.42576e-19)
(-2.89828 3.28472 1.78616e-21)
(-3.82101 4.38935 -3.39667e-18)
(-3.81543 4.38282 0)
(-3.80955 4.37593 0)
(-3.80335 4.36868 -1.58097e-18)
(-3.79685 4.36105 -1.54351e-18)
(-3.79003 4.35306 0)
(-3.78289 4.34469 -1.46952e-18)
(-3.77543 4.33594 -2.86597e-18)
(-3.76764 4.3268 -1.38983e-18)
(-3.75953 4.31727 -5.42992e-18)
(-3.75107 4.30734 3.98352e-18)
(-3.74228 4.29701 -5.16182e-18)
(-3.73315 4.28628 3.76042e-18)
(-3.72367 4.27513 3.65779e-18)
(-3.71384 4.26356 5.30065e-23)
(-3.70365 4.25157 0)
(-3.6931 4.23915 0)
(-3.68218 4.22629 0)
(-3.67088 4.21299 0)
(-3.65921 4.19923 -1.54261e-18)
(-3.64715 4.18503 -5.01105e-19)
(-3.6347 4.17035 0)
(-3.62184 4.15521 1.87039e-18)
(-3.60857 4.13958 4.49533e-19)
(-3.59488 4.12347 -4.42652e-19)
(-3.58077 4.10687 1.70501e-18)
(-3.56625 4.08979 1.65648e-18)
(-3.55132 4.07222 -3.21959e-18)
(-3.53612 4.05434 3.92995e-19)
(-3.52093 4.03647 1.1844e-18)
(-3.5059 4.01876 -5.73606e-23)
(-3.49102 4.00124 1.18824e-18)
(-3.47631 3.98389 7.88967e-19)
(-3.46176 3.96673 1.17917e-18)
(-3.44738 3.94976 1.57596e-18)
(-3.43316 3.93297 -1.96595e-18)
(-3.41912 3.91637 3.97325e-19)
(-3.40525 3.89997 0)
(-3.39155 3.88377 0)
(-3.37803 3.86777 0)
(-3.36468 3.85197 0)
(-3.35151 3.83637 1.97741e-18)
(-3.33852 3.82099 1.18798e-18)
(-3.32572 3.80581 1.98766e-18)
(-3.31309 3.79085 -4.02816e-19)
(-3.30064 3.7761 1.60365e-18)
(-3.28837 3.76156 0)
(-3.27628 3.74724 -4.00693e-19)
(-3.26437 3.73313 4.09345e-19)
(-3.25264 3.71924 4.04344e-19)
(-3.24109 3.70555 -1.23273e-18)
(-3.22971 3.69208 -8.23529e-19)
(-3.2185 3.67883 0)
(-3.20747 3.66578 -4.12517e-19)
(-3.1966 3.65293 1.25796e-18)
(-3.1859 3.64029 4.23851e-19)
(-3.17537 3.62786 1.27103e-18)
(-3.165 3.61562 6.69939e-23)
(-3.1548 3.60358 -2.13106e-18)
(-3.14475 3.59174 1.29079e-18)
(-3.13486 3.58009 4.27745e-19)
(-3.12512 3.56863 -1.30378e-18)
(-3.11553 3.55735 4.32015e-19)
(-3.10609 3.54626 8.68262e-19)
(-3.0968 3.53536 3.95595e-23)
(-3.08766 3.52463 -4.05474e-23)
(-3.07865 3.51408 -4.2255e-23)
(-3.06979 3.5037 7.13987e-21)
(-3.06107 3.49349 8.98847e-19)
(-3.05248 3.48345 -4.4954e-19)
(-3.04402 3.47357 4.51362e-19)
(-3.0357 3.46386 0)
(-3.0275 3.45431 1.36089e-18)
(-3.01944 3.44492 -7.17102e-21)
(-3.01149 3.43568 -1.37787e-18)
(-3.00368 3.4266 -4.56011e-19)
(-2.99598 3.41766 4.64738e-19)
(-2.9884 3.40888 4.62642e-19)
(-2.98094 3.40024 4.60466e-19)
(-2.97359 3.39174 -4.726e-19)
(-2.96636 3.38339 -9.37346e-19)
(-2.95924 3.37518 -4.68244e-19)
(-2.95223 3.3671 -5.67282e-23)
(-2.94534 3.35916 0)
(-2.93854 3.35136 -4.69017e-19)
(-2.93186 3.34368 9.51985e-19)
(-2.92528 3.33614 0)
(-2.91881 3.32874 -4.78124e-19)
(-2.91245 3.32146 -4.80427e-19)
(-2.90619 3.31432 -2.41355e-19)
(-2.90004 3.3073 4.82635e-19)
(-2.89398 3.30041 -4.86169e-19)
(-2.888 3.29361 3.25243e-23)
(-3.8074 4.40126 6.85375e-21)
(-3.80185 4.39471 -1.64994e-18)
(-3.79598 4.3878 3.25278e-18)
(-3.78981 4.38053 1.58243e-18)
(-3.78333 4.37289 1.55252e-18)
(-3.77654 4.36488 -1.50898e-18)
(-3.76943 4.35649 -1.46568e-18)
(-3.762 4.34772 1.4506e-18)
(-3.75424 4.33856 -2.81579e-18)
(-3.74615 4.32901 5.49007e-18)
(-3.73773 4.31906 4.00533e-18)
(-3.72897 4.30871 1.29576e-18)
(-3.71987 4.29795 1.26134e-18)
(-3.71043 4.28677 -3.71062e-18)
(-3.70063 4.27518 4.80394e-18)
(-3.69048 4.26316 -1.1608e-18)
(-3.67997 4.25071 1.14228e-18)
(-3.66908 4.23782 2.20596e-18)
(-3.65783 4.22448 -1.06416e-18)
(-3.6462 4.2107 1.04706e-18)
(-3.63418 4.19646 -2.01838e-18)
(-3.62177 4.18175 0)
(-3.60895 4.16657 1.4273e-18)
(-3.59573 4.1509 4.63558e-19)
(-3.58208 4.13475 -1.7849e-18)
(-3.56802 4.11811 -1.73337e-18)
(-3.55354 4.10099 1.68476e-18)
(-3.53866 4.08338 3.68218e-18)
(-3.52351 4.06546 -4.07145e-19)
(-3.50838 4.04754 3.99367e-19)
(-3.49339 4.0298 -2.01533e-18)
(-3.47857 4.01223 0)
(-3.46391 3.99485 -1.60549e-18)
(-3.44941 3.97765 2.0014e-18)
(-3.43507 3.96063 1.19857e-18)
(-3.42091 3.94381 0)
(-3.40691 3.92718 -3.96971e-19)
(-3.39308 3.91074 8.01085e-19)
(-3.37943 3.8945 -4.04244e-19)
(-3.36595 3.87846 1.20685e-18)
(-3.35265 3.86262 6.94538e-21)
(-3.33953 3.84699 -1.60257e-18)
(-3.32658 3.83157 8.06458e-19)
(-3.31381 3.81636 -2.02477e-18)
(-3.30122 3.80136 2.02373e-18)
(-3.28882 3.78658 -4.10231e-19)
(-3.27659 3.77201 4.04745e-19)
(-3.26454 3.75765 -4.13285e-19)
(-3.25266 3.74351 1.64594e-18)
(-3.24097 3.72958 -8.26547e-19)
(-3.22945 3.71586 -4.11658e-19)
(-3.2181 3.70236 1.25479e-18)
(-3.20693 3.68907 0)
(-3.19593 3.67598 -4.17581e-19)
(-3.1851 3.66311 4.26677e-19)
(-3.17444 3.65044 0)
(-3.16394 3.63797 -8.54647e-19)
(-3.1536 3.6257 1.71756e-18)
(-3.14342 3.61363 4.35055e-19)
(-3.1334 3.60176 -1.29705e-18)
(-3.12354 3.59007 4.32019e-19)
(-3.11383 3.57858 4.34075e-19)
(-3.10427 3.56728 -8.79177e-19)
(-3.09486 3.55616 0)
(-3.0856 3.54522 -4.39921e-19)
(-3.07648 3.53446 4.48991e-19)
(-3.0675 3.52388 -8.94549e-19)