/*--------------------------------*- C++ -*----------------------------------*\
  =========                 |
  \\      /  F ield         | OpenFOAM: The Open Source CFD Toolbox
   \\    /   O peration     | Website:  https://openfoam.org
    \\  /    A nd           | Version:  10
     \\/     M anipulation  |
\*---------------------------------------------------------------------------*/
FoamFile
{
    format      ascii;
    class       volScalarField;
    location    "9000";
    object      omega;
}
// * * * * * * * * * * * * * * * * * * * * * * * * * * * * * * * * * * * * * //

dimensions      [0 0 -1 0 0 0 0];

internalField   nonuniform List<scalar> 
17808
(
15389.2
6200.5
3535.84
2430.86
1837.22
1469.86
1221.11
1041.87
906.718
801.235
716.643
647.306
589.442
540.422
498.359
461.87
429.913
401.692
376.585
354.103
333.854
315.518
298.837
283.595
269.614
256.742
244.852
233.836
223.6
214.065
205.161
196.827
189.01
181.664
174.748
168.224
162.062
156.231
150.707
145.465
140.485
135.749
131.238
126.938
122.835
118.916
115.168
111.582
108.147
104.854
101.696
98.6638
95.7512
92.9513
90.2582
87.6662
85.1701
82.7649
80.4463
78.2098
76.0516
73.9679
71.9553
70.0106
68.1307
66.3127
64.5538
62.8517
61.2038
59.6081
58.0624
56.5645
55.1128
53.7053
52.3403
51.0162
49.7315
48.4848
47.2746
46.0996
44.9587
43.8505
42.774
41.728
40.7117
39.7239
38.7638
37.8304
36.923
36.0406
35.1826
34.3481
15388.8
6199.23
3536.83
2432.26
1838.57
1471.02
1222.08
1042.67
907.38
801.785
717.103
647.692
589.769
540.699
498.597
462.075
430.09
401.846
376.72
354.221
333.957
315.61
298.919
283.668
269.678
256.8
244.904
233.882
223.642
214.103
205.195
196.858
189.038
181.69
174.771
168.246
162.081
156.249
150.723
145.48
140.499
135.762
131.25
126.949
122.845
118.925
115.177
111.59
108.154
104.861
101.702
98.6699
95.7569
92.9567
90.2633
87.671
85.1746
82.7692
80.4502
78.2135
76.0551
73.9713
71.9585
70.0136
68.1336
66.3154
64.5564
62.8542
61.2062
59.6104
58.0645
56.5666
55.1148
53.7072
52.3421
51.018
49.7332
48.4864
47.2761
46.1011
44.96
43.8518
42.7752
41.7292
40.7128
39.725
38.7648
37.8313
36.9238
36.0414
35.1833
34.3488
15390.8
6197.77
3537.24
2432.84
1839.16
1471.59
1222.59
1043.12
907.78
802.135
717.409
647.96
590.004
540.906
498.779
462.236
430.233
401.973
376.833
354.322
334.047
315.691
298.991
283.733
269.737
256.852
244.952
233.926
223.681
214.139
205.228
196.887
189.065
181.714
174.793
168.266
162.1
156.266
150.739
145.495
140.513
135.774
131.262
126.96
122.855
118.934
115.185
111.597
108.161
104.868
101.709
98.6758
95.7624
92.9619
90.2681
87.6755
85.1788
82.7732
80.454
78.2171
76.0585
73.9745
71.9616
70.0165
68.1363
66.318
64.5589
62.8566
61.2085
59.6126
58.0667
56.5687
55.1167
53.709
52.3439
51.0197
49.7349
48.488
47.2776
46.1025
44.9614
43.8531
42.7765
41.7304
40.714
39.7261
38.7659
37.8324
36.9248
36.0423
35.1842
34.3496
15392.5
6196.51
3537.42
2433.16
1839.53
1471.97
1222.95
1043.44
908.064
802.386
717.632
648.159
590.181
541.065
498.922
462.364
430.349
402.077
376.927
354.407
334.125
315.761
299.055
283.791
269.79
256.901
244.996
233.966
223.718
214.172
205.258
196.916
189.091
181.738
174.815
168.286
162.119
156.283
150.755
145.509
140.526
135.786
131.273
126.971
122.865
118.943
115.194
111.605
108.169
104.875
101.715
98.6819
95.7681
92.9672
90.2731
87.6802
85.1833
82.7774
80.458
78.2209
76.0621
73.9778
71.9648
70.0196
68.1392
66.3207
64.5615
62.8591
61.211
59.6149
58.0689
56.5708
55.1188
53.711
52.3458
51.0215
49.7366
48.4896
47.2792
46.1041
44.9629
43.8546
42.7779
41.7318
40.7152
39.7273
38.767
37.8335
36.9259
36.0434
35.1852
34.3505
15394
6194.98
3537.18
2433.17
1839.68
1472.18
1223.17
1043.66
908.265
802.569
717.798
648.309
590.317
541.188
499.034
462.466
430.442
402.163
377.005
354.479
334.191
315.822
299.111
283.842
269.837
256.944
245.036
234.003
223.752
214.204
205.287
196.942
189.116
181.761
174.836
168.306
162.137
156.3
150.77
145.524
140.539
135.799
131.285
126.981
122.875
118.952
115.202
111.614
108.176
104.882
101.722
98.6881
95.7739
92.9727
90.2783
87.6851
85.1879
82.7817
80.4621
78.2248
76.0657
73.9813
71.9681
70.0227
68.1422
66.3236
64.5643
62.8617
61.2135
59.6173
58.0712
56.573
55.1209
53.713
52.3477
51.0234
49.7384
48.4914
47.2809
46.1057
44.9645
43.8561
42.7793
41.7332
40.7166
39.7286
38.7683
37.8347
36.9271
36.0445
35.1862
34.3515
15395.5
6193.51
3536.73
2433
1839.68
1472.26
1223.29
1043.79
908.397
802.696
717.916
648.419
590.419
541.282
499.121
462.547
430.517
402.232
377.07
354.539
334.246
315.873
299.159
283.887
269.879
256.983
245.072
234.036
223.783
214.233
205.314
196.967
189.139
181.783
174.857
168.325
162.154
156.316
150.785
145.538
140.553
135.811
131.296
126.992
122.885
118.962
115.211
111.622
108.184
104.889
101.729
98.6945
95.7799
92.9784
90.2836
87.6901
85.1926
82.7862
80.4663
78.2288
76.0696
73.985
71.9715
70.026
68.1453
66.3266
64.5671
62.8644
61.2161
59.6199
58.0736
56.5754
55.1231
53.7152
52.3498
51.0254
49.7403
48.4933
47.2827
46.1074
44.9662
43.8577
42.7809
41.7347
40.7181
39.73
38.7697
37.836
36.9283
36.0457
35.1874
34.3527
15396.8
6192.27
3536.25
2432.8
1839.62
1472.28
1223.35
1043.87
908.485
802.785
718.002
648.5
590.495
541.354
499.188
462.61
430.576
402.287
377.122
354.588
334.293
315.917
299.199
283.925
269.915
257.017
245.103
234.066
223.811
214.259
205.339
196.99
189.161
181.803
174.876
168.342
162.171
156.332
150.8
145.551
140.565
135.823
131.307
127.003
122.895
118.971
115.22
111.63
108.192
104.896
101.735
98.7009
95.786
92.9841
90.2891
87.6953
85.1975
82.7908
80.4707
78.2329
76.0735
73.9887
71.9751
70.0294
68.1485
66.3297
64.5701
62.8673
61.2188
59.6225
58.0762
56.5778
55.1255
53.7175
52.352
51.0275
49.7424
48.4952
47.2846
46.1093
44.9679
43.8594
42.7826
41.7363
40.7196
39.7316
38.7711
37.8375
36.9297
36.047
35.1887
34.3539
15398
6191.25
3535.77
2432.57
1839.52
1472.25
1223.37
1043.92
908.544
802.847
718.064
648.561
590.554
541.409
499.241
462.66
430.623
402.332
377.164
354.628
334.331
315.953
299.234
283.958
269.946
257.046
245.131
234.092
223.836
214.282
205.361
197.012
189.181
181.822
174.893
168.359
162.187
156.347
150.814
145.565
140.578
135.835
131.318
127.013
122.905
118.98
115.228
111.638
108.2
104.904
101.742
98.7075
95.7922
92.99
90.2947
87.7006
85.2025
82.7956
80.4752
78.2372
76.0776
73.9926
71.9788
70.0329
68.1519
66.3329
64.5732
62.8703
61.2217
59.6253
58.0788
56.5804
55.128
53.7199
52.3543
51.0297
49.7445
48.4973
47.2866
46.1112
44.9698
43.8612
42.7843
41.738
40.7213
39.7332
38.7727
37.839
36.9312
36.0485
35.1901
34.3553
15399
6190.39
3535.3
2432.34
1839.4
1472.2
1223.37
1043.94
908.58
802.89
718.11
648.607
590.598
541.453
499.282
462.7
430.661
402.369
377.199
354.662
334.363
315.984
299.263
283.986
269.973
257.072
245.156
234.116
223.859
214.304
205.381
197.031
189.199
181.839
174.91
168.375
162.201
156.361
150.827
145.577
140.59
135.846
131.329
127.023
122.914
118.989
115.237
111.646
108.207
104.911
101.749
98.7141
95.7985
92.9959
90.3003
87.7059
85.2076
82.8005
80.4799
78.2416
76.0818
73.9966
71.9827
70.0366
68.1555
66.3363
64.5765
62.8734
61.2247
59.6282
58.0816
56.583
55.1306
53.7224
52.3567
51.032
49.7468
48.4995
47.2888
46.1133
44.9718
43.8632
42.7862
41.7399
40.7231
39.7349
38.7744
37.8407
36.9328
36.0501
35.1916
34.3568
15399.8
6189.66
3534.85
2432.11
1839.27
1472.14
1223.34
1043.94
908.598
802.917
718.142
648.64
590.632
541.486
499.315
462.731
430.692
402.398
377.228
354.69
334.39
316.01
299.288
284.01
269.996
257.094
245.177
234.136
223.878
214.323
205.4
197.048
189.216
181.855
174.925
168.389
162.215
156.374
150.84
145.589
140.601
135.857
131.339
127.033
122.924
118.998
115.246
111.654
108.215
104.918
101.756
98.7207
95.8048
93.002
90.306
87.7114
85.2128
82.8054
80.4846
78.2462
76.0861
74.0008
71.9866
70.0404
68.1591
66.3398
64.5798
62.8766
61.2278
59.6312
58.0845
56.5859
55.1333
53.725
52.3593
51.0345
49.7492
48.5018
47.291
46.1155
44.974
43.8653
42.7883
41.7419
40.725
39.7368
38.7762
37.8424
36.9345
36.0517
35.1933
34.3584
15400.5
6189.05
3534.44
2431.89
1839.14
1472.06
1223.3
1043.93
908.602
802.932
718.163
648.664
590.658
541.512
499.341
462.757
430.717
402.423
377.252
354.713
334.412
316.031
299.31
284.031
270.016
257.114
245.196
234.155
223.896
214.34
205.416
197.064
189.231
181.87
174.939
168.403
162.228
156.387
150.852
145.601
140.612
135.867
131.349
127.043
122.933
119.007
115.254
111.662
108.223
104.926
101.763
98.7274
95.8112
93.008
90.3118
87.7169
85.2181
82.8105
80.4895
78.2508
76.0906
74.005
71.9907
70.0443
68.1629
66.3434
64.5833
62.88
61.2311
59.6343
58.0876
56.5888
55.1361
53.7277
52.3619
51.0371
49.7517
48.5043
47.2934
46.1178
44.9762
43.8675
42.7904
41.744
40.7271
39.7388
38.7782
37.8443
36.9364
36.0536
35.195
34.3601
15401
6188.53
3534.07
2431.68
1839
1471.98
1223.26
1043.91
908.597
802.938
718.175
648.681
590.677
541.532
499.361
462.777
430.737
402.443
377.271
354.732
334.431
316.05
299.328
284.049
270.033
257.131
245.213
234.171
223.912
214.355
205.431
197.078
189.245
181.883
174.952
168.415
162.24
156.398
150.863
145.611
140.623
135.877
131.359
127.052
122.942
119.016
115.262
111.67
108.23
104.933
101.77
98.734
95.8175
93.0141
90.3177
87.7225
85.2235
82.8156
80.4944
78.2556
76.0952
74.0094
71.9949
70.0484
68.1668
66.3472
64.587
62.8835
61.2345
59.6376
58.0907
56.5919
55.1391
53.7306
52.3647
51.0398
49.7543
48.5068
47.2959
46.1203
44.9786
43.8698
42.7927
41.7462
40.7293
39.7409
38.7803
37.8464
36.9384
36.0555
35.1969
34.362
15401.5
6188.09
3533.73
2431.48
1838.88
1471.89
1223.2
1043.88
908.584
802.936
718.18
648.691
590.689
541.547
499.377
462.793
430.754
402.459
377.288
354.748
334.447
316.066
299.343
284.064
270.048
257.145
245.227
234.185
223.926
214.369
205.444
197.091
189.257
181.895
174.964
168.427
162.252
156.409
150.874
145.622
140.632
135.887
131.368
127.061
122.95
119.024
115.27
111.678
108.238
104.94
101.777
98.7406
95.8239
93.0202
90.3235
87.7282
85.2289
82.8209
80.4995
78.2604
76.0998
74.0139
71.9993
70.0526
68.1708
66.3511
64.5907
62.8872
61.238
59.641
58.0941
56.5951
55.1422
53.7337
52.3677
51.0427
49.7571
48.5096
47.2986
46.1228
44.9812
43.8723
42.7951
41.7486
40.7316
39.7432
38.7825
37.8486
36.9405
36.0576
35.199
34.364
15401.9
6187.72
3533.43
2431.29
1838.75
1471.81
1223.15
1043.84
908.565
802.928
718.18
648.696
590.698
541.557
499.389
462.806
430.767
402.472
377.301
354.762
334.461
316.079
299.357
284.078
270.062
257.159
245.24
234.198
223.938
214.381
205.456
197.103
189.269
181.907
174.975
168.438
162.262
156.42
150.884
145.631
140.642
135.896
131.377
127.069
122.959
119.032
115.278
111.685
108.245
104.947
101.784
98.7471
95.8302
93.0263
90.3294
87.7339
85.2344
82.8262
80.5046
78.2654
76.1046
74.0185
72.0037
70.0569
68.175
66.3551
64.5946
62.891
61.2417
59.6446
58.0975
56.5985
55.1455
53.7368
52.3708
51.0457
49.7601
48.5124
47.3014
46.1256
44.9838
43.8749
42.7977
41.7511
40.7341
39.7456
38.7849
37.8509
36.9428
36.0598
35.2011
34.3661
15402.2
6187.41
3533.16
2431.12
1838.64
1471.73
1223.09
1043.81
908.542
802.915
718.175
648.696
590.702
541.564
499.397
462.816
430.777
402.483
377.313
354.773
334.473
316.091
299.369
284.089
270.073
257.17
245.252
234.209
223.95
214.392
205.467
197.114
189.28
181.917
174.986
168.448
162.272
156.429
150.893
145.641
140.651
135.905
131.386
127.078
122.967
119.04
115.285
111.693
108.252
104.954
101.79
98.7537
95.8365
93.0324
90.3354
87.7396
85.24
82.8315
80.5098
78.2704
76.1095
74.0232
72.0083
70.0613
68.1793
66.3593
64.5987
62.8949
61.2455
59.6483
58.1011
56.602
55.1489
53.7402
52.374
51.0489
49.7632
48.5154
47.3043
46.1285
44.9867
43.8777
42.8004
41.7538
40.7367
39.7482
38.7874
37.8533
36.9452
36.0621
35.2034
34.3684
15402.4
6187.13
3532.93
2430.96
1838.53
1471.65
1223.04
1043.77
908.516
802.899
718.167
648.693
590.703
541.568
499.403
462.823
430.785
402.492
377.322
354.783
334.483
316.101
299.379
284.1
270.084
257.181
245.262
234.22
223.96
214.403
205.478
197.124
189.29
181.927
174.995
168.458
162.282
156.438
150.902
145.65
140.66
135.913
131.394
127.086
122.975
119.047
115.293
111.7
108.259
104.961
101.797
98.7602
95.8428
93.0386
90.3413
87.7454
85.2456
82.837
80.515
78.2755
76.1144
74.0281
72.013
70.0659
68.1837
66.3636
64.6028
62.8989
61.2494
59.6521
58.1049
56.6056
55.1525
53.7436
52.3774
51.0522
49.7664
48.5186
47.3074
46.1315
44.9897
43.8806
42.8033
41.7566
40.7395
39.7509
38.79
37.8559
36.9476
36.0645
35.2058
34.3707
15402.7
6186.9
3532.72
2430.82
1838.43
1471.58
1222.98
1043.73
908.489
802.881
718.156
648.688
590.702
541.569
499.407
462.828
430.792
402.499
377.33
354.791
334.491
316.11
299.388
284.109
270.093
257.19
245.272
234.229
223.97
214.412
205.487
197.134
189.299
181.936
175.004
168.467
162.29
156.447
150.911
145.658
140.668
135.922
131.402
127.094
122.982
119.055
115.3
111.707
108.266
104.968
101.804
98.7666
95.8491
93.0447
90.3473
87.7512
85.2512
82.8425
80.5204
78.2807
76.1195
74.033
72.0177
70.0705
68.1882
66.368
64.6071
62.9031
61.2535
59.6561
58.1087
56.6094
55.1562
53.7473
52.381
51.0557
49.7698
48.5219
47.3107
46.1347
44.9928
43.8837
42.8063
41.7596
40.7424
39.7538
38.7928
37.8585
15402.8
6186.7
3532.53
2430.69
1838.34
1471.51
1222.93
1043.69
908.461
802.862
718.143
648.68
590.698
541.568
499.408
462.831
430.796
402.505
377.336
354.798
334.498
316.118
299.396
284.117
270.102
257.199
245.28
234.238
223.978
214.421
205.496
197.142
189.308
181.945
175.013
168.475
162.299
156.456
150.919
145.666
140.676
135.929
131.41
127.101
122.99
119.062
115.307
111.714
108.273
104.974
101.81
98.773
95.8554
93.0508
90.3533
87.757
85.2569
82.848
80.5258
78.286
76.1246
74.038
72.0226
70.0753
68.1929
66.3725
64.6116
62.9074
61.2578
59.6602
58.1128
56.6133
55.16
53.751
52.3847
51.0593
49.7734
48.5254
47.3141
46.1381
44.9961
43.887
42.8096
41.7627
40.7455
39.7568
38.7958
37.8614
15403
6186.52
3532.36
2430.57
1838.25
1471.45
1222.88
1043.65
908.433
802.841
718.128
648.671
590.692
541.566
499.408
462.833
430.8
402.509
377.341
354.804
334.505
316.125
299.403
284.124
270.109
257.206
245.288
234.246
223.986
214.429
205.504
197.151
189.316
181.953
175.021
168.483
162.307
156.464
150.927
145.674
140.684
135.937
131.417
127.109
122.997
119.069
115.314
111.721
108.28
104.981
101.817
98.7795
95.8617
93.057
90.3593
87.7629
85.2627
82.8537
80.5313
78.2914
76.1299
74.0431
72.0276
70.0802
68.1976
66.3772
64.6161
62.9119
61.2621
59.6645
58.117
56.6174
55.164
53.755
52.3885
51.0631
49.7771
48.5291
47.3177
46.1416
44.9996
43.8904
42.8129
41.7661
40.7487
39.76
38.7989
37.8645
15403.2
6186.37
3532.22
2430.46
1838.17
1471.39
1222.84
1043.62
908.405
802.821
718.113
648.66
590.685
541.562
499.407
462.834
430.801
402.512
377.345
354.809
334.51
316.131
299.409
284.131
270.116
257.213
245.296
234.253
223.994
214.437
205.512
197.158
189.324
181.961
175.029
168.491
162.315
156.471
150.935
145.682
140.691
135.945
131.425
127.116
123.004
119.077
115.321
111.728
108.287
104.988
101.823
98.7859
95.868
93.0631
90.3653
87.7688
85.2685
82.8593
80.5369
78.2968
76.1352
74.0483
72.0328
70.0852
68.2025
66.382
64.6208
62.9165
61.2666
59.6689
58.1213
56.6217
55.1682
53.7591
52.3925
51.067
49.781
48.5329
47.3215
46.1453
45.0033
43.894
42.8165
41.7696
40.7522
15403.3
6186.23
3532.09
2430.36
1838.1
1471.33
1222.8
1043.58
908.379
802.8
718.098
648.649
590.678
541.557
499.404
462.833
430.802
402.515
377.348
354.813
334.515
316.136
299.415
284.137
270.122
257.22
245.302
234.26
224.001
214.444
205.519
197.166
189.331
181.968
175.036
168.498
162.322
156.479
150.942
145.689
140.698
135.952
131.432
127.123
123.011
119.084
115.328
111.735
108.293
104.994
101.83
98.7923
95.8743
93.0693
90.3714
87.7748
85.2744
82.8651
80.5425
78.3024
76.1406
74.0537
72.038
70.0903
68.2076
66.3869
64.6257
62.9213
61.2713
59.6735
58.1258
56.6261
55.1725
53.7633
52.3967
51.0711
49.785
48.5369
47.3254
46.1492
45.0071
43.8978
42.8203
41.7733
40.7558
15403.4
6186.12
3531.97
2430.27
1838.03
1471.28
1222.76
1043.55
908.353
802.78
718.082
648.637
590.669
541.552
499.401
462.831
430.802
402.516
377.351
354.816
334.519
316.14
299.42
284.142
270.128
257.226
245.309
234.267
224.008
214.451
205.526
197.173
189.338
181.976
175.044
168.506
162.329
156.486
150.949
145.696
140.706
135.959
131.439
127.13
123.018
119.09
115.335
111.742
108.3
105.001
101.836
98.7987
95.8806
93.0756
90.3775
87.7809
85.2803
82.8709
80.5482
78.308
76.1462
74.0591
72.0433
70.0955
68.2127
66.392
64.6306
62.9261
61.2761
59.6782
58.1304
56.6306
55.177
53.7677
52.4011
51.0754
49.7892
48.5411
47.3296
46.1533
45.0112
43.9018
42.8242
41.7772
40.7596
15403.5
6186.01
3531.87
2430.19
1837.97
1471.24
1222.72
1043.52
908.329
802.761
718.067
648.625
590.66
541.545
499.397
462.829
430.802
402.516
377.352
354.819
334.522
316.144
299.424
284.147
270.133
257.232
245.314
234.273
224.014
214.457
205.533
197.18
189.345
181.983
175.051
168.513
162.337
156.493
150.956
145.703
140.713
135.966
131.446
127.137
123.025
119.097
115.342
111.748
108.307
105.008
101.843
98.8051
95.8869
93.0818
90.3837
87.7869
85.2863
82.8768
80.5541
78.3137
76.1518
74.0647
72.0488
70.1009
68.218
66.3972
64.6358
62.9312
61.281
59.6831
58.1352
56.6354
55.1817
53.7723
52.4056
51.0799
49.7937
48.5454
47.3339
46.1576
45.0154
43.906
42.8284
41.7812
40.7636
15403.6
6185.92
3531.78
2430.12
1837.92
1471.19
1222.68
1043.5
908.307
802.742
718.052
648.614
590.651
541.539
499.392
462.826
430.8
402.516
377.353
354.821
334.525
316.148
299.428
284.152
270.138
257.237
245.32
234.279
224.02
214.463
205.539
197.186
189.352
181.989
175.057
168.52
162.343
156.5
150.963
145.71
140.72
135.973
131.453
127.144
123.032
119.104
115.349
111.755
108.313
105.014
101.849
98.8116
95.8933
93.0881
90.3899
87.7931
85.2924
82.8828
80.56
78.3195
76.1576
74.0703
72.0544
70.1064
68.2234
66.4025
64.641
62.9363
61.2861
59.6881
58.1402
56.6403
55.1865
53.7771
52.4103
51.0845
49.7983
48.55
47.3384
46.1621
45.0198
43.9104
42.8327
41.7854
40.7677
15403.7
6185.84
3531.69
2430.05
1837.87
1471.15
1222.65
1043.47
908.286
802.725
718.038
648.602
590.642
541.532
499.387
462.823
430.798
402.516
377.354
354.822
334.527
316.15
299.432
284.156
270.143
257.242
245.325
234.284
224.026
214.469
205.545
197.193
189.358
181.996
175.064
168.526
162.35
156.507
150.97
145.717
140.727
135.98
131.46
127.151
123.039
119.111
115.356
111.762
108.32
105.021
101.856
98.8181
95.8998
93.0945
90.3963
87.7993
85.2985
82.8889
80.566
78.3255
76.1634
74.0761
72.0601
70.112
68.229
66.408
64.6464
62.9417
61.2914
59.6933
58.1453
56.6453
55.1915
53.782
52.4152
51.0894
49.8031
48.5548
47.3431
46.1667
45.0244
43.915
42.8371
41.7899
40.772
15403.8
6185.77
3531.62
2429.99
1837.82
1471.12
1222.62
1043.45
908.267
802.709
718.025
648.591
590.634
541.525
499.382
462.82
430.796
402.515
377.354
354.823
334.529
316.153
299.435
284.16
270.147
257.246
245.33
234.29
224.031
214.475
205.551
197.199
189.365
182.002
175.071
168.533
162.357
156.514
150.977
145.724
140.733
135.987
131.467
127.158
123.046
119.118
115.362
111.769
108.327
105.027
101.863
98.8246
95.9063
93.101
90.4026
87.8057
85.3048
82.8951
80.5721
78.3315
76.1694
74.082
72.0659
70.1178
68.2346
66.4136
64.6519
62.9471
61.2968
59.6986
58.1506
56.6505
55.1967
53.7871
52.4203
51.0944
49.808
48.5597
47.348
46.1716
45.0292
43.9197
42.8418
41.7944
40.7765
15403.9
6185.71
3531.55
2429.93
1837.78
1471.08
1222.6
1043.43
908.249
802.694
718.012
648.581
590.625
541.518
499.377
462.816
430.794
402.514
377.354
354.824
334.53
316.155
299.438
284.163
270.151
257.251
245.335
234.295
224.037
214.481
205.557
197.205
189.371
182.009
175.077
168.539
162.364
156.52
150.984
145.731
140.74
135.994
131.473
127.164
123.052
119.125
115.369
111.775
108.333
105.034
101.869
98.8313
95.9128
93.1075
90.4091
87.812
85.3111
82.9014
80.5783
78.3377
76.1755
74.088
72.0718
70.1237
68.2405
66.4193
64.6576
62.9528
61.3023
59.7041
58.156
56.6559
55.202
53.7924
52.4255
51.0996
49.8132
48.5648
47.353
46.1766
45.0342
43.9246
42.8466
41.7992
40.7812
15404
6185.66
3531.5
2429.88
1837.74
1471.05
1222.57
1043.41
908.233
802.68
718.001
648.571
590.617
541.512
499.372
462.812
430.791
402.512
377.353
354.824
334.532
316.157
299.441
284.166
270.155
257.255
245.339
234.3
224.042
214.486
205.563
197.21
189.377
182.015
175.083
168.546
162.37
156.527
150.99
145.737
140.747
136
131.48
127.171
123.059
119.131
115.376
111.782
108.34
105.041
101.876
98.8379
95.9195
93.114
90.4156
87.8185
85.3175
82.9077
80.5846
78.3439
76.1816
74.0941
72.0779
70.1297
68.2464
66.4252
64.6635
62.9585
61.3081
59.7098
58.1616
56.6615
55.2075
53.7979
52.4309
51.105
49.8185
48.5701
47.3583
46.1818
45.0393
43.9296
42.8516
41.8041
40.7861
15404.1
6185.61
3531.44
2429.84
1837.7
1471.03
1222.55
1043.39
908.218
802.668
717.99
648.562
590.61
541.506
499.367
462.808
430.789
402.511
377.353
354.824
334.533
316.159
299.443
284.169
270.158
257.259
245.344
234.304
224.047
214.491
205.568
197.216
189.383
182.021
175.09
168.552
162.376
156.533
150.997
145.744
140.754
136.007
131.487
127.178
123.066
119.138
115.383
111.789
108.347
105.048
101.883
98.8447
95.9261
93.1207
90.4222
87.8251
85.3241
82.9142
80.591
78.3503
76.188
74.1004
72.0841
70.1358
68.2525
66.4313
64.6694
62.9645
61.3139
59.7156
58.1674
56.6672
55.2132
53.8035
52.4365
51.1105
49.824
48.5756
47.3637
46.1872
45.0446
43.9349
42.8568
41.8092
40.7911
15404.2
6185.58
3531.4
2429.8
1837.67
1471
1222.53
1043.37
908.204
802.656
717.98
648.554
590.603
541.5
499.362
462.805
430.786
402.509
377.352
354.824
334.533
316.16
299.445
284.172
270.161
257.262
245.348
234.309
224.052
214.496
205.573
197.222
189.388
182.027
175.096
168.558
162.383
156.54
151.003
145.751
140.76
136.014
131.494
127.185
123.073
119.145
115.39
111.796
108.354
105.054
101.89
98.8514
95.9329
93.1274
90.4289
87.8318
85.3307
82.9208
80.5976
78.3568
76.1944
74.1068
72.0904
70.1421
68.2587
66.4374
64.6756
62.9705
61.32
59.7216
58.1733
56.6731
55.2191
53.8094
52.4423
51.1163
49.8297
48.5812
47.3693
46.1927
45.0501
43.9403
42.8621
41.8145
40.7963
15404.3
6185.54
3531.35
2429.76
1837.64
1470.98
1222.51
1043.36
908.192
802.646
717.971
648.546
590.596
541.495
499.358
462.802
430.784
402.507
377.351
354.824
334.534
316.162
299.447
284.174
270.164
257.266
245.352
234.313
224.056
214.501
205.578
197.227
189.394
182.033
175.102
168.565
162.389
156.546
151.01
145.757
140.767
136.021
131.501
127.192
123.08
119.152
115.396
111.803
108.361
105.061
101.896
98.8583
95.9397
93.1342
90.4357
87.8385
85.3374
82.9275
80.6042
78.3633
76.2009
74.1133
72.0969
70.1485
68.2651
66.4438
64.6818
62.9768
61.3262
59.7278
58.1794
56.6792
55.2251
53.8153
52.4482
51.1222
49.8356
48.587
47.3751
46.1984
45.0557
43.9459
42.8676
41.8199
40.8016
15404.4
6185.52
3531.32
2429.72
1837.61
1470.95
1222.5
1043.34
908.18
802.636
717.963
648.54
590.591
541.49
499.354
462.798
430.781
402.506
377.35
354.824
334.535
316.163
299.449
284.176
270.167
257.269
245.355
234.317
224.06
214.506
205.583
197.232
189.4
182.038
175.107
168.571
162.395
156.553
151.016
145.764
140.774
136.027
131.507
127.198
123.087
119.159
115.403
111.81
108.368
105.068
101.903
98.8652
95.9466
93.1411
90.4426
87.8453
85.3442
82.9342
80.6109
78.37
76.2076
74.1199
72.1035
70.155
68.2716
66.4502
64.6883
62.9831
61.3325
59.7341
58.1857
56.6854
55.2313
53.8215
52.4543
51.1282
49.8416
48.593
47.381
46.2042
45.0615
43.9516
42.8733
41.8255
40.8072
15404.4
6185.51
3531.29
2429.69
1837.59
1470.93
1222.48
1043.33
908.17
802.628
717.956
648.533
590.585
541.485
499.35
462.795
430.779
402.504
377.349
354.824
334.535
316.164
299.45
284.179
270.169
257.272
245.359
234.321
224.065
214.51
205.588
197.237
189.405
182.044
175.113
168.577
162.401
156.559
151.023
145.77
140.78
136.034
131.514
127.205
123.093
119.166
115.41
111.817
108.375
105.075
101.91
98.8722
95.9536
93.1481
90.4495
87.8522
85.3511
82.9411
80.6178
78.3768
76.2144
74.1266
72.1102
70.1617
68.2782
66.4568
64.6948
62.9897
61.339
59.7405
58.1921
56.6918
55.2376
53.8278
52.4606
51.1345
49.8478
48.5991
47.387
46.2102
45.0675
43.9575
42.8791
41.8312
40.8128
15404.5
6185.5
3531.26
2429.67
1837.56
1470.92
1222.47
1043.32
908.161
802.62
717.95
648.528
590.58
541.481
499.347
462.793
430.777
402.503
377.349
354.824
334.535
316.165
299.452
284.181
270.172
257.275
245.362
234.324
224.069
214.515
205.593
197.242
189.41
182.049
175.119
168.582
162.407
156.565
151.029
145.777
140.787
136.041
131.521
127.212
123.1
119.173
115.417
111.824
108.382
105.082
101.917
98.8792
95.9606
93.1551
90.4565
87.8592
85.358
82.948
80.6247
78.3837
76.2212
74.1335
72.117
70.1685
68.285
66.4635
64.7015
62.9963
61.3456
59.7471
58.1987
56.6983
55.2441
53.8342
52.467
51.1408
49.8541
48.6054
47.3933
46.2164
45.0736
43.9635
42.885
41.8371
40.8187
15404.6
6185.49
3531.24
2429.64
1837.54
1470.9
1222.45
1043.31
908.152
802.613
717.944
648.523
590.576
541.478
499.344
462.79
430.775
402.502
377.348
354.824
334.536
316.166
299.453
284.182
270.174
257.278
245.365
234.328
224.073
214.519
205.598
197.247
189.415
182.055
175.124
168.588
162.413
156.571
151.035
145.783
140.793
136.047
131.527
127.219
123.107
119.179
115.424
111.83
108.389
105.089
101.924
98.8863
95.9677
93.1621
90.4636
87.8663
85.3651
82.9551
80.6317
78.3907
76.2282
74.1404
72.1239
70.1754
68.2918
66.4704
64.7083
63.0031
61.3523
59.7538
58.2053
56.7049
55.2507
53.8408
52.4736
51.1473
49.8606
48.6118
47.3996
46.2227
45.0798
43.9697
42.8912
41.8431
40.8246
15404.7
6185.49
3531.22
2429.62
1837.52
1470.88
1222.44
1043.3
908.144
802.606
717.938
648.518
590.572
541.474
499.341
462.788
430.774
402.5
377.347
354.823
334.536
316.166
299.454
284.184
270.176
257.28
245.368
234.331
224.076
214.523
205.602
197.252
189.42
182.06
175.13
168.594
162.419
156.577
151.041
145.789
140.8
136.054
131.534
127.226
123.114
119.186
115.431
111.837
108.396
105.096
101.931
98.8933
95.9748
93.1692
90.4707
87.8734
85.3722
82.9622
80.6388
78.3978
76.2353
74.1474
72.1309
70.1824
68.2988
66.4773
64.7152
63.01
61.3592
59.7606
58.2122
56.7117
55.2575
53.8475
52.4802
51.154
49.8671
48.6183
47.4061
46.2292
45.0862
43.976
42.8974
41.8493
15404.8
6185.5
3531.2
2429.6
1837.51
1470.87
1222.43
1043.29
908.137
802.601
717.933
648.514
590.569
541.472
499.339
462.786
430.772
402.499
377.347
354.823
334.536
316.167
299.455
284.186
270.178
257.283
245.371
234.334
224.08
214.527
205.606
197.256
189.425
182.065
175.135
168.599
162.425
156.583
151.048
145.796
140.806
136.06
131.541
127.232
123.121
119.193
115.438
111.844
108.403
105.103
101.939
98.9004
95.9819
93.1764
90.4778
87.8805
85.3793
82.9693
80.6459
78.4049
76.2424
74.1546
72.138
70.1894
68.3058
66.4843
64.7222
63.017
61.3662
59.7676
58.2191
56.7186
55.2643
53.8544
52.487
51.1607
49.8739
48.625
47.4127
46.2357
45.0927
43.9824
42.9038
41.8556
15404.9
6185.52
3531.19
2429.59
1837.49
1470.86
1222.42
1043.28
908.13
802.595
717.929
648.511
590.566
541.469
499.337
462.784
430.771
402.498
377.346
354.823
334.537
316.168
299.457
284.187
270.18
257.285
245.374
234.337
224.083
214.531
205.61
197.261
189.429
182.07
175.14
168.605
162.43
156.589
151.053
145.802
140.812
136.066
131.547
127.239
123.127
119.2
115.445
111.851
108.409
105.11
101.946
98.9075
95.989
93.1835
90.485
87.8877
85.3865
82.9765
80.6531
78.4121
76.2496
74.1617
72.1452
70.1966
68.313
66.4915
64.7293
63.0241
61.3733
59.7746
58.2261
56.7256
55.2713
53.8613
52.4939
51.1676
49.8807
48.6318
47.4195
46.2424
45.0993
43.989
42.9102
41.862
15405
6185.53
3531.18
2429.57
1837.48
1470.85
1222.41
1043.27
908.124
802.59
717.925
648.507
590.563
541.467
499.335
462.783
430.77
402.497
377.346
354.823
334.537
316.168
299.458
284.189
270.182
257.287
245.376
234.34
224.086
214.534
205.614
197.265
189.434
182.074
175.145
168.61
162.436
156.594
151.059
145.808
140.818
136.073
131.553
127.245
123.134
119.207
115.452
111.858
108.416
105.117
101.953
98.9146
95.9961
93.1907
90.4921
87.8949
85.3937
82.9837
80.6603
78.4194
76.2568
74.169
72.1524
70.2038
68.3202
66.4987
64.7365
63.0312
61.3804
59.7818
58.2332
56.7327
55.2784
53.8683
52.5009
51.1746
49.8876
48.6387
47.4263
46.2492
45.106
43.9956
42.9168
41.8685
15405.1
6185.55
3531.18
2429.56
1837.46
1470.83
1222.4
1043.27
908.119
802.586
717.921
648.504
590.561
541.465
499.333
462.782
430.768
402.497
377.345
354.823
334.537
316.169
299.458
284.19
270.184
257.289
245.378
234.343
224.089
214.538
205.617
197.269
189.438
182.079
175.15
168.615
162.441
156.6
151.065
145.813
140.824
136.079
131.56
127.252
123.14
119.213
115.458
111.865
108.423
105.124
101.96
98.9216
96.0032
93.1978
90.4993
87.9021
85.4009
82.991
80.6676
78.4266
76.2641
74.1762
72.1597
70.2111
68.3275
66.5059
64.7438
63.0385
61.3876
59.789
58.2404
56.7399
55.2855
53.8755
52.508
51.1816
49.8946
48.6456
47.4332
46.256
45.1128
44.0023
42.9234
41.875
15405.2
6185.58
3531.18
2429.55
1837.45
1470.83
1222.39
1043.26
908.113
802.582
717.918
648.502
590.558
541.463
499.332
462.78
430.768
402.496
377.345
354.823
334.537
316.17
299.459
284.191
270.185
257.291
245.381
234.345
224.092
214.541
205.621
197.272
189.442
182.083
175.154
168.619
162.446
156.605
151.07
145.819
140.83
136.085
131.566
127.258
123.147
119.22
115.465
111.872
108.43
105.131
101.967
98.9286
96.0102
93.2049
90.5064
87.9093
85.4081
82.9982
80.6748
78.4339
76.2713
74.1835
72.167
70.2184
68.3348
66.5132
64.7511
63.0458
61.3949
59.7963
58.2477
56.7471
55.2927
53.8826
52.5152
51.1887
49.9017
48.6527
47.4402
46.2629
45.1196
44.0091
42.9301
41.8816
15405.4
6185.61
3531.18
2429.55
1837.45
1470.82
1222.38
1043.25
908.108
802.578
717.915
648.499
590.556
541.461
499.33
462.779
430.767
402.495
377.344
354.823
334.537
316.17
299.46
284.192
270.186
257.292
245.382
234.348
224.095
214.543
205.624
197.276
189.446
182.087
175.159
168.624
162.451
156.61
151.075
145.824
140.836
136.09
131.572
127.264
123.153
119.226
115.471
111.878
108.437
105.138
101.973
98.9355
96.0172
93.2119
90.5135
87.9164
85.4153
83.0054
80.6821
78.4411
76.2786
74.1908
72.1743
70.2257
68.3421
66.5206
64.7584
63.0531
61.4023
59.8036
58.255
56.7544
55.3
53.8899
52.5224
51.1959
49.9088
48.6597
47.4472
46.2699
45.1265
44.0159
42.9369
41.8883
15405.5
6185.65
3531.19
2429.54
1837.44
1470.81
1222.38
1043.25
908.104
802.574
717.912
648.496
590.554
541.459
499.329
462.778
430.766
402.495
377.344
354.822
334.537
316.17
299.46
284.193
270.188
257.294
245.384
234.35
224.097
214.546
205.627
197.279
189.449
182.091
175.163
168.628