/*--------------------------------*- C++ -*----------------------------------*\
  =========                 |
  \\      /  F ield         | OpenFOAM: The Open Source CFD Toolbox
   \\    /   O peration     | Website:  https://openfoam.org
    \\  /    A nd           | Version:  10
     \\/     M anipulation  |
\*---------------------------------------------------------------------------*/
FoamFile
{
    format      ascii;
    class       volVectorField;
    location    "9000";
    object      Urel;
}
// * * * * * * * * * * * * * * * * * * * * * * * * * * * * * * * * * * * * * //

dimensions      [0 1 -1 0 0 0 0];

internalField   nonuniform List<vector> 
17808
(
(3.5156 -3.8513 -1.38248e-17)
(3.02632 -3.31466 -1.53748e-18)
(2.81465 -3.08172 9.81803e-18)
(2.66988 -2.92596 1.03002e-17)
(2.56027 -2.80625 -2.37081e-18)
(2.47163 -2.7095 -1.63573e-17)
(2.39714 -2.62807 8.07782e-18)
(2.33272 -2.55757 -8.44891e-18)
(2.27583 -2.49523 1.40444e-17)
(2.22475 -2.43922 -5.08828e-21)
(2.17829 -2.38824 -6.22007e-18)
(2.13559 -2.34136 4.41101e-18)
(2.096 -2.29788 -6.2902e-18)
(2.05904 -2.25727 6.65558e-19)
(2.02432 -2.2191 0)
(1.99152 -2.18304 6.09026e-19)
(1.96041 -2.14883 -1.1694e-18)
(1.93077 -2.11624 -1.12503e-18)
(1.90244 -2.08507 -4.8774e-18)
(1.87528 -2.05519 5.11393e-21)
(1.84917 -2.02646 4.05358e-18)
(1.824 -1.99876 0)
(1.79969 -1.97201 3.80317e-18)
(1.77616 -1.94611 -3.69839e-18)
(1.75334 -1.92099 3.59063e-18)
(1.73117 -1.89659 -4.37402e-18)
(1.70961 -1.87286 -8.51723e-19)
(1.6886 -1.84973 0)
(1.66811 -1.82718 -8.10521e-19)
(1.6481 -1.80515 -7.91567e-19)
(1.62854 -1.78361 3.09191e-18)
(1.60939 -1.76254 -2.27245e-18)
(1.59063 -1.74189 0)
(1.57224 -1.72165 0)
(1.55419 -1.70178 7.10124e-19)
(1.53647 -1.68227 3.47718e-18)
(1.51905 -1.6631 -2.04993e-18)
(1.50192 -1.64425 0)
(1.48506 -1.6257 -2.62431e-18)
(1.46845 -1.60743 5.58901e-21)
(1.4521 -1.58944 3.80044e-18)
(1.43597 -1.5717 3.72674e-18)
(1.42006 -1.5542 -2.44534e-18)
(1.40437 -1.53694 1.19988e-18)
(1.38887 -1.5199 0)
(1.37357 -1.50308 -1.15894e-18)
(1.35845 -1.48645 3.41486e-18)
(1.3435 -1.47002 -4.48315e-18)
(1.32871 -1.45378 1.10127e-18)
(1.31409 -1.43771 0)
(1.29962 -1.42181 0)
(1.28529 -1.40608 3.13836e-18)
(1.27111 -1.3905 -1.03288e-18)
(1.25706 -1.37508 0)
(1.24313 -1.35979 9.95867e-19)
(1.22934 -1.34465 9.79328e-19)
(1.21566 -1.32964 -9.62999e-19)
(1.20209 -1.31476 -9.46864e-19)
(1.18864 -1.30001 -9.30952e-19)
(1.17529 -1.28537 1.82719e-18)
(1.16204 -1.27086 -3.27444e-21)
(1.1489 -1.25645 1.76526e-18)
(1.13584 -1.24215 -1.74146e-18)
(1.12288 -1.22795 -1.70795e-18)
(1.11001 -1.21386 -3.35265e-18)
(1.09722 -1.19986 1.64833e-18)
(1.08451 -1.18596 -3.24132e-18)
(1.07188 -1.17215 3.17954e-18)
(1.05933 -1.15842 0)
(1.04685 -1.14479 1.53209e-18)
(1.03444 -1.13123 3.00353e-18)
(1.0221 -1.11775 -1.4823e-18)
(1.00982 -1.10436 -1.45066e-18)
(0.997614 -1.09103 1.41919e-18)
(0.985464 -1.07778 -3.59755e-21)
(0.973373 -1.0646 -4.09175e-18)
(0.96134 -1.05149 2.67682e-18)
(0.949361 -1.03845 0)
(0.937435 -1.02546 -1.2862e-18)
(0.92556 -1.01255 -3.77107e-18)
(0.913734 -0.999689 0)
(0.901955 -0.98689 0)
(0.890221 -0.974148 2.35373e-18)
(0.878531 -0.961461 0)
(0.866882 -0.948829 2.25069e-18)
(0.855273 -0.936248 0)
(0.843703 -0.923718 -5.41085e-23)
(0.832169 -0.911237 0)
(0.82067 -0.898804 0)
(0.809204 -0.886416 2.00142e-18)
(0.797769 -0.874074 3.90631e-18)
(0.786367 -0.861777 3.81082e-18)
(3.50478 -3.85238 -1.53912e-18)
(3.01904 -3.31555 1.53028e-18)
(2.80722 -3.08464 0)
(2.66388 -2.92867 0)
(2.55492 -2.80927 2.34734e-18)
(2.46662 -2.71286 -1.07959e-18)
(2.39233 -2.63172 7.98214e-18)
(2.32804 -2.56144 -6.49504e-18)
(2.27122 -2.49929 -8.66343e-19)
(2.22019 -2.44341 6.50048e-18)
(2.17376 -2.39253 -6.8973e-18)
(2.13109 -2.34572 1.44962e-18)
(2.09152 -2.30229 6.88158e-19)
(2.05458 -2.26171 -6.5544e-19)
(2.01987 -2.22355 0)
(1.9871 -2.18749 -5.99582e-19)
(1.95601 -2.15327 5.7557e-19)
(1.92639 -2.12065 5.53709e-19)
(1.89809 -2.08947 0)
(1.87096 -2.05956 0)
(1.84487 -2.0308 0)
(1.81973 -2.00307 -9.65684e-19)
(1.79545 -1.97627 0)
(1.77194 -1.95033 -9.09772e-19)
(1.74916 -1.92518 0)
(1.72702 -1.90074 8.61117e-19)
(1.70549 -1.87697 8.3909e-19)
(1.68451 -1.8538 0)
(1.66406 -1.83121 -3.19248e-18)
(1.64408 -1.80914 7.85467e-19)
(1.62454 -1.78756 2.29091e-18)
(1.60543 -1.76644 -7.46156e-19)
(1.5867 -1.74575 2.91881e-18)
(1.56834 -1.72547 -6.43765e-18)
(1.55033 -1.70556 2.10537e-18)
(1.53263 -1.68602 -6.87134e-19)
(1.51525 -1.6668 -1.34789e-18)
(1.49815 -1.64791 0)
(1.48132 -1.62932 0)
(1.46475 -1.61101 3.18372e-18)
(1.44842 -1.59298 -2.50655e-18)
(1.43233 -1.5752 -3.39531e-23)
(1.41646 -1.55767 -1.20865e-18)
(1.40079 -1.54037 -2.37597e-18)
(1.38533 -1.52329 -1.16504e-18)
(1.37006 -1.50643 3.44807e-18)
(1.35496 -1.48977 -2.25577e-18)
(1.34005 -1.4733 3.33528e-18)
(1.3253 -1.45702 -3.27485e-18)
(1.3107 -1.44091 2.15269e-18)
(1.29626 -1.42498 -2.11185e-18)
(1.28197 -1.40921 2.08378e-18)
(1.26782 -1.3936 -1.02361e-18)
(1.2538 -1.37813 0)
(1.2399 -1.36282 -9.90895e-19)
(1.22614 -1.34764 0)
(1.21249 -1.3326 0)
(1.19896 -1.31768 9.43592e-19)
(1.18553 -1.30289 3.25052e-21)
(1.17221 -1.28822 1.82932e-18)
(1.159 -1.27367 -1.796e-18)
(1.14588 -1.25923 1.76625e-18)
(1.13286 -1.2449 0)
(1.11993 -1.23067 0)
(1.10708 -1.21654 3.35394e-18)
(1.09432 -1.20251 -1.64997e-18)
(1.08165 -1.18858 3.24641e-18)
(1.06905 -1.17473 -3.49605e-21)
(1.05652 -1.16097 -1.5686e-18)
(1.04407 -1.1473 0)
(1.0317 -1.13372 -3.01548e-18)
(1.01938 -1.12021 5.9279e-18)
(1.00714 -1.10678 -7.1758e-21)
(0.994958 -1.09342 -7.21837e-21)
(0.982838 -1.08014 -3.60947e-21)
(0.970777 -1.06693 1.36991e-18)
(0.958772 -1.05379 -2.6974e-18)
(0.946823 -1.04071 1.32035e-18)
(0.934926 -1.0277 2.58433e-18)
(0.92308 -1.01475 -1.27156e-18)
(0.911282 -1.00186 1.2381e-18)
(0.899532 -0.989032 -3.65181e-18)
(0.887827 -0.97626 3.56739e-18)
(0.876165 -0.963542 -7.56754e-21)
(0.864545 -0.950879 -2.27941e-18)
(0.852965 -0.938268 1.11847e-18)
(0.841422 -0.925708 -4.35933e-18)
(0.829917 -0.913197 0)
(0.818446 -0.900733 0)
(0.807008 -0.888316 -4.06662e-18)
(0.795602 -0.875943 -2.97435e-18)
(0.784228 -0.863616 -1.93039e-18)
(3.49461 -3.85805 3.07349e-18)
(3.00906 -3.32124 2.43715e-17)
(2.79775 -3.09005 -4.44156e-17)
(2.65559 -2.93328 2.03083e-17)
(2.54722 -2.81383 -1.16154e-18)
(2.45949 -2.71736 0)
(2.38568 -2.63617 0)
(2.32178 -2.56588 0)
(2.26527 -2.50372 -1.28043e-17)
(2.21449 -2.44786 1.28189e-17)
(2.16827 -2.39699 7.54306e-19)
(2.12576 -2.35018 4.58492e-23)
(2.08634 -2.30676 1.08278e-17)
(2.04951 -2.26617 -2.12747e-17)
(2.01491 -2.22801 9.85567e-18)
(1.98222 -2.19194 8.83763e-18)
(1.9512 -2.1577 -8.49239e-18)
(1.92165 -2.12507 0)
(1.89341 -2.09387 0)
(1.86633 -2.06393 0)
(1.8403 -2.03514 0)
(1.8152 -2.00738 1.89845e-18)
(1.79097 -1.98056 0)
(1.76751 -1.95459 8.94369e-19)
(1.74476 -1.9294 0)
(1.72266 -1.90492 -8.46688e-19)
(1.70117 -1.88111 0)
(1.68024 -1.85791 3.2166e-18)
(1.65982 -1.83528 -3.14515e-18)
(1.63988 -1.81317 7.67592e-19)
(1.62038 -1.79156 -7.50499e-19)
(1.6013 -1.7704 3.66889e-18)
(1.58261 -1.74967 -5.17098e-21)
(1.56429 -1.72935 -2.11517e-18)
(1.54631 -1.70941 2.06792e-18)
(1.52865 -1.68982 -2.03295e-18)
(1.5113 -1.67057 6.6394e-19)
(1.49424 -1.65164 0)
(1.47744 -1.63301 0)
(1.46091 -1.61466 -3.76717e-18)
(1.44462 -1.59659 5.48907e-21)
(1.42856 -1.57878 5.50746e-21)
(1.41272 -1.56121 3.58064e-18)
(1.39709 -1.54387 -2.34236e-18)
(1.38166 -1.52675 1.15598e-18)
(1.36642 -1.50985 0)
(1.35136 -1.49315 0)
(1.33648 -1.47665 0)
(1.32176 -1.46033 2.95242e-21)
(1.3072 -1.44419 1.06605e-18)
(1.2928 -1.42822 0)
(1.27854 -1.41241 1.02972e-18)
(1.26441 -1.39676 -2.02399e-18)
(1.25043 -1.38127 2.99583e-18)
(1.23657 -1.36591 1.9607e-18)
(1.22283 -1.3507 -1.93605e-18)
(1.20922 -1.33562 -1.89929e-18)
(1.19572 -1.32067 9.3939e-19)
(1.18232 -1.30585 -9.21357e-19)
(1.16904 -1.29115 9.06659e-19)
(1.15586 -1.27656 1.7843e-18)
(1.14277 -1.26208 -1.75554e-18)
(1.12978 -1.24772 0)
(1.11688 -1.23345 0)
(1.10407 -1.21929 -3.23227e-23)
(1.09134 -1.20523 -3.28255e-18)
(1.07869 -1.19126 1.61881e-18)
(1.06612 -1.17738 -1.5845e-18)
(1.05363 -1.16359 4.68219e-18)
(1.04121 -1.14989 -3.52104e-21)
(1.02886 -1.13627 1.50677e-18)
(1.01658 -1.12273 -1.48005e-18)
(1.00437 -1.10927 0)
(0.99222 -1.09588 0)
(0.98013 -1.08256 0)
(0.968099 -1.06932 1.3709e-18)
(0.956125 -1.05615 -1.35219e-18)
(0.944205 -1.04304 -1.3227e-18)
(0.932338 -1.02999 0)
(0.920522 -1.01701 0)
(0.908754 -1.00409 -3.73412e-18)
(0.897034 -0.991233 6.10727e-18)
(0.885358 -0.978429 -5.21804e-23)
(0.873726 -0.96568 0)
(0.862135 -0.952986 -1.14206e-18)
(0.850584 -0.940344 7.66427e-21)
(0.839071 -0.927752 1.10076e-18)
(0.827595 -0.91521 -2.14527e-18)
(0.816153 -0.902715 -2.09722e-18)
(0.804745 -0.890267 3.07054e-18)
(0.793367 -0.877863 -7.7835e-21)
(0.782022 -0.865505 9.73885e-19)
(3.48547 -3.86594 2.14829e-17)
(3.00001 -3.32893 2.27419e-17)
(2.78954 -3.09657 -2.34275e-17)
(2.6479 -2.93926 1.25705e-18)
(2.5398 -2.8196 0)
(2.45239 -2.72288 0)
(2.37887 -2.6415 0)
(2.31523 -2.57106 1.44295e-17)
(2.25895 -2.50878 -2.69245e-17)
(2.20838 -2.45281 2.52349e-17)
(2.16234 -2.40185 -1.18843e-17)
(2.12 -2.35499 1.05225e-17)
(2.08073 -2.3115 -1.06596e-17)
(2.04404 -2.27086 6.33891e-19)
(2.00955 -2.23266 1.0284e-17)
(1.97697 -2.19655 -8.69641e-18)
(1.94605 -2.16228 8.89237e-18)
(1.91659 -2.12961 -5.44689e-19)
(1.88842 -2.09837 -8.25277e-18)
(1.86142 -2.0684 -4.97746e-19)
(1.83545 -2.03958 0)
(1.81042 -2.01178 -1.86541e-18)
(1.78625 -1.98493 0)
(1.76284 -1.95892 0)
(1.74015 -1.93369 -7.68755e-18)
(1.71811 -1.90919 6.66211e-18)
(1.69666 -1.88534 0)
(1.67577 -1.8621 0)
(1.6554 -1.83943 0)
(1.6355 -1.81728 -1.50963e-18)
(1.61605 -1.79563 7.38132e-19)
(1.59702 -1.77444 0)
(1.57837 -1.75367 0)
(1.56008 -1.73331 0)
(1.54214 -1.71333 -4.07065e-18)
(1.52453 -1.6937 6.00148e-18)
(1.50721 -1.67442 0)
(1.49019 -1.65545 0)
(1.47343 -1.63678 0)
(1.45693 -1.6184 5.567e-18)
(1.44068 -1.60029 -1.08201e-20)
(1.42466 -1.58243 -1.19622e-17)
(1.40886 -1.56482 8.23338e-18)
(1.39326 -1.54745 -3.47593e-18)
(1.37787 -1.5303 0)
(1.36267 -1.51336 1.11964e-18)
(1.34764 -1.49662 4.40152e-18)
(1.33279 -1.48008 -4.34341e-18)
(1.31811 -1.46372 -1.06744e-18)
(1.30359 -1.44755 5.24819e-18)
(1.28922 -1.43154 -2.07797e-18)
(1.27499 -1.4157 -2.04317e-18)
(1.2609 -1.40001 -2.00888e-18)
(1.24695 -1.38448 -3.0561e-21)
(1.23312 -1.36909 -2.92025e-18)
(1.21942 -1.35384 0)
(1.20584 -1.33872 9.39642e-19)
(1.19237 -1.32374 -1.85966e-18)
(1.17902 -1.30888 -2.73855e-18)
(1.16576 -1.29414 9.02949e-19)
(1.15261 -1.27952 1.77141e-18)
(1.13956 -1.26501 3.27011e-21)
(1.1266 -1.25061 6.61535e-21)
(1.11373 -1.23631 1.69215e-18)
(1.10095 -1.22212 -1.66175e-18)
(1.08826 -1.20802 1.63483e-18)
(1.07564 -1.19402 0)
(1.06311 -1.1801 -1.57816e-18)
(1.05065 -1.16628 -1.54831e-18)
(1.03826 -1.15254 3.48122e-21)
(1.02594 -1.13889 -3.00239e-18)
(1.0137 -1.12532 2.95756e-18)
(1.00151 -1.11182 0)
(0.989394 -1.0984 -3.59727e-21)
(0.977336 -1.08505 -2.80355e-18)
(0.965336 -1.07178 1.37452e-18)
(0.953393 -1.05857 1.34923e-18)
(0.941505 -1.04543 1.32401e-18)
(0.929669 -1.03235 0)
(0.917883 -1.01934 0)
(0.906147 -1.00639 2.49838e-18)
(0.894457 -0.993492 -4.89795e-18)
(0.882812 -0.980656 -2.39989e-18)
(0.87121 -0.967876 2.351e-18)
(0.85965 -0.955149 3.44986e-18)
(0.848129 -0.942475 1.12325e-18)
(0.836647 -0.929851 2.20634e-18)
(0.8252 -0.917277 1.07552e-18)
(0.813789 -0.90475 2.10369e-18)
(0.80241 -0.89227 -1.03619e-18)
(0.791063 -0.879835 1.0051e-18)
(0.779748 -0.867445 -7.91431e-21)
(3.47579 -3.87421 2.60344e-17)
(2.99092 -3.33686 -2.4153e-17)
(2.78147 -3.10334 -2.05028e-17)
(2.64019 -2.9457 3.73458e-17)
(2.5324 -2.82575 -1.70484e-17)
(2.4453 -2.72877 1.76934e-17)
(2.37202 -2.64719 -3.06992e-17)
(2.30858 -2.57659 1.09144e-20)
(2.25249 -2.51417 1.32638e-17)
(2.20209 -2.45808 0)
(2.15621 -2.40702 0)
(2.11401 -2.36006 -6.90257e-19)
(2.07487 -2.3165 -6.54706e-19)
(2.0383 -2.27579 6.23078e-19)
(2.00393 -2.23752 1.17008e-23)
(1.97145 -2.20136 -5.69327e-19)
(1.94063 -2.16703 -1.09263e-18)
(1.91126 -2.13431 -4.10657e-24)
(1.88319 -2.10303 0)
(1.85626 -2.07301 4.88911e-19)
(1.83037 -2.04414 7.5611e-18)
(1.80541 -2.01631 -6.41783e-18)
(1.7813 -1.98941 0)
(1.75797 -1.96336 7.76527e-18)
(1.73533 -1.9381 -5.88251e-18)
(1.71335 -1.91355 -6.53573e-18)
(1.69196 -1.88966 6.37987e-18)
(1.67113 -1.86638 7.77454e-19)
(1.6508 -1.84367 0)
(1.63096 -1.82149 7.41952e-19)
(1.61155 -1.7998 0)
(1.59256 -1.77857 0)
(1.57396 -1.75776 -5.55938e-18)
(1.55572 -1.73736 4.77625e-18)
(1.53783 -1.71734 -1.33662e-18)
(1.52025 -1.69768 -5.23974e-18)
(1.50298 -1.67835 4.5093e-18)
(1.486 -1.65934 -6.3179e-19)
(1.46928 -1.64064 -4.95954e-18)
(1.45282 -1.62222 4.88387e-18)
(1.43661 -1.60407 -4.79016e-18)
(1.42063 -1.58617 5.89947e-18)
(1.40486 -1.56853 -4.63222e-18)
(1.38931 -1.55111 1.09534e-20)
(1.37395 -1.53392 7.85661e-18)
(1.35878 -1.51695 -5.52881e-18)
(1.3438 -1.50017 0)
(1.32899 -1.48359 4.27656e-18)
(1.31434 -1.4672 -4.2223e-18)
(1.29985 -1.45098 0)
(1.28552 -1.43494 -1.02236e-18)
(1.27133 -1.41906 2.01394e-18)
(1.25728 -1.40334 -3.96141e-18)
(1.24336 -1.38777 8.79292e-18)
(1.22957 -1.37234 -2.8932e-18)
(1.2159 -1.35706 -9.47977e-19)
(1.20236 -1.34191 4.66276e-18)
(1.18892 -1.32689 1.82704e-18)
(1.1756 -1.31199 8.93307e-19)
(1.16238 -1.29722 -1.27777e-20)
(1.14926 -1.28256 -1.05449e-17)
(1.13625 -1.26801 -1.71767e-18)
(1.12332 -1.25358 1.31379e-20)
(1.11049 -1.23924 3.3621e-18)
(1.09774 -1.22501 -4.94805e-18)
(1.08508 -1.21088 -3.23774e-18)
(1.0725 -1.19684 1.02155e-20)
(1.06 -1.1829 1.57759e-18)
(1.04757 -1.16904 -1.54519e-18)
(1.03521 -1.15527 3.05005e-18)
(1.02293 -1.14158 0)
(1.01072 -1.12797 -2.9423e-18)
(0.998566 -1.11444 1.45147e-18)
(0.986479 -1.10099 3.61699e-21)
(0.974453 -1.08761 2.80001e-18)
(0.962486 -1.0743 -1.3735e-18)
(0.950575 -1.06105 0)
(0.938718 -1.04788 -2.64875e-18)
(0.926914 -1.03477 0)
(0.915161 -1.02172 -2.55131e-18)
(0.903456 -1.00874 0)
(0.891798 -0.995811 1.23119e-18)
(0.880184 -0.982942 1.2072e-18)
(0.868614 -0.970129 -3.53476e-18)
(0.857085 -0.957369 -1.15196e-18)
(0.845596 -0.944662 -3.39262e-18)
(0.834145 -0.932005 -1.10477e-18)
(0.82273 -0.919398 2.17067e-18)
(0.811349 -0.906839 -1.0582e-18)
(0.800002 -0.894326 2.08601e-18)
(0.788686 -0.881858 -1.01223e-18)
(0.777402 -0.869436 -2.98443e-18)
(3.46552 -3.88276 0)
(2.98148 -3.34484 0)
(2.77301 -3.11034 2.03406e-17)
(2.63205 -2.95239 -1.16916e-20)
(2.52463 -2.83211 -1.90971e-17)
(2.43784 -2.73489 1.54099e-17)
(2.36481 -2.65312 -1.41953e-17)
(2.3016 -2.58235 0)
(2.24571 -2.51979 -8.15859e-19)
(2.19549 -2.46358 -1.29789e-17)
(2.14978 -2.41241 1.14996e-17)
(2.10773 -2.36535 1.35721e-18)
(2.06873 -2.3217 6.43446e-19)
(2.03229 -2.28091 -1.1015e-17)
(1.99803 -2.24257 8.76928e-18)
(1.96567 -2.20634 5.59198e-19)
(1.93495 -2.17195 5.36533e-19)
(1.90568 -2.13917 9.28264e-18)
(1.8777 -2.10783 -9.49755e-21)
(1.85086 -2.07776 -1.53622e-17)
(1.82505 -2.04884 7.43373e-18)
(1.80018 -2.02096 0)
(1.77614 -1.99401 -6.97699e-18)
(1.75287 -1.96792 9.45364e-21)
(1.73031 -1.94261 6.60152e-18)
(1.70838 -1.91802 8.02956e-19)
(1.68706 -1.89409 6.25688e-18)
(1.66628 -1.87077 -1.37468e-17)
(1.64602 -1.84802 1.19335e-17)
(1.62623 -1.8258 -9.66376e-21)
(1.60688 -1.80407 -6.42275e-18)
(1.58794 -1.78279 0)
(1.56939 -1.76195 0)
(1.5512 -1.74151 6.70161e-19)
(1.53335 -1.72145 6.57212e-19)
(1.51582 -1.70174 -1.28969e-18)
(1.49859 -1.68238 1.07454e-23)
(1.48165 -1.66333 6.21698e-19)
(1.46498 -1.64458 0)
(1.44857 -1.62612 -5.39797e-18)
(1.43239 -1.60793 3.5469e-18)
(1.41645 -1.59 -4.63909e-18)
(1.40073 -1.57232 5.7168e-18)
(1.38522 -1.55487 4.49093e-18)
(1.3699 -1.53764 -4.43111e-18)
(1.35477 -1.52062 0)
(1.33983 -1.50381 0)
(1.32505 -1.48719 0)
(1.31045 -1.47076 0)
(1.296 -1.45451 -1.02493e-18)
(1.2817 -1.43843 -3.02348e-18)
(1.26755 -1.42251 2.9905e-18)
(1.25353 -1.40675 0)
(1.23965 -1.39114 -9.65967e-19)
(1.2259 -1.37568 -3.80148e-18)
(1.21227 -1.36035 4.69608e-18)
(1.19876 -1.34517 9.24312e-19)
(1.18536 -1.33011 -1.54526e-23)
(1.17207 -1.31518 8.97474e-19)
(1.15889 -1.30037 0)
(1.14581 -1.28567 1.74251e-18)
(1.13283 -1.27109 0)
(1.11994 -1.25662 0)
(1.10714 -1.24225 -4.99019e-18)
(1.09442 -1.22798 8.20183e-18)
(1.0818 -1.21382 -1.62198e-18)
(1.06925 -1.19974 1.59041e-18)
(1.05678 -1.18576 0)
(1.04439 -1.17187 1.54098e-18)
(1.03207 -1.15806 1.50951e-18)
(1.01982 -1.14434 -5.96825e-18)
(1.00764 -1.13069 2.94257e-18)
(0.995524 -1.11713 0)
(0.983471 -1.10364 0)
(0.971479 -1.09023 1.39537e-18)
(0.959545 -1.07688 0)
(0.947667 -1.06361 1.34753e-18)
(0.935844 -1.0504 -1.31633e-18)
(0.924073 -1.03725 2.60749e-18)
(0.912352 -1.02417 -1.27259e-18)
(0.90068 -1.01115 3.76222e-18)
(0.889055 -0.998191 0)
(0.877474 -0.985288 -1.20214e-18)
(0.865937 -0.972441 1.18651e-18)
(0.85444 -0.959647 0)
(0.842983 -0.946907 -1.14025e-18)
(0.831564 -0.934217 3.33629e-18)
(0.820181 -0.921576 0)
(0.808833 -0.908983 0)
(0.797518 -0.896437 -3.13156e-18)
(0.786234 -0.883935 5.11742e-18)
(0.774982 -0.87148 2.00074e-18)
(3.4549 -3.89178 0)
(2.97184 -3.35306 -1.49388e-18)
(2.76428 -3.1177 1.34527e-18)
(2.62366 -2.9594 1.21972e-18)
(2.51661 -2.83878 1.66385e-17)
(2.43011 -2.74131 -1.62312e-17)
(2.35734 -2.65934 4.21765e-23)
(2.29435 -2.58839 -1.37988e-17)
(2.23866 -2.52568 1.36552e-17)
(2.18862 -2.46933 -1.20152e-17)
(2.14307 -2.41804 2.26023e-17)
(2.10118 -2.37088 -6.76889e-19)
(2.06232 -2.32712 -9.81826e-21)
(2.02601 -2.28624 -9.62655e-18)
(1.99188 -2.24782 0)
(1.95963 -2.21151 0)
(1.92902 -2.17704 8.42346e-18)
(1.89986 -2.1442 -1.67152e-17)
(1.87197 -2.11279 7.81409e-18)
(1.84523 -2.08267 -7.53506e-18)
(1.81951 -2.05369 7.2968e-18)
(1.79471 -2.02575 0)
(1.77075 -1.99876 -6.84866e-18)
(1.74756 -1.97261 4.99803e-18)
(1.72507 -1.94726 6.47143e-18)
(1.70322 -1.92262 -7.09957e-18)
(1.68196 -1.89864 0)
(1.66124 -1.87528 7.49938e-19)
(1.64104 -1.85248 0)
(1.62131 -1.83021 0)
(1.60201 -1.80844 7.00505e-19)
(1.58313 -1.78712 -5.48162e-18)
(1.56463 -1.76624 5.37978e-18)
(1.5465 -1.74575 -4.60551e-18)
(1.5287 -1.72565 5.17305e-18)
(1.51122 -1.70591 1.26798e-18)
(1.49404 -1.6865 -4.35243e-18)
(1.47715 -1.66741 9.17216e-18)
(1.46053 -1.64862 -4.81237e-18)
(1.44416 -1.63012 5.90764e-19)
(1.42803 -1.6119 2.32393e-18)
(1.41213 -1.59392 -4.56717e-18)
(1.39645 -1.5762 3.37987e-18)
(1.38098 -1.55871 0)
(1.36571 -1.54144 2.1803e-18)
(1.35062 -1.52439 0)
(1.33572 -1.50753 3.16675e-18)
(1.32099 -1.49088 -1.05276e-18)
(1.30642 -1.47441 -4.11104e-18)
(1.29201 -1.45812 1.0114e-18)
(1.27775 -1.442 0)
(1.26364 -1.42604 0)
(1.24966 -1.41024 0)
(1.23582 -1.39459 9.54525e-19)
(1.22211 -1.37909 -3.75775e-18)
(1.20852 -1.36373 7.42042e-18)
(1.19504 -1.34851 -8.22934e-18)
(1.18168 -1.33341 -8.89089e-19)
(1.16843 -1.31845 1.78324e-18)
(1.15529 -1.3036 -3.497e-18)
(1.14224 -1.28887 1.26702e-20)
(1.12929 -1.27425 3.40959e-18)
(1.11644 -1.25974 1.6769e-18)
(1.10368 -1.24533 1.65244e-18)
(1.091 -1.23103 0)
(1.07841 -1.21683 4.80519e-18)
(1.0659 -1.20272 -1.3442e-20)
(1.05347 -1.1887 -3.11889e-18)
(1.04111 -1.17477 -1.5323e-18)
(1.02883 -1.16093 0)
(1.01661 -1.14717 0)
(1.00447 -1.13349 -1.46155e-18)
(0.992386 -1.11989 0)
(0.980367 -1.10636 -1.41481e-18)
(0.968409 -1.09291 -4.16745e-18)
(0.95651 -1.07953 1.38289e-18)
(0.944667 -1.06622 -1.33056e-18)
(0.932878 -1.05298 2.65164e-18)
(0.921141 -1.0398 -1.2991e-18)
(0.909455 -1.02668 2.55232e-18)
(0.897817 -1.01363 -2.50652e-18)
(0.886225 -1.00063 0)
(0.874678 -0.987696 0)
(0.863174 -0.974814 2.36986e-18)
(0.851711 -0.961986 0)
(0.840288 -0.94921 2.27956e-18)
(0.828902 -0.936486 -4.46925e-18)
(0.817553 -0.92381 0)
(0.806238 -0.911183 2.14534e-18)
(0.794956 -0.898602 0)
(0.783705 -0.886067 -2.05697e-18)
(0.772486 -0.873577 0)
(3.44392 -3.90122 2.58883e-17)
(2.96202 -3.36152 2.67384e-17)
(2.75533 -3.12538 -4.26845e-17)
(2.61509 -2.9667 1.14564e-20)
(2.50839 -2.84574 1.97341e-17)
(2.42218 -2.74801 -1.70005e-17)
(2.34965 -2.66583 -9.08e-19)
(2.28689 -2.5947 1.35963e-17)
(2.23139 -2.53182 1.34247e-17)
(2.18153 -2.47533 -2.29009e-17)
(2.13614 -2.42391 7.04201e-19)
(2.0944 -2.37663 9.83385e-18)
(2.05568 -2.33276 0)
(2.0195 -2.29179 5.90496e-19)
(1.98549 -2.25327 5.63347e-19)
(1.95336 -2.21687 0)
(1.92286 -2.18233 8.26737e-18)
(1.8938 -2.14941 -9.23038e-21)
(1.86601 -2.11793 -7.18913e-18)
(1.83936 -2.08774 4.62413e-19)
(1.81373 -2.0587 0)
(1.78902 -2.0307 -6.06068e-18)
(1.76515 -2.00364 5.88894e-18)
(1.74204 -1.97745 8.87259e-26)
(1.71962 -1.95203 -6.35085e-18)
(1.69784 -1.92734 6.96777e-18)
(1.67665 -1.90332 0)
(1.65601 -1.8799 0)
(1.63587 -1.85706 -5.02891e-18)
(1.6162 -1.83474 9.33071e-21)
(1.59697 -1.81292 5.50757e-18)
(1.57815 -1.79156 0)
(1.55971 -1.77063 -5.27477e-18)
(1.54162 -1.75011 4.53406e-18)
(1.52388 -1.72996 -4.43852e-18)
(1.50646 -1.71017 4.36626e-18)
(1.48933 -1.69072 -6.11874e-19)
(1.47249 -1.67159 -4.20326e-18)
(1.45591 -1.65276 4.73228e-18)
(1.43959 -1.63422 0)
(1.42351 -1.61595 4.56745e-18)
(1.40766 -1.59794 -4.50454e-18)
(1.39203 -1.58018 0)
(1.3766 -1.56264 0)
(1.36137 -1.54534 -5.36261e-18)
(1.34633 -1.52824 3.17792e-18)
(1.33147 -1.51135 5.20424e-18)
(1.31678 -1.49465 -7.18717e-18)
(1.30226 -1.47814 4.05326e-18)
(1.28789 -1.46181 0)
(1.27367 -1.44565 0)
(1.2596 -1.42966 4.84191e-18)
(1.24567 -1.41382 -3.82959e-18)
(1.23186 -1.39814 -9.42642e-19)
(1.21819 -1.3826 0)
(1.20464 -1.3672 -4.57743e-18)
(1.1912 -1.35194 1.20204e-20)
(1.17788 -1.3368 2.68047e-18)
(1.16467 -1.32179 5.26846e-18)
(1.15156 -1.30691 -4.34058e-18)
(1.13856 -1.29214 1.70955e-18)
(1.12565 -1.27748 0)
(1.11283 -1.26294 -2.47396e-23)
(1.10011 -1.24849 0)
(1.08747 -1.23415 1.61485e-18)
(1.07492 -1.21991 1.58497e-18)
(1.06244 -1.20577 -3.14361e-18)
(1.05005 -1.19171 1.54545e-18)
(1.03773 -1.17774 1.52254e-18)
(1.02548 -1.16387 1.49973e-18)
(1.0133 -1.15007 -2.94706e-18)
(1.00119 -1.13635 4.37003e-18)
(0.989147 -1.12272 0)
(0.977164 -1.10916 1.40922e-18)
(0.965242 -1.09567 -1.38671e-18)
(0.953378 -1.08225 -2.72856e-18)
(0.941571 -1.06891 -1.34188e-18)
(0.929817 -1.05563 0)
(0.918116 -1.04241 1.29724e-18)
(0.906465 -1.02926 0)
(0.894862 -1.01617 2.50545e-18)
(0.883305 -1.00314 0)
(0.871793 -0.990166 0)
(0.860324 -0.977248 -2.36497e-18)
(0.848896 -0.964384 7.76888e-21)
(0.837507 -0.951573 2.28462e-18)
(0.826156 -0.938814 3.7882e-23)
(0.814841 -0.926103 -2.19712e-18)
(0.80356 -0.913441 -2.15363e-18)
(0.792313 -0.900825 -4.21248e-18)
(0.781096 -0.888254 2.0751e-18)
(0.769912 -0.875729 0)
(3.43255 -3.911 -2.58268e-17)
(2.95195 -3.3702 2.21682e-17)
(2.74611 -3.13332 0)
(2.60627 -2.97424 1.90936e-17)
(2.49994 -2.85293 -1.94869e-17)
(2.41402 -2.75495 -2.32214e-23)
(2.34175 -2.67254 1.35722e-17)
(2.2792 -2.60122 -1.04452e-20)
(2.2239 -2.53818 -1.39915e-17)
(2.17421 -2.48154 0)
(2.12899 -2.42999 -6.82116e-19)
(2.08739 -2.38258 -1.02928e-17)
(2.04881 -2.33861 9.75992e-18)
(2.01276 -2.29752 0)
(1.97888 -2.25891 -5.5289e-19)
(1.94686 -2.22242 -5.28897e-19)
(1.91648 -2.18779 0)
(1.88752 -2.15479 -7.31072e-18)
(1.85984 -2.12324 1.45661e-17)
(1.83328 -2.09297 -1.49691e-17)
(1.80774 -2.06386 1.40383e-17)
(1.78312 -2.0358 -8.5892e-19)
(1.75933 -2.00868 -5.77683e-18)
(1.7363 -1.98242 8.01164e-19)
(1.71396 -1.95695 0)
(1.69226 -1.93221 -7.59071e-19)
(1.67114 -1.90812 0)
(1.65057 -1.88466 6.4966e-18)
(1.6305 -1.86176 -6.35568e-18)
(1.6109 -1.8394 5.51537e-18)
(1.59173 -1.81753 -1.08032e-17)
(1.57297 -1.79612 5.95563e-18)
(1.55459 -1.77514 0)
(1.53657 -1.75457 5.07858e-18)
(1.51889 -1.73438 -1.12222e-17)
(1.50152 -1.71455 4.90132e-18)
(1.48445 -1.69505 6.53839e-24)
(1.46766 -1.67588 0)
(1.45114 -1.65701 -5.22255e-18)
(1.43487 -1.63842 9.90278e-21)
(1.41884 -1.62011 3.37736e-18)
(1.40304 -1.60206 0)
(1.38745 -1.58425 -4.35208e-18)
(1.37207 -1.56668 5.36895e-18)
(1.35689 -1.54933 0)
(1.3419 -1.53219 1.41759e-23)
(1.32708 -1.51526 -4.0993e-18)
(1.31244 -1.49852 7.08042e-18)
(1.29796 -1.48197 -4.99142e-18)
(1.28363 -1.4656 0)
(1.26946 -1.4494 9.69624e-19)
(1.25543 -1.43337 -9.56302e-19)
(1.24154 -1.41749 0)
(1.22778 -1.40176 -3.71584e-18)
(1.21414 -1.38619 3.677e-18)
(1.20063 -1.37075 9.05409e-19)
(1.18724 -1.35545 0)
(1.17396 -1.34027 1.76229e-18)
(1.16079 -1.32523 -8.69256e-19)
(1.14772 -1.3103 1.20424e-23)
(1.13476 -1.2955 1.68549e-18)
(1.12189 -1.2808 -3.34362e-18)
(1.10911 -1.26622 -1.64585e-18)
(1.09642 -1.25173 -1.62316e-18)
(1.08382 -1.23736 -1.60067e-18)
(1.07131 -1.22308 0)
(1.05887 -1.20889 1.55602e-18)
(1.04652 -1.1948 -1.5339e-18)
(1.03423 -1.1808 -3.02368e-18)
(1.02202 -1.16688 -1.48988e-18)
(1.00988 -1.15305 -2.92904e-18)
(0.997812 -1.13929 4.34533e-18)
(0.985804 -1.12562 -2.84165e-18)
(0.973859 -1.11202 1.40969e-18)
(0.961974 -1.0985 4.13554e-18)
(0.950147 -1.08504 -1.36643e-18)
(0.938376 -1.07166 1.3376e-18)
(0.92666 -1.05834 -2.62459e-18)
(0.914995 -1.04509 2.59618e-18)
(0.90338 -1.0319 0)
(0.891814 -1.01878 -5.00513e-18)
(0.880293 -1.00571 -2.45952e-18)
(0.868817 -0.992699 2.41654e-18)
(0.857384 -0.979745 -4.74729e-18)
(0.845992 -0.966845 2.33082e-18)
(0.834639 -0.953998 -4.56825e-18)
(0.823323 -0.941202 4.49857e-18)
(0.812044 -0.928455 3.53151e-23)
(0.800799 -0.915757 2.1523e-18)
(0.789586 -0.903105 -7.99765e-21)
(0.778405 -0.890498 -2.07569e-18)
(0.767257 -0.877937 2.02552e-18)
(3.42078 -3.92111 -2.42592e-17)
(2.94161 -3.37909 -2.34986e-17)
(2.73658 -3.1415 1.07481e-20)
(2.59719 -2.982 3.77737e-17)
(2.49123 -2.86035 -1.60322e-17)
(2.4056 -2.7621 1.65282e-17)
(2.33359 -2.67947 -1.33767e-17)
(2.27126 -2.60796 0)
(2.21617 -2.54475 7.64036e-19)
(2.16666 -2.48796 1.07e-17)
(2.1216 -2.43627 -1.00553e-17)
(2.08015 -2.38873 1.26392e-18)
(2.04171 -2.34464 5.98493e-19)
(2.0058 -2.30345 -8.52829e-18)
(1.97204 -2.26473 9.22666e-18)
(1.94014 -2.22815 8.81584e-18)
(1.90987 -2.19343 -7.96553e-18)
(1.88102 -2.16035 7.64854e-18)
(1.85344 -2.12871 -7.37743e-18)
(1.82698 -2.09837 -4.44843e-19)
(1.80154 -2.06919 -6.8789e-18)
(1.777 -2.04106 6.6724e-18)
(1.7533 -2.01387 8.08672e-19)
(1.73036 -1.98755 -7.85687e-19)
(1.7081 -1.96202 0)
(1.68647 -1.93721 -5.95141e-18)
(1.66544 -1.91307 5.8119e-18)
(1.64494 -1.88955 -7.0858e-19)
(1.62494 -1.8666 0)
(1.6054 -1.84418 6.08829e-18)
(1.5863 -1.82226 -5.9674e-18)
(1.56761 -1.8008 -6.48451e-18)
(1.54929 -1.77977 5.09257e-18)
(1.53133 -1.75915 -4.98543e-18)
(1.51371 -1.73891 5.51373e-18)
(1.4964 -1.71904 0)
(1.47939 -1.6995 5.9047e-19)
(1.46265 -1.68028 5.80358e-19)
(1.44619 -1.66136 -3.41926e-18)
(1.42997 -1.64273 8.98234e-18)
(1.414 -1.62437 -1.11477e-18)
(1.39825 -1.60628 -7.61437e-18)
(1.38271 -1.58843 4.28981e-18)
(1.36739 -1.57081 2.10531e-18)
(1.35225 -1.55342 -4.16396e-18)
(1.33731 -1.53624 1.02471e-18)
(1.32254 -1.51927 4.0353e-18)
(1.30794 -1.50249 -1.99722e-18)
(1.29351 -1.48589 4.90554e-18)
(1.27923 -1.46948 -2.91159e-18)
(1.2651 -1.45324 -1.23157e-23)
(1.25112 -1.43717 0)
(1.23727 -1.42125 -3.715e-18)
(1.22355 -1.40548 4.59469e-18)
(1.20996 -1.38986 0)
(1.1965 -1.37439 0)
(1.18315 -1.35904 3.52215e-18)
(1.16991 -1.34383 -1.75272e-18)
(1.15678 -1.32875 -4.30095e-18)
(1.14375 -1.31378 -2.537e-18)
(1.13083 -1.29894 3.3522e-18)
(1.118 -1.2842 -1.65088e-18)
(1.10526 -1.26958 1.62266e-18)
(1.09262 -1.25506 -1.61349e-18)
(1.08006 -1.24064 -3.16465e-18)
(1.06758 -1.22632 3.13456e-18)
(1.05519 -1.2121 -3.08532e-18)
(1.04287 -1.19797 0)
(1.03063 -1.18392 5.99397e-18)
(1.01846 -1.16997 -2.96485e-18)
(1.00636 -1.1561 -2.90909e-18)
(0.994324 -1.14231 1.44385e-18)
(0.982354 -1.1286 0)
(0.970448 -1.11496 1.39504e-18)
(0.958601 -1.1014 0)
(0.946813 -1.08791 1.3532e-18)
(0.93508 -1.07448 1.32506e-18)
(0.923401 -1.06113 -2.63023e-18)
(0.911774 -1.04784 0)
(0.900197 -1.03462 1.26974e-18)
(0.888668 -1.02145 4.99561e-18)
(0.877185 -1.00835 2.45615e-18)
(0.865747 -0.995298 -2.4145e-18)
(0.854351 -0.982307 3.3614e-23)
(0.842996 -0.969369 0)
(0.831679 -0.956485 -2.28969e-18)
(0.820401 -0.943652 -7.87743e-21)
(0.809158 -0.930868 -7.91458e-21)
(0.797949 -0.918132 0)
(0.786774 -0.905443 -2.12403e-18)
(0.77563 -0.8928 4.15757e-18)
(0.764518 -0.880202 -8.15676e-21)
(3.40861 -3.93154 -2.42035e-17)
(2.93097 -3.3882 -2.33597e-17)
(2.72675 -3.14993 4.15517e-17)
(2.58784 -2.98999 -1.86776e-17)
(2.48225 -2.868 0)
(2.39693 -2.76947 0)
(2.32518 -2.68661 0)
(2.26308 -2.6149 1.29431e-17)
(2.20819 -2.55152 -1.2022e-17)
(2.15886 -2.49457 7.01146e-19)
(2.11397 -2.44274 1.0523e-17)
(2.07268 -2.39507 -6.29672e-19)
(2.03438 -2.35086 -1.93814e-17)
(1.9986 -2.30956 8.37604e-18)
(1.96497 -2.27074 -1.06422e-18)
(1.93319 -2.23406 8.6459e-18)
(1.90303 -2.19924 4.7912e-19)
(1.87429 -2.16607 -7.9771e-18)
(1.84681 -2.13436 0)
(1.82046 -2.10393 7.8457e-18)
(1.79511 -2.07468 -6.75239e-18)
(1.77067 -2.04647 8.17121e-19)
(1.74706 -2.01921 -7.92782e-19)
(1.7242 -1.99282 7.70269e-19)
(1.70202 -1.96723 0)
(1.68048 -1.94236 5.83517e-18)
(1.65952 -1.91816 -5.69877e-18)
(1.6391 -1.89458 6.94839e-19)
(1.61917 -1.87157 6.78931e-19)
(1.59971 -1.8491 -1.32796e-18)
(1.58068 -1.82712 5.8446e-18)
(1.56205 -1.80561 -9.54893e-18)
(1.5438 -1.78453 4.99662e-18)
(1.52591 -1.76386 4.2801e-18)
(1.50835 -1.74357 -9.6122e-18)
(1.4911 -1.72364 4.72446e-18)
(1.47415 -1.70405 5.79702e-19)
(1.45747 -1.68478 -5.69887e-19)
(1.44107 -1.66582 4.47913e-18)
(1.42491 -1.64715 -3.8651e-18)
(1.40899 -1.62874 -2.16644e-18)
(1.39329 -1.6106 3.21184e-18)
(1.37781 -1.59271 -1.05294e-18)
(1.36254 -1.57505 4.14484e-18)
(1.34745 -1.55761 -4.09493e-18)
(1.33256 -1.54039 5.03473e-18)
(1.31784 -1.52337 -1.03007e-20)
(1.30329 -1.50655 -9.90643e-19)
(1.28891 -1.48991 -3.8729e-18)
(1.27468 -1.47346 -9.53945e-19)
(1.2606 -1.45718 2.81842e-18)
(1.24666 -1.44106 -3.72103e-18)
(1.23286 -1.4251 -9.16773e-19)
(1.21919 -1.40929 0)
(1.20564 -1.39363 -8.93224e-19)
(1.19222 -1.37811 -3.52131e-18)
(1.17892 -1.36273 4.35812e-18)
(1.16572 -1.34748 5.15018e-18)
(1.15264 -1.33235 -1.70263e-18)
(1.13965 -1.31735 0)
(1.12677 -1.30246 1.65354e-18)
(1.11399 -1.28769 4.89075e-18)
(1.10129 -1.27302 -3.22863e-18)
(1.08869 -1.25846 1.59031e-18)
(1.07617 -1.244 -3.13275e-18)
(1.06374 -1.22965 1.28572e-20)
(1.05139 -1.21538 6.12005e-18)
(1.03911 -1.20121 0)
(1.02691 -1.18713 -1.80683e-23)
(1.01478 -1.17314 2.92785e-18)
(1.00272 -1.15923 -2.90087e-18)
(0.990723 -1.1454 0)
(0.978794 -1.13165 4.21303e-18)
(0.966927 -1.11797 -1.4025e-20)
(0.95512 -1.10437 -2.73982e-18)
(0.943371 -1.09084 1.33907e-18)
(0.931678 -1.07738 -1.33333e-18)
(0.920039 -1.06399 0)