/*--------------------------------*- C++ -*----------------------------------*\
  =========                 |
  \\      /  F ield         | OpenFOAM: The Open Source CFD Toolbox
   \\    /   O peration     | Website:  https://openfoam.org
    \\  /    A nd           | Version:  10
     \\/     M anipulation  |
\*---------------------------------------------------------------------------*/
FoamFile
{
    format      ascii;
    class       volScalarField;
    location    "27000";
    object      omega;
}
// * * * * * * * * * * * * * * * * * * * * * * * * * * * * * * * * * * * * * //

dimensions      [0 0 -1 0 0 0 0];

internalField   nonuniform List<scalar> 
17922
(
29.7011
29.1493
28.6152
28.0984
27.5985
27.1151
26.6478
26.1964
25.7604
25.3397
24.9339
24.5427
24.166
23.8035
23.4551
23.1206
22.7999
22.4928
22.1994
21.9194
21.653
21.4001
21.1608
20.935
20.723
20.5248
20.3405
20.1705
20.0163
19.88
19.7616
19.6599
19.5737
19.5022
19.4444
19.3994
19.3667
19.3456
19.3353
19.3355
19.3455
19.3649
19.3933
19.4302
19.4753
19.5282
19.5886
19.6562
19.7307
19.8117
19.8991
19.9924
20.0916
20.1962
20.3061
20.4211
20.5409
20.6653
20.7941
20.9272
21.0643
21.2054
21.3505
21.4995
21.6523
21.8089
21.969
22.1324
22.2989
22.4681
22.6397
22.8137
22.9906
23.1711
23.3555
23.5441
23.7372
23.9351
24.1384
24.3476
24.5634
24.7864
25.0174
25.2573
25.5072
25.7681
26.0413
26.328
26.6297
26.948
27.2845
27.6412
28.0199
29.7017
29.1498
28.6157
28.0989
27.599
27.1156
26.6483
26.1969
25.7609
25.3402
24.9343
24.5432
24.1665
23.804
23.4556
23.1211
22.8004
22.4933
22.1998
21.9199
21.6535
21.4006
21.1612
20.9354
20.7234
20.5252
20.341
20.1709
20.0167
19.8804
19.762
19.6602
19.574
19.5024
19.4446
19.3996
19.3669
19.3456
19.3353
19.3354
19.3453
19.3647
19.3929
19.4298
19.4748
19.5276
19.5879
19.6554
19.7297
19.8106
19.8978
19.9911
20.0901
20.1945
20.3043
20.4191
20.5387
20.663
20.7916
20.9245
21.0615
21.2024
21.3473
21.4961
21.6489
21.8053
21.9653
22.1287
22.2951
22.4643
22.6359
22.8099
22.9869
23.1676
23.3522
23.5411
23.7347
23.9332
24.1372
24.3473
24.5641
24.7883
25.0207
25.2623
25.5141
25.7772
26.0527
26.3421
26.6468
26.9684
27.3086
27.6692
28.0523
29.7021
29.1503
28.6162
28.0994
27.5994
27.116
26.6488
26.1973
25.7614
25.3406
24.9348
24.5436
24.1669
23.8044
23.456
23.1215
22.8008
22.4937
22.2002
21.9203
21.6539
21.401
21.1616
20.9359
20.7238
20.5256
20.3413
20.1713
20.0171
19.8807
19.7623
19.6605
19.5743
19.5027
19.4448
19.3998
19.367
19.3457
19.3353
19.3353
19.3452
19.3644
19.3926
19.4294
19.4743
19.527
19.5872
19.6546
19.7288
19.8096
19.8967
19.9897
20.0886
20.1929
20.3025
20.4172
20.5366
20.6607
20.7892
20.9219
21.0587
21.1994
21.3441
21.4929
21.6455
21.8019
21.9618
22.1251
22.2915
22.4606
22.6323
22.8063
22.9834
23.1643
23.3492
23.5385
23.7325
23.9317
24.1365
24.3475
24.5654
24.7909
25.0248
25.2681
25.5219
25.7872
26.0652
26.3574
26.6652
26.9902
27.3341
27.6988
28.0863
29.7026
29.1507
28.6166
28.0998
27.5999
27.1165
26.6492
26.1978
25.7618
25.341
24.9352
24.544
24.1673
23.8048
23.4564
23.1219
22.8012
22.4941
22.2007
21.9207
21.6543
21.4014
21.162
20.9363
20.7242
20.526
20.3417
20.1717
20.0174
19.8811
19.7626
19.6608
19.5746
19.5029
19.445
19.3999
19.3671
19.3457
19.3353
19.3353
19.3451
19.3642
19.3923
19.429
19.4738
19.5264
19.5865
19.6538
19.7279
19.8085
19.8955
19.9884
20.0871
20.1913
20.3007
20.4152
20.5345
20.6584
20.7867
20.9193
21.0559
21.1964
21.341
21.4896
21.6421
21.7984
21.9583
22.1215
22.2879
22.457
22.6287
22.8029
22.9801
23.1612
23.3464
23.5361
23.7306
23.9304
24.1361
24.3481
24.5671
24.794
25.0295
25.2747
25.5305
25.798
26.0787
26.3738
26.6847
27.0132
27.361
27.7299
28.122
29.703
29.1512
28.6171
28.1002
27.6003
27.1169
26.6496
26.1982
25.7622
25.3415
24.9356
24.5444
24.1677
23.8052
23.4568
23.1223
22.8016
22.4945
22.2011
21.9211
21.6547
21.4018
21.1624
20.9366
20.7246
20.5264
20.3421
20.1721
20.0178
19.8814
19.7629
19.6611
19.5748
19.5032
19.4452
19.4001
19.3672
19.3458
19.3353
19.3352
19.3449
19.364
19.392
19.4286
19.4733
19.5259
19.5858
19.653
19.7269
19.8075
19.8943
19.9871
20.0856
20.1896
20.2989
20.4132
20.5324
20.6561
20.7842
20.9166
21.0531
21.1935
21.3379
21.4863
21.6387
21.7949
21.9548
22.118
22.2843
22.4535
22.6253
22.7995
22.9769
23.1582
23.3437
23.5339
23.729
23.9295
24.136
24.3491
24.5694
24.7977
25.0349
25.2819
25.5398
25.8098
26.0932
26.3912
26.7055
27.0376
27.3893
27.7625
28.1592
29.7035
29.1516
28.6175
28.1007
27.6007
27.1173
26.6501
26.1986
25.7626
25.3419
24.936
24.5448
24.1681
23.8056
23.4572
23.1227
22.802
22.4949
22.2014
21.9215
21.6551
21.4022
21.1628
20.937
20.725
20.5267
20.3425
20.1724
20.0182
19.8818
19.7633
19.6614
19.5751
19.5034
19.4454
19.4003
19.3673
19.3459
19.3353
19.3351
19.3448
19.3638
19.3917
19.4282
19.4728
19.5253
19.5851
19.6522
19.726
19.8064
19.8931
19.9857
20.0841
20.188
20.2971
20.4113
20.5302
20.6538
20.7818
20.914
21.0502
21.1905
21.3347
21.4831
21.6354
21.7915
21.9513
22.1145
22.2809
22.4501
22.6219
22.7963
22.9739
23.1554
23.3413
23.532
23.7277
23.929
24.1364
24.3506
24.5722
24.802
25.0409
25.2899
25.5501
25.8226
26.1087
26.4098
26.7274
27.0632
27.419
27.7966
28.198
29.7039
29.1521
28.6179
28.1011
27.6012
27.1177
26.6505
26.199
25.763
25.3423
24.9364
24.5452
24.1685
23.806
23.4576
23.1231
22.8024
22.4953
22.2018
21.9219
21.6555
21.4026
21.1632
20.9374
20.7254
20.5271
20.3429
20.1728
20.0185
19.8821
19.7636
19.6617
19.5754
19.5036
19.4456
19.4004
19.3674
19.3459
19.3353
19.3351
19.3446
19.3636
19.3914
19.4278
19.4724
19.5247
19.5844
19.6513
19.7251
19.8053
19.8918
19.9844
20.0826
20.1863
20.2953
20.4093
20.5281
20.6514
20.7792
20.9113
21.0474
21.1875
21.3316
21.4798
21.632
21.7881
21.9478
22.111
22.2774
22.4467
22.6186
22.7932
22.971
23.1528
23.3391
23.5303
23.7267
23.9288
24.1372
24.3526
24.5755
24.8069
25.0476
25.2987
25.5612
25.8362
26.1252
26.4295
26.7507
27.0903
27.4501
27.8322
28.2385
29.7044
29.1525
28.6183
28.1015
27.6016
27.1182
26.6509
26.1994
25.7634
25.3427
24.9368
24.5456
24.1689
23.8064
23.458
23.1235
22.8028
22.4957
22.2022
21.9223
21.6559
21.403
21.1636
20.9378
20.7257
20.5275
20.3433
20.1732
20.0189
19.8825
19.7639
19.662
19.5757
19.5039
19.4458
19.4006
19.3675
19.346
19.3353
19.335
19.3445
19.3634
19.3911
19.4274
19.4719
19.5241
19.5837
19.6505
19.7241
19.8042
19.8906
19.983
20.0811
20.1846
20.2934
20.4073
20.5259
20.6491
20.7767
20.9086
21.0445
21.1844
21.3284
21.4765
21.6287
21.7847
21.9444
22.1076
22.2741
22.4434
22.6155
22.7903
22.9683
23.1504
23.3372
23.5289
23.726
23.929
24.1385
24.3551
24.5795
24.8125
25.0551
25.3083
25.5732
25.8509
26.1429
26.4504
26.7752
27.1187
27.4828
27.8694
28.2806
29.7048
29.1529
28.6188
28.1019
27.602
27.1186
26.6513
26.1998
25.7638
25.3431
24.9372
24.546
24.1693
23.8068
23.4584
23.1239
22.8031
22.4961
22.2026
21.9227
21.6563
21.4033
21.164
20.9382
20.7261
20.5279
20.3436
20.1735
20.0192
19.8828
19.7642
19.6623
19.5759
19.5041
19.446
19.4007
19.3676
19.346
19.3353
19.3349
19.3443
19.3631
19.3908
19.427
19.4714
19.5235
19.583
19.6497
19.7231
19.8031
19.8894
19.9816
20.0795
20.1829
20.2916
20.4052
20.5237
20.6467
20.7742
20.9059
21.0416
21.1814
21.3253
21.4733
21.6253
21.7813
21.941
22.1043
22.2708
22.4402
22.6125
22.7875
22.9658
23.1483
23.3355
23.5278
23.7257
23.9297
24.1402
24.3581
24.584
24.8188
25.0634
25.3188
25.5861
25.8667
26.1617
26.4726
26.801
27.1485
27.5169
27.9082
28.3244
29.7052
29.1533
28.6192
28.1023
27.6024
27.119
26.6517
26.2002
25.7642
25.3434
24.9376
24.5464
24.1697
23.8072
23.4588
23.1242
22.8035
22.4965
22.203
21.9231
21.6566
21.4037
21.1644
20.9386
20.7265
20.5283
20.344
20.1739
20.0196
19.8832
19.7646
19.6626
19.5762
19.5044
19.4462
19.4009
19.3677
19.3461
19.3353
19.3348
19.3442
19.3629
19.3905
19.4266
19.4709
19.5229
19.5823
19.6488
19.7222
19.802
19.8881
19.9802
20.078
20.1812
20.2897
20.4032
20.5215
20.6443
20.7716
20.9031
21.0387
21.1784
21.3221
21.47
21.622
21.778
21.9377
22.101
22.2675
22.4371
22.6096
22.7849
22.9635
23.1464
23.3341
23.5271
23.7258
23.9307
24.1425
24.3617
24.5892
24.8258
25.0724
25.3301
25.6001
25.8834
26.1816
26.496
26.8281
27.1797
27.5526
27.9486
28.3699
29.7057
29.1538
28.6196
28.1027
27.6028
27.1194
26.6521
26.2006
25.7646
25.3438
24.938
24.5468
24.17
23.8076
23.4591
23.1246
22.8039
22.4968
22.2034
21.9234
21.657
21.4041
21.1647
20.939
20.7269
20.5286
20.3444
20.1743
20.02
19.8835
19.7649
19.6629
19.5765
19.5046
19.4464
19.4011
19.3679
19.3461
19.3353
19.3348
19.344
19.3627
19.3902
19.4262
19.4703
19.5222
19.5816
19.648
19.7212
19.8009
19.8869
19.9788
20.0764
20.1795
20.2878
20.4011
20.5192
20.6419
20.7691
20.9004
21.0358
21.1753
21.319
21.4668
21.6187
21.7747
21.9344
22.0977
22.2644
22.4342
22.6068
22.7824
22.9614
23.1447
23.333
23.5267
23.7263
23.9323
24.1452
24.3659
24.595
24.8335
25.0823
25.3424
25.615
25.9013
26.2027
26.5206
26.8566
27.2124
27.5897
27.9905
28.417
29.7061
29.1542
28.62
28.1032
27.6032
27.1198
26.6525
26.201
25.765
25.3442
24.9383
24.5472
24.1704
23.8079
23.4595
23.125
22.8043
22.4972
22.2037
21.9238
21.6574
21.4045
21.1651
20.9393
20.7273
20.529
20.3447
20.1746
20.0203
19.8838
19.7652
19.6632
19.5768
19.5048
19.4466
19.4012
19.368
19.3462
19.3353
19.3347
19.3439
19.3624
19.3899
19.4258
19.4698
19.5216
19.5808
19.6471
19.7202
19.7998
19.8856
19.9774
20.0749
20.1778
20.2859
20.3991
20.517
20.6395
20.7665
20.8976
21.0329
21.1723
21.3158
21.4636
21.6155
21.7714
21.9312
22.0946
22.2614
22.4313
22.6042
22.7802
22.9596
23.1433
23.3322
23.5267
23.7272
23.9343
24.1485
24.3707
24.6016
24.842
25.093
25.3556
25.6309
25.9203
26.225
26.5465
26.8865
27.2465
27.6284
28.0341
28.4657
29.7065
29.1546
28.6204
28.1036
27.6036
27.1202
26.6529
26.2014
25.7654
25.3446
24.9387
24.5475
24.1708
23.8083
23.4599
23.1254
22.8046
22.4976
22.2041
21.9242
21.6578
21.4049
21.1655
20.9397
20.7277
20.5294
20.3451
20.175
20.0207
19.8842
19.7655
19.6635
19.577
19.5051
19.4468
19.4014
19.3681
19.3462
19.3353
19.3346
19.3437
19.3622
19.3895
19.4254
19.4693
19.521
19.5801
19.6463
19.7192
19.7987
19.8843
19.976
20.0733
20.176
20.284
20.397
20.5147
20.6371
20.7639
20.8949
21.03
21.1692
21.3127
21.4604
21.6123
21.7682
21.928
22.0915
22.2585
22.4286
22.6018
22.7782
22.958
23.1423
23.3318
23.5271
23.7286
23.9368
24.1524
24.3762
24.6089
24.8513
25.1046
25.3698
25.6479
25.9404
26.2485
26.5738
26.9177
27.2821
27.6686
28.0793
28.5162
29.7069
29.155
28.6208
28.104
27.604
27.1206
26.6533
26.2018
25.7658
25.345
24.9391
24.5479
24.1712
23.8087
23.4603
23.1257
22.805
22.498
22.2045
21.9246
21.6581
21.4052
21.1659
20.9401
20.728
20.5298
20.3455
20.1754
20.021
19.8845
19.7659
19.6638
19.5773
19.5053
19.447
19.4015
19.3682
19.3463
19.3353
19.3345
19.3436
19.362
19.3892
19.425
19.4688
19.5204
19.5793
19.6454
19.7182
19.7975
19.883
19.9745
20.0717
20.1743
20.2821
20.3949
20.5125
20.6346
20.7612
20.8921
21.027
21.1661
21.3095
21.4572
21.6091
21.765
21.9249
22.0885
22.2557
22.4261
22.5996
22.7763
22.9567
23.1415
23.3318
23.5279
23.7304
23.9399
24.1569
24.3823
24.6169
24.8615
25.1172
25.3849
25.666
25.9617
26.2733
26.6023
26.9504
27.3191
27.7103
28.126
28.5682
29.7074
29.1554
28.6212
28.1044
27.6044
27.1209
26.6536
26.2021
25.7661
25.3453
24.9395
24.5483
24.1715
23.809
23.4606
23.1261
22.8054
22.4983
22.2049
21.9249
21.6585
21.4056
21.1663
20.9405
20.7284
20.5302
20.3459
20.1757
20.0214
19.8849
19.7662
19.6641
19.5776
19.5056
19.4472
19.4017
19.3683
19.3463
19.3352
19.3344
19.3434
19.3617
19.3889
19.4245
19.4683
19.5197
19.5786
19.6445
19.7172
19.7964
19.8817
19.9731
20.0701
20.1725
20.2801
20.3928
20.5102
20.6322
20.7586
20.8893
21.0241
21.1631
21.3064
21.4541
21.6059
21.7619
21.9219
22.0857
22.253
22.4237
22.5976
22.7748
22.9556
23.1411
23.3321
23.5291
23.7327
23.9435
24.1621
24.3892
24.6257
24.8725
25.1306
25.4011
25.6852
25.9842
26.2993
26.6322
26.9844
27.3576
27.7536
28.1743
28.6219
29.7078
29.1558
28.6217
28.1048
27.6048
27.1213
26.654
26.2025
25.7665
25.3457
24.9398
24.5486
24.1719
23.8094
23.461
23.1265
22.8057
22.4987
22.2052
21.9253
21.6589
21.406
21.1666
20.9409
20.7288
20.5305
20.3462
20.1761
20.0217
19.8852
19.7665
19.6644
19.5778
19.5058
19.4474
19.4018
19.3684
19.3464
19.3352
19.3344
19.3433
19.3615
19.3886
19.4241
19.4677
19.5191
19.5778
19.6436
19.7162
19.7952
19.8804
19.9716
20.0684
20.1707
20.2782
20.3906
20.5079
20.6297
20.7559
20.8864
21.0211
21.1601
21.3033
21.451
21.6029
21.7589
21.919
22.083
22.2505
22.4215
22.5958
22.7735
22.9549
23.1411
23.3328
23.5308
23.7356
23.9477
24.1678
24.3968
24.6353
24.8844
25.145
25.4184
25.7055
26.0078
26.3266
26.6635
27.0199
27.3976
27.7984
28.2242
28.6771
32.1017
31.4744
30.8668
30.2783
29.7082
29.1563
28.6221
28.1052
27.6052
27.1217
26.6544
26.2029
25.7669
25.3461
24.9402
24.549
24.1723
23.8098
23.4614
23.1268
22.8061
22.4991
22.2056
21.9257
21.6593
21.4064
21.167
20.9412
20.7292
20.5309
20.3466
20.1765
20.0221
19.8855
19.7668
19.6647
19.5781
19.506
19.4476
19.402
19.3685
19.3464
19.3352
19.3343
19.3431
19.3612
19.3882
19.4237
19.4672
19.5184
19.577
19.6427
19.7151
19.794
19.8791
19.9701
20.0668
20.1689
20.2762
20.3885
20.5055
20.6272
20.7533
20.8836
21.0182
21.1571
21.3003
21.4479
21.5998
21.756
21.9162
22.0804
22.2482
22.4195
22.5943
22.7725
22.9545
23.1414
23.334
23.533
23.739
23.9526
24.1743
24.4051
24.6458
24.8972
25.1605
25.4366
25.727
26.0327
26.3552
26.6961
27.0568
27.439
27.8447
28.2756
28.7339
32.1022
31.4749
30.8672
30.2787
29.7086
29.1567
28.6225
28.1056
27.6056
27.1221
26.6548
26.2033
25.7673
25.3465
24.9406
24.5494
24.1726
23.8101
23.4617
23.1272
22.8065
22.4994
22.206
21.9261
21.6596
21.4067
21.1674
20.9416
20.7295
20.5313
20.347
20.1768
20.0224
19.8859
19.7672
19.665
19.5784
19.5063
19.4478
19.4021
19.3686
19.3465
19.3352
19.3342
19.3429
19.361
19.3879
19.4232
19.4666
19.5178
19.5763
19.6418
19.7141
19.7929
19.8778
19.9686
20.0651
20.1671
20.2742
20.3863
20.5032
20.6247
20.7506
20.8808
21.0152
21.1541
21.2973
21.4449
21.5969
21.7532
21.9136
22.0779
22.2461
22.4178
22.593
22.7717
22.9545
23.1421
23.3356
23.5358
23.743
23.958
24.1815
24.4142
24.6571
24.9109
25.1769
25.456
25.7496
26.0588
26.3851
26.73
27.095
27.4819
27.8924
28.3285
28.7922
32.1027
31.4753
30.8676
30.279
29.709
29.1571
28.6229
28.106
27.606
27.1225
26.6552
26.2037
25.7677
25.3468
24.941
24.5498
24.173
23.8105
23.4621
23.1276
22.8068
22.4998
22.2063
21.9264
21.66
21.4071
21.1678
20.942
20.7299
20.5317
20.3474
20.1772
20.0228
19.8862
19.7675
19.6653
19.5787
19.5065
19.448
19.4023
19.3687
19.3465
19.3352
19.3341
19.3428
19.3607
19.3875
19.4228
19.4661
19.5171
19.5755
19.6409
19.7131
19.7917
19.8764
19.9671
20.0635
20.1652
20.2722
20.3841
20.5009
20.6222
20.7479
20.8779
21.0123
21.1511
21.2943
21.442
21.594
21.7504
21.911
22.0757
22.2441
22.4163
22.592
22.7713
22.9548
23.1433
23.3378
23.539
23.7476
23.9642
24.1895
24.4242
24.6693
24.9256
25.1943
25.4765
25.7733
26.0861
26.4163
26.7653
27.1347
27.5262
27.9416
28.3829
28.852
34.1088
33.419
32.7507
32.1031
31.4757
30.868
30.2794
29.7094
29.1575
28.6233
28.1064
27.6064
27.1229
26.6556
26.2041
25.768
25.3472
24.9413
24.5501
24.1734
23.8109
23.4624
23.1279
22.8072
22.5002
22.2067
21.9268
21.6604
21.4075
21.1681
20.9424
20.7303
20.532
20.3477
20.1776
20.0232
19.8866
19.7678
19.6656
19.5789
19.5068
19.4482
19.4024
19.3688
19.3466
19.3351
19.334
19.3426
19.3605
19.3872
19.4223
19.4655
19.5164
19.5747
19.64
19.712
19.7905
19.8751
19.9656
20.0618
20.1634
20.2702
20.3819
20.4985
20.6196
20.7452
20.8751
21.0094
21.1482
21.2914
21.4391
21.5913
21.7478
21.9087
22.0736
22.2424
22.415
22.5913
22.7713
22.9555
23.1449
23.3404
23.5428
23.7528
23.971
24.1981
24.435
24.6823
24.9413
25.2128
25.4981
25.7983
26.1147
26.4487
26.8019
27.1757
27.5719
27.9923
28.4387
28.9132
34.1094
33.4195
32.7512
32.1036
31.4762
30.8684
30.2798
29.7098
29.1579
28.6237
28.1068
27.6068
27.1233
26.656
26.2045
25.7684
25.3476
24.9417
24.5505
24.1737
23.8112
23.4628
23.1283
22.8076
22.5005
22.2071
21.9272
21.6608
21.4079
21.1685
20.9428
20.7307
20.5324
20.3481
20.178
20.0235
19.8869
19.7681
19.6659
19.5792
19.507
19.4484
19.4026
19.3689
19.3466
19.3351
19.3339
19.3424
19.3602
19.3868
19.4219
19.465
19.5158
19.5739
19.6391
19.7109
19.7893
19.8737
19.9641
20.0601
20.1615
20.2682
20.3797
20.4961
20.6171
20.7425
20.8723
21.0066
21.1453
21.2886
21.4364
21.5887
21.7454
21.9065
22.0717
22.2409
22.414
22.5909
22.7716
22.9566
23.1469
23.3435
23.5472
23.7587
23.9786
24.2076
24.4466
24.6964
24.9579
25.2324
25.5208
25.8244
26.1445
26.4824
26.8398
27.2181
27.619
28.0443
28.4959
28.9757
34.1099
33.42
32.7516
32.104
31.4766
30.8689
30.2802
29.7102
29.1583
28.6241
28.1072
27.6072
27.1237
26.6564
26.2048
25.7688
25.348
24.9421
24.5509
24.1741
23.8116
23.4632
23.1287
22.8079
22.5009
22.2075
21.9275
21.6611
21.4083
21.1689
20.9431
20.7311
20.5328
20.3485
20.1783
20.0239
19.8873
19.7685
19.6662
19.5795
19.5072
19.4486
19.4028
19.369
19.3466
19.3351
19.3338
19.3422
19.36
19.3865
19.4214
19.4644
19.5151
19.5731
19.6381
19.7099
19.788
19.8724
19.9626
20.0584
20.1597
20.2661
20.3775
20.4937
20.6145
20.7398
20.8695
21.0038
21.1425
21.2858
21.4337
21.5862
21.7431
21.9044
22.07
22.2397
22.4133
22.5908
22.7723
22.9582
23.1494
23.3471
23.5522
23.7653
23.9869
24.2179
24.4591
24.7113
24.9756
25.253
25.5446
25.8517
26.1755
26.5175
26.879
27.2618
27.6674
28.0976
28.5543
29.0395
34.1105
33.4205
32.7521
32.1044
31.477
30.8693
30.2806
29.7106
29.1587
28.6245
28.1076
27.6076
27.1241
26.6568
26.2052
25.7692
25.3484
24.9425
24.5512
24.1745
23.812
23.4636
23.129
22.8083
22.5013
22.2078
21.9279
21.6615
21.4086
21.1693
20.9435
20.7315
20.5332
20.3489
20.1787
20.0242
19.8876
19.7688
19.6665
19.5798
19.5075
19.4488
19.4029
19.3691
19.3467
19.3351
19.3337
19.3421
19.3597
19.3861
19.421
19.4639
19.5144
19.5723
19.6372
19.7088
19.7868
19.871
19.961
20.0567
20.1578
20.2641
20.3753
20.4913
20.612
20.7371
20.8668
21.001
21.1398
21.2832
21.4312
21.5838
21.741
21.9026
22.0686
22.2388
22.413
22.5911
22.7734
22.9602
23.1524
23.3514
23.5578
23.7725
23.996
24.229
24.4725
24.7272
24.9943
25.2747
25.5696
25.8802
26.2078
26.5537
26.9196
27.3068
27.7171
28.1523
28.6141
29.1046
34.111
33.421
32.7525
32.1049
31.4775
30.8697
30.281
29.711
29.1591
28.6249
28.108
27.608
27.1245
26.6572
26.2056
25.7696
25.3487
24.9428
24.5516
24.1749
23.8124
23.4639
23.1294
22.8087
22.5016
22.2082
21.9283
21.6619
21.409
21.1697
20.9439
20.7319
20.5336
20.3493
20.1791
20.0246
19.888
19.7691
19.6668
19.58
19.5077
19.449
19.4031
19.3692
19.3467
19.3351
19.3336
19.3419
19.3594
19.3858
19.4205
19.4633
19.5137
19.5715
19.6363
19.7077
19.7856
19.8696
19.9595
20.055
20.1559
20.262
20.3731
20.4889
20.6094
20.7345
20.8641
20.9983
21.1372
21.2806
21.4288
21.5816
21.739
21.9011
22.0675
22.2382
22.413
22.5918
22.7749
22.9626
23.1559
23.3562
23.5641
23.7804
24.0058
24.241
24.4868
24.7441
25.014
25.2975
25.5957
25.9098
26.2412
26.5912
26.9614
27.3531
27.7681
28.2082
28.6751
29.1708
34.1116
33.4215
32.753
32.1053
31.4779
30.8701
30.2814
29.7114
29.1595
28.6253
28.1084
27.6084
27.1249
26.6576
26.206
25.77
25.3491
24.9432
24.552
24.1752
23.8127
23.4643
23.1298
22.8091
22.502
22.2086
21.9287
21.6623
21.4094
21.1701
20.9443
20.7322
20.534
20.3496
20.1795
20.025
19.8883
19.7695
19.6672
19.5803
19.508
19.4492
19.4032
19.3693
19.3468
19.335
19.3335
19.3417
19.3592
19.3854
19.4201
19.4628
19.5131
19.5707
19.6353
19.7067
19.7844
19.8682
19.958
20.0533
20.154
20.26
20.3708
20.4865
20.6069
20.7319
20.8615
20.9957
21.1346
21.2782
21.4265
21.5796
21.7373
21.8997
22.0667
22.2379
22.4133
22.5929
22.7768
22.9655
23.16
23.3616
23.571
23.7891
24.0164
24.2538
24.502
24.762
25.0348
25.3214
25.6229
25.9407
26.2759
26.63
27.0044
27.4006
27.8203
28.2652
28.7372
29.2381
34.1121
33.422
32.7535
32.1058
31.4783
30.8705
30.2819
29.7118
29.1599
28.6258
28.1089
27.6088
27.1253
26.658
26.2064
25.7704
25.3495
24.9436
24.5524
24.1756
23.8131
23.4647
23.1302
22.8094
22.5024
22.209
21.9291
21.6627
21.4098
21.1705
20.9447
20.7326
20.5344
20.35
20.1798
20.0254
19.8887
19.7698
19.6675
19.5806
19.5082
19.4494
19.4034
19.3694
19.3468
19.335
19.3334
19.3416
19.3589
19.3851
19.4196
19.4622
19.5124
19.5699
19.6344
19.7056
19.7831
19.8668
19.9564
20.0516
20.1521
20.2579
20.3686
20.4841
20.6044
20.7293
20.8589
20.9932
21.1322
21.2759
21.4244
21.5777
21.7359
21.8987
22.0661
22.238
22.4141
22.5945
22.7792
22.9689
23.1646
23.3676
23.5787
23.7985
24.0279
24.2675
24.5181
24.7808
25.0565
25.3463
25.6513
25.9727
26.3118
26.6699
27.0486
27.4493
27.8737
28.3234
28.8004
29.3064
34.1127
33.4225
32.7539
32.1062
31.4787
30.8709
30.2823
29.7122
29.1604
28.6262
28.1093
27.6092
27.1257
26.6584
26.2068
25.7708
25.3499
24.944
24.5528
24.176
23.8135
23.4651
23.1305
22.8098
22.5028
22.2093
21.9295
21.6631
21.4102
21.1709
20.9451
20.733
20.5348
20.3504
20.1802
20.0257
19.889
19.7701
19.6678
19.5809
19.5085
19.4496
19.4036
19.3695
19.3469
19.335
19.3334
19.3414
19.3587
19.3847
19.4192
19.4616
19.5117
19.5691
19.6335
19.7045
19.7819
19.8654
19.9548
20.0499
20.1502
20.2558
20.3663
20.4817
20.6019
20.7268
20.8564
20.9908
21.1298
21.2737
21.4225
21.5761
21.7346
21.8979
22.0659
22.2384
22.4152
22.5964
22.7821
22.9728
23.1698
23.3742
23.587
23.8087
24.0401
24.282
24.5352
24.8007
25.0794
25.3724
25.6808
26.0058
26.3488
26.711
27.094
27.4992
27.9282
28.3827
28.8646
29.3756
34.1132
33.423
32.7544
32.1067
31.4792
30.8714
30.2827
29.7127
29.1608
28.6266
28.1097
27.6097
27.1261
26.6588
26.2072
25.7712
25.3503
24.9444
24.5532
24.1764
23.8139
23.4654
23.1309
22.8102
22.5032
22.2097
21.9298
21.6635
21.4106
21.1713
20.9455
20.7334
20.5352
20.3508
20.1806
20.0261
19.8894
19.7705
19.6681
19.5812
19.5087
19.4498
19.4037
19.3696
19.3469
19.335
19.3333
19.3412
19.3584
19.3844
19.4188
19.4611
19.511
19.5683
19.6325
19.7034
19.7807
19.8641
19.9533
20.0481
20.1483
20.2537
20.3641
20.4794
20.5995
20.7244
20.854
20.9884
21.1277
21.2717
21.4208
21.5747
21.7337
21.8975
22.0661
22.2392
22.4168
22.5989
22.7855
22.9773
23.1755
23.3815
23.596
23.8197
24.0532
24.2975
24.5533
24.8215
25.1033
25.3995
25.7114
26.0401
26.3869
26.7533
27.1405
27.5501
27.9837
28.443
28.9297
29.4457
34.1137
33.4235
32.7549
32.1071
31.4796
30.8718
30.2831
29.7131
29.1612
28.627
28.1101
27.6101
27.1266
26.6592
26.2076
25.7716
25.3507
24.9448
24.5535
24.1768
23.8143
23.4658
23.1313
22.8106
22.5036
22.2101
21.9302
21.6639
21.411
21.1717
20.9459
20.7338
20.5356
20.3512
20.181
20.0265
19.8898
19.7708
19.6684
19.5815
19.509
19.4501
19.4039
19.3698
19.347
19.335
19.3332
19.3411
19.3582
19.3841
19.4183
19.4605
19.5104
19.5675
19.6316
19.7023
19.7794
19.8627
19.9517
20.0464
20.1464
20.2516
20.3619
20.4771
20.5972
20.7221
20.8518
20.9863
21.1256
21.2699
21.4193
21.5736
21.733
21.8974
22.0666
22.2405
22.4189
22.6018
22.7894
22.9823
23.1819
23.3895
23.6058
23.8314
24.0672
24.3139
24.5723
24.8434
25.1282
25.4277
25.7431
26.0755
26.4262
26.7966
27.1881
27.6021
28.0402
28.5042
28.9956
29.5165
34.1142
33.424
32.7554
32.1076
31.4801
30.8722
30.2835
29.7135
29.1616
28.6274
28.1105
27.6105
27.127
26.6596
26.208
25.772
25.3511
24.9452
24.5539
24.1772
23.8146
23.4662
23.1317
22.811
22.504
22.2105
21.9306
21.6643
21.4114
21.1721
20.9463
20.7343
20.536
20.3516
20.1814
20.0269
19.8901
19.7712
19.6688
19.5818
19.5093
19.4503
19.4041
19.3699
19.3471
19.335
19.3331
19.341
19.358
19.3838
19.4179
19.46
19.5097
19.5667
19.6307
19.7013
19.7782
19.8613
19.9502
20.0447
20.1445
20.2496
20.3597
20.4749
20.5949
20.7198
20.8496
20.9842
21.1238
21.2684
21.418
21.5728
21.7327
21.8976
22.0675
22.2421
22.4214
22.6052
22.7938
22.9879
23.1889
23.3981
23.6163
23.844
24.082
24.3312
24.5923
24.8663
25.1541
25.4569
25.7758
26.1119
26.4666
26.841
27.2367
27.6551
28.0977
28.5662
29.0624
29.588
34.1148
33.4245
32.7558
32.108
31.4805
30.8727
30.284
29.7139
29.162
28.6278
28.1109
27.6109
27.1274
26.66
26.2084
25.7724
25.3515
24.9456
24.5543
24.1776
23.815
23.4666
23.1321
22.8114
22.5044
22.2109
21.931
21.6647
21.4118
21.1725
20.9467
20.7347
20.5364
20.352
20.1818
20.0273
19.8905
19.7715
19.6691
19.5821
19.5095
19.4505
19.4043
19.37
19.3472
19.335
19.3331
19.3408
19.3577
19.3834
19.4175
19.4595
19.5091
19.5659
19.6297
19.7002
19.777
19.8599
19.9486
20.0429
20.1426
20.2476
20.3576
20.4727
20.5928
20.7177
20.8476
20.9823
21.1221
21.267
21.417
21.5723
21.7327
21.8983
22.0689
22.2443
22.4243
22.6091
22.7987
22.994
23.1965
23.4075
23.6276
23.8574
24.0977
24.3494
24.6132
24.8901
25.1811
25.4872
25.8096
26.1495
26.508
26.8865
27.2863
27.709
28.1561
28.6291
29.1298
29.66
34.1153
33.425
32.7563
32.1085
31.4809
30.8731
30.2844
29.7143
29.1624
28.6283
28.1114
27.6113
27.1278
26.6604
26.2088
25.7728
25.3519
24.946
24.5547
24.1779
23.8154
23.467
23.1325
22.8118
22.5048
22.2113
21.9314
21.6651
21.4122
21.1729
20.9472
20.7351
20.5368
20.3525
20.1822
20.0277
19.8909
19.7719
19.6695
19.5824
19.5098
19.4508
19.4045
19.3702
19.3473
19.3351
19.333
19.3407
19.3575
19.3831
19.4171
19.4589
19.5084
19.5652
19.6288
19.6991
19.7758
19.8585
19.9471
20.0412
20.1407
20.2456
20.3556
20.4707
20.5907
20.7157
20.8457
20.9806
21.1207
21.2659
21.4163
21.5721
21.7331
21.8993
22.0707
22.2469
22.4278
22.6135
22.8041
23.0007
23.2049
23.4176
23.6396
23.8716
24.1143
24.3685
24.6351
24.915
25.2091
25.5186
25.8445
26.188
26.5504
26.9329
27.3369
27.7638
28.2152
28.6927
29.1979
29.7327
34.1158
33.4255
32.7568
32.1089
31.4814
30.8735
30.2848
29.7148
29.1629
28.6287
28.1118
27.6117
27.1282
26.6608
26.2093
25.7732
25.3523
24.9464
24.5551
24.1783
23.8158
23.4674
23.1329
22.8122
22.5052
22.2117
21.9319
21.6655
21.4126
21.1733
20.9476
20.7355
20.5372
20.3529
20.1826
20.0281
19.8913
19.7723
19.6698
19.5827
19.5101
19.451
19.4047
19.3704
19.3474
19.3351
19.333
19.3406
19.3573
19.3828
19.4167
19.4584
19.5078
19.5644
19.6279
19.6981
19.7746
19.8571
19.9455
20.0395
20.1389
20.2437
20.3536
20.4687
20.5888
20.7139
20.844
20.9791
21.1195
21.265
21.4159
21.5722
21.7339
21.9008
22.0729
22.25
22.4318
22.6184
22.8101
23.0081
23.2139
23.4285
23.6525
23.8867
24.1318
24.3886
24.6579
24.9408
25.2381
25.5509
25.8804
26.2276
26.5938
26.9803
27.3884
27.8195
28.2752
28.757
29.2666
29.8057
34.1163
33.426
32.7572
32.1094
31.4818
30.874
30.2853
29.7152
29.1633
28.6291
28.1122
27.6122
27.1286
26.6612
26.2097
25.7736
25.3527
24.9468
24.5555
24.1788
23.8162
23.4678
23.1333
22.8126
22.5056
22.2121
21.9323
21.6659
21.4131
21.1737
20.948
20.7359
20.5377
20.3533
20.1831
20.0285
19.8917
19.7727
19.6702
19.5831
19.5104
19.4513
19.4049
19.3705
19.3475
19.3352
19.333
19.3405
19.3572
19.3826
19.4163
19.4579
19.5072
19.5636
19.627
19.697
19.7734
19.8557
19.944
20.0378
20.1371
20.2418
20.3517
20.4668
20.587
20.7122
20.8424
20.9778
21.1185
21.2645
21.4159
21.5727
21.7351
21.9028
22.0757
22.2536
22.4363
22.6238
22.8167
23.0161
23.2236
23.44
23.6662
23.9026
24.1501
24.4096
24.6818
24.9676
25.2681
25.5843
25.9173
26.2681
26.6381
27.0285
27.4407
27.876
28.3359
28.8219
29.3358
29.8792
34.1168
33.4265
32.7577
32.1098
31.4823
30.8744
30.2857
29.7156
29.1637
28.6295
28.1126
27.6126
27.1291
26.6617
26.2101
25.774
25.3531
24.9472
24.5559
24.1792
23.8166
23.4682
23.1337
22.813
22.506
22.2126
21.9327
21.6663
21.4135
21.1742
20.9484
20.7364
20.5381
20.3537
20.1835
20.0289
19.8921
19.7731
19.6705
19.5834
19.5107
19.4516
19.4052
19.3707
19.3476
19.3352
19.333
19.3404
19.357
19.3823
19.4159
19.4575
19.5066
19.5629
19.6261
19.696
19.7722
19.8544
19.9424
20.0362
20.1354
20.2401
20.35
20.4651
20.5853
20.7106
20.8411
20.9768
21.1178
21.2642
21.4162
21.5737
21.7367
21.9052
22.0789
22.2577
22.4413
22.6299
22.8238
23.0247
23.234
23.4524
23.6806
23.9194
24.1694
24.4315
24.7065
24.9954
25.2991
25.6187
25.9551
26.3096
26.6834
27.0777
27.4939
27.9332
28.3972
28.8875
29.4055
29.9531
34.8297
34.1172
33.4269
32.7582
32.1103
31.4827
30.8748
30.2861
29.716
29.1641
28.6299
28.113
27.613
27.1295
26.6621
26.2105
25.7744
25.3535
24.9476
24.5564
24.1796
23.8171
23.4686
23.1341
22.8134
22.5064
22.213
21.9331
21.6668
21.4139
21.1746
20.9489
20.7368
20.5385
20.3542
20.1839
20.0294
19.8925
19.7735
19.6709
19.5838
19.5111
19.4519
19.4054
19.3709
19.3478
19.3353
19.333
19.3403
19.3568
19.382
19.4156
19.457
19.506
19.5622
19.6253
19.695
19.771
19.853
19.9409
20.0346
20.1338
20.2384
20.3483
20.4635
20.5838
20.7093
20.84
20.976
21.1174
21.2643
21.4168
21.575
21.7388
21.9081
22.0827
22.2623
22.4469
22.6364
22.8316
23.034
23.2451
23.4655
23.6959
23.937
24.1896
24.4544
24.7323
25.0242
25.3311
25.654
25.9939
26.3521
26.7296
27.1278
27.5478
27.9911
28.4592
28.9535
29.4756
30.0272
34.8301
34.1177
33.4274
32.7586
32.1107
31.4831
30.8752
30.2865
29.7165
29.1646
28.6304
28.1135
27.6134
27.1299
26.6625
26.2109
25.7748
25.354
24.948
24.5568
24.18
23.8175
23.469
23.1345
22.8138
22.5068
22.2134
21.9335
21.6672
21.4144
21.1751
20.9493
20.7373
20.539
20.3546
20.1844
20.0298
19.893
19.7739
19.6713
19.5842
19.5114
19.4522
19.4057
19.3711
19.3479
19.3354
19.3331
19.3403
19.3567
19.3818
19.4152
19.4565
19.5054
19.5614
19.6244
19.6939
19.7698
19.8517
19.9395
20.0331
20.1322
20.2368
20.3468
20.462
20.5825
20.7082
20.8392
20.9755
21.1174
21.2648
21.4179
21.5768
21.7414
21.9115
22.087
22.2675
22.453
22.6435
22.84
23.044
23.257
23.4795
23.7121
23.9556
24.2107
24.4782
24.759
25.0539
25.364
25.6903
26.0337
26.3955
26.7767
27.1786
27.6025
28.0498
28.5218
29.02
29.5461
30.1017
34.8306
34.1181
33.4278
32.7591
32.1112
31.4836
30.8757
30.2869
29.7169
29.165
28.6308
28.1139
27.6138
27.1303
26.6629
26.2113
25.7752
25.3544
24.9484
24.5572
24.1804
23.8179
23.4694
23.135
22.8142
22.5072
22.2138
21.934
21.6676
21.4148
21.1755
20.9498
20.7377
20.5395
20.3551
20.1849
20.0303
19.8934
19.7743
19.6717
19.5846
19.5118
19.4525
19.406
19.3714
19.3481
19.3355
19.3331
19.3403
19.3566
19.3816
19.4149
19.4561
19.5048
19.5607
19.6236
19.6929
19.7686
19.8504
19.9382
20.0317
20.1308
20.2354
20.3454
20.4607
20.5814
20.7073
20.8386
20.9753
21.1176
21.2657
21.4194
21.5791
21.7445
21.9154
22.0918
22.2732
22.4596
22.6511
22.849
23.0548
23.2697
23.4942
23.7291
23.975
24.2327
24.5029
24.7866
25.0846
25.3979
25.7275
26.0744
26.4397
26.8246
27.2303
27.658
28.1091
28.5849
29.087
29.6168
34.8311
34.1186
33.4283
32.7595
32.1116
31.484
30.8761
30.2874
29.7173
29.1654
28.6312
28.1143
27.6143
27.1307
26.6633
26.2118
25.7757
25.3548
24.9488
24.5576
24.1808
23.8183
23.4699
23.1354
22.8147
22.5077
22.2143
21.9344
21.6681
21.4153
21.176
20.9503
20.7382
20.5399
20.3556
20.1853