/*--------------------------------*- C++ -*----------------------------------*\
  =========                 |
  \\      /  F ield         | OpenFOAM: The Open Source CFD Toolbox
   \\    /   O peration     | Website:  https://openfoam.org
    \\  /    A nd           | Version:  10
     \\/     M anipulation  |
\*---------------------------------------------------------------------------*/
FoamFile
{
    format      ascii;
    class       volScalarField;
    location    "23000";
    object      k;
}
// * * * * * * * * * * * * * * * * * * * * * * * * * * * * * * * * * * * * * //

dimensions      [0 2 -2 0 0 0 0];

internalField   nonuniform List<scalar> 
17808
(
0.127511
0.146203
0.134915
0.130793
0.129035
0.128131
0.127608
0.127276
0.127045
0.126871
0.126729
0.126602
0.126484
0.126368
0.126251
0.12613
0.126004
0.125873
0.125736
0.125592
0.125442
0.125285
0.125121
0.124951
0.124774
0.124592
0.124403
0.124208
0.124008
0.123802
0.12359
0.123374
0.123152
0.122925
0.122694
0.122458
0.122218
0.121973
0.121725
0.121473
0.121216
0.120957
0.120693
0.120427
0.120157
0.119884
0.119609
0.11933
0.119049
0.118766
0.11848
0.118192
0.117901
0.117609
0.117315
0.117019
0.116721
0.116422
0.116121
0.115819
0.115516
0.115212
0.114907
0.1146
0.114293
0.113986
0.113677
0.113368
0.113059
0.112749
0.112439
0.112129
0.111818
0.111508
0.111197
0.110887
0.110577
0.110267
0.109957
0.109647
0.109338
0.10903
0.108722
0.108414
0.108107
0.107801
0.107495
0.10719
0.106885
0.106581
0.106278
0.105976
0.127475
0.146186
0.134911
0.130842
0.129101
0.128202
0.127679
0.127343
0.127109
0.126931
0.126784
0.126653
0.126531
0.126411
0.126291
0.126167
0.126039
0.125905
0.125766
0.12562
0.125467
0.125309
0.125143
0.124972
0.124794
0.12461
0.12442
0.124224
0.124023
0.123816
0.123604
0.123386
0.123164
0.122936
0.122705
0.122468
0.122227
0.121982
0.121733
0.121481
0.121224
0.120964
0.1207
0.120433
0.120163
0.11989
0.119614
0.119336
0.119054
0.118771
0.118484
0.118196
0.117906
0.117613
0.117319
0.117023
0.116725
0.116426
0.116125
0.115823
0.11552
0.115215
0.11491
0.114604
0.114297
0.113989
0.11368
0.113371
0.113062
0.112752
0.112442
0.112132
0.111821
0.111511
0.1112
0.11089
0.11058
0.110269
0.10996
0.10965
0.109341
0.109033
0.108725
0.108417
0.10811
0.107803
0.107498
0.107193
0.106888
0.106584
0.106281
0.105979
0.127497
0.146136
0.134866
0.130834
0.129109
0.128222
0.127705
0.127373
0.127141
0.126964
0.126817
0.126687
0.126564
0.126443
0.126322
0.126197
0.126068
0.125933
0.125792
0.125645
0.125491
0.125331
0.125165
0.124992
0.124813
0.124628
0.124437
0.12424
0.124038
0.12383
0.123617
0.123399
0.123176
0.122948
0.122715
0.122478
0.122237
0.121992
0.121742
0.121489
0.121232
0.120971
0.120707
0.12044
0.12017
0.119896
0.11962
0.119341
0.11906
0.118776
0.118489
0.118201
0.11791
0.117617
0.117323
0.117027
0.116729
0.116429
0.116129
0.115826
0.115523
0.115219
0.114913
0.114607
0.1143
0.113992
0.113683
0.113374
0.113065
0.112755
0.112445
0.112134
0.111824
0.111513
0.111203
0.110893
0.110582
0.110272
0.109963
0.109653
0.109344
0.109035
0.108727
0.10842
0.108113
0.107806
0.1075
0.107195
0.106891
0.106587
0.106284
0.105982
0.12752
0.146099
0.134836
0.13082
0.129108
0.12823
0.127719
0.12739
0.12716
0.126984
0.126839
0.126709
0.126587
0.126466
0.126345
0.12622
0.12609
0.125955
0.125814
0.125666
0.125512
0.125351
0.125184
0.12501
0.124831
0.124645
0.124453
0.124256
0.124053
0.123844
0.123631
0.123412
0.123188
0.122959
0.122726
0.122489
0.122247
0.122001
0.121751
0.121497
0.12124
0.120979
0.120715
0.120447
0.120176
0.119903
0.119626
0.119347
0.119065
0.118781
0.118494
0.118206
0.117915
0.117622
0.117327
0.117031
0.116733
0.116433
0.116132
0.11583
0.115527
0.115222
0.114917
0.11461
0.114303
0.113995
0.113686
0.113377
0.113068
0.112758
0.112448
0.112137
0.111827
0.111516
0.111206
0.110895
0.110585
0.110275
0.109965
0.109656
0.109347
0.109038
0.10873
0.108422
0.108115
0.107809
0.107503
0.107198
0.106894
0.10659
0.106287
0.105984
0.127544
0.14607
0.13481
0.130802
0.129103
0.128235
0.127729
0.127403
0.127175
0.127
0.126855
0.126726
0.126604
0.126484
0.126363
0.126238
0.126108
0.125973
0.125832
0.125684
0.125529
0.125368
0.125201
0.125027
0.124847
0.12466
0.124468
0.12427
0.124067
0.123858
0.123643
0.123424
0.1232
0.122971
0.122737
0.122499
0.122257
0.12201
0.12176
0.121506
0.121248
0.120987
0.120722
0.120454
0.120183
0.119909
0.119632
0.119353
0.119071
0.118786
0.1185
0.118211
0.11792
0.117627
0.117332
0.117035
0.116737
0.116437
0.116136
0.115834
0.11553
0.115226
0.11492
0.114614
0.114306
0.113998
0.11369
0.113381
0.113071
0.112761
0.112451
0.11214
0.11183
0.111519
0.111209
0.110898
0.110588
0.110278
0.109968
0.109659
0.10935
0.109041
0.108733
0.108425
0.108118
0.107812
0.107506
0.107201
0.106896
0.106593
0.10629
0.105987
0.127573
0.146047
0.134786
0.130781
0.129093
0.128233
0.127732
0.12741
0.127184
0.12701
0.126866
0.126738
0.126617
0.126497
0.126377
0.126252
0.126123
0.125988
0.125846
0.125698
0.125544
0.125383
0.125215
0.125041
0.124861
0.124674
0.124482
0.124283
0.124079
0.12387
0.123655
0.123436
0.123211
0.122982
0.122748
0.122509
0.122267
0.12202
0.121769
0.121515
0.121256
0.120995
0.12073
0.120461
0.12019
0.119916
0.119639
0.119359
0.119077
0.118792
0.118505
0.118216
0.117925
0.117632
0.117336
0.11704
0.116741
0.116442
0.11614
0.115838
0.115534
0.11523
0.114924
0.114617
0.11431
0.114002
0.113693
0.113384
0.113074
0.112764
0.112454
0.112143
0.111833
0.111522
0.111212
0.110901
0.110591
0.110281
0.109971
0.109661
0.109352
0.109044
0.108736
0.108428
0.108121
0.107814
0.107509
0.107204
0.106899
0.106595
0.106292
0.10599
0.127603
0.146028
0.134763
0.13076
0.129081
0.128227
0.127731
0.127412
0.127188
0.127016
0.126873
0.126746
0.126625
0.126507
0.126386
0.126262
0.126134
0.125999
0.125858
0.12571
0.125556
0.125395
0.125227
0.125053
0.124873
0.124686
0.124494
0.124295
0.124091
0.123881
0.123667
0.123447
0.123222
0.122992
0.122758
0.122519
0.122276
0.122029
0.121778
0.121523
0.121265
0.121003
0.120737
0.120469
0.120197
0.119923
0.119645
0.119365
0.119083
0.118798
0.118511
0.118221
0.11793
0.117636
0.117341
0.117044
0.116746
0.116446
0.116145
0.115842
0.115538
0.115233
0.114927
0.114621
0.114313
0.114005
0.113696
0.113387
0.113077
0.112767
0.112457
0.112146
0.111836
0.111525
0.111214
0.110904
0.110594
0.110283
0.109974
0.109664
0.109355
0.109046
0.108738
0.108431
0.108124
0.107817
0.107511
0.107206
0.106902
0.106598
0.106295
0.105992
0.127631
0.146014
0.134743
0.130741
0.129068
0.128219
0.127728
0.127412
0.12719
0.12702
0.126878
0.126751
0.126632
0.126513
0.126394
0.12627
0.126142
0.126008
0.125867
0.12572
0.125566
0.125405
0.125238
0.125064
0.124883
0.124697
0.124504
0.124306
0.124101
0.123892
0.123677
0.123456
0.123231
0.123001
0.122767
0.122528
0.122285
0.122037
0.121786
0.121531
0.121272
0.12101
0.120745
0.120476
0.120204
0.119929
0.119652
0.119372
0.119089
0.118804
0.118516
0.118227
0.117935
0.117642
0.117346
0.117049
0.11675
0.11645
0.116149
0.115846
0.115542
0.115237
0.114931
0.114624
0.114317
0.114009
0.1137
0.11339
0.113081
0.11277
0.11246
0.112149
0.111839
0.111528
0.111217
0.110907
0.110596
0.110286
0.109976
0.109667
0.109358
0.109049
0.108741
0.108433
0.108126
0.10782
0.107514
0.107209
0.106904
0.106601
0.106298
0.105995
0.127656
0.146002
0.134726
0.130724
0.129055
0.128211
0.127723
0.127411
0.127191
0.127022
0.126881
0.126755
0.126636
0.126518
0.126399
0.126276
0.126148
0.126014
0.125874
0.125727
0.125574
0.125413
0.125246
0.125072
0.124892
0.124706
0.124513
0.124315
0.12411
0.123901
0.123686
0.123465
0.12324
0.12301
0.122776
0.122536
0.122293
0.122046
0.121794
0.121539
0.12128
0.121018
0.120752
0.120483
0.120211
0.119936
0.119658
0.119378
0.119095
0.118809
0.118522
0.118232
0.11794
0.117647
0.117351
0.117054
0.116755
0.116455
0.116153
0.11585
0.115546
0.115241
0.114935
0.114628
0.114321
0.114012
0.113703
0.113394
0.113084
0.112774
0.112463
0.112153
0.111842
0.111531
0.11122
0.11091
0.110599
0.110289
0.109979
0.10967
0.109361
0.109052
0.108744
0.108436
0.108129
0.107822
0.107517
0.107211
0.106907
0.106603
0.1063
0.105998
0.12768
0.145993
0.134711
0.130709
0.129043
0.128202
0.127718
0.127408
0.12719
0.127022
0.126882
0.126757
0.126639
0.126522
0.126403
0.12628
0.126153
0.12602
0.12588
0.125733
0.12558
0.12542
0.125253
0.12508
0.1249
0.124713
0.124521
0.124323
0.124119
0.123909
0.123694
0.123474
0.123248
0.123018
0.122784
0.122544
0.122301
0.122053
0.121802
0.121546
0.121287
0.121025
0.120759
0.12049
0.120217
0.119942
0.119664
0.119384
0.119101
0.118815
0.118527
0.118238
0.117946
0.117652
0.117356
0.117059
0.11676
0.116459
0.116158
0.115855
0.11555
0.115245
0.114939
0.114632
0.114324
0.114016
0.113707
0.113397
0.113087
0.112777
0.112466
0.112156
0.111845
0.111534
0.111223
0.110913
0.110602
0.110292
0.109982
0.109673
0.109363
0.109055
0.108746
0.108439
0.108132
0.107825
0.107519
0.107214
0.10691
0.106606
0.106303
0.106
0.127701
0.145987
0.134699
0.130696
0.129031
0.128193
0.127711
0.127404
0.127188
0.127021
0.126883
0.126758
0.12664
0.126524
0.126406
0.126284
0.126157
0.126024
0.125884
0.125738
0.125585
0.125425
0.125259
0.125086
0.124906
0.12472
0.124528
0.124329
0.124125
0.123916
0.123701
0.123481
0.123256
0.123025
0.122791
0.122552
0.122308
0.12206
0.121809
0.121553
0.121294
0.121031
0.120765
0.120496
0.120224
0.119948
0.11967
0.11939
0.119106
0.118821
0.118533
0.118243
0.117951
0.117657
0.117361
0.117063
0.116764
0.116464
0.116162
0.115859
0.115555
0.115249
0.114943
0.114636
0.114328
0.114019
0.11371
0.113401
0.113091
0.11278
0.11247
0.112159
0.111848
0.111537
0.111226
0.110916
0.110605
0.110295
0.109985
0.109675
0.109366
0.109057
0.108749
0.108441
0.108134
0.107828
0.107522
0.107217
0.106912
0.106608
0.106305
0.106003
0.12772
0.145981
0.134689
0.130685
0.12902
0.128183
0.127705
0.127399
0.127185
0.12702
0.126882
0.126759
0.126641
0.126525
0.126407
0.126286
0.126159
0.126027
0.125887
0.125742
0.125589
0.12543
0.125263
0.125091
0.124911
0.124725
0.124533
0.124335
0.124132
0.123922
0.123707
0.123487
0.123262
0.123032
0.122797
0.122558
0.122315
0.122067
0.121815
0.12156
0.1213
0.121038
0.120772
0.120502
0.12023
0.119954
0.119676
0.119395
0.119112
0.118826
0.118538
0.118248
0.117956
0.117662
0.117366
0.117068
0.116769
0.116468
0.116166
0.115863
0.115559
0.115253
0.114947
0.11464
0.114332
0.114023
0.113714
0.113404
0.113094
0.112784
0.112473
0.112162
0.111851
0.11154
0.111229
0.110919
0.110608
0.110298
0.109988
0.109678
0.109369
0.10906
0.108752
0.108444
0.108137
0.107831
0.107525
0.107219
0.106915
0.106611
0.106308
0.106005
0.127736
0.145978
0.134681
0.130676
0.12901
0.128175
0.127698
0.127394
0.127181
0.127018
0.126881
0.126758
0.126641
0.126526
0.126409
0.126287
0.126161
0.126029
0.12589
0.125745
0.125592
0.125433
0.125267
0.125095
0.124916
0.12473
0.124538
0.12434
0.124137
0.123928
0.123713
0.123493
0.123268
0.123038
0.122803
0.122564
0.122321
0.122073
0.121821
0.121566
0.121306
0.121044
0.120777
0.120508
0.120236
0.11996
0.119682
0.119401
0.119118
0.118832
0.118543
0.118253
0.117961
0.117667
0.117371
0.117073
0.116774
0.116473
0.116171
0.115867
0.115563
0.115257
0.114951
0.114644
0.114336
0.114027
0.113718
0.113408
0.113098
0.112787
0.112476
0.112165
0.111854
0.111544
0.111233
0.110922
0.110611
0.110301
0.109991
0.109681
0.109372
0.109063
0.108755
0.108447
0.10814
0.107833
0.107527
0.107222
0.106917
0.106614
0.10631
0.106008
0.127751
0.145975
0.134675
0.130668
0.129002
0.128167
0.127691
0.127389
0.127177
0.127015
0.126879
0.126757
0.126641
0.126526
0.126409
0.126288
0.126162
0.12603
0.125892
0.125747
0.125595
0.125436
0.125271
0.125098
0.124919
0.124734
0.124542
0.124345
0.124141
0.123932
0.123718
0.123498
0.123273
0.123043
0.122809
0.122569
0.122326
0.122078
0.121827
0.121571
0.121312
0.121049
0.120783
0.120514
0.120241
0.119965
0.119687
0.119406
0.119123
0.118837
0.118549
0.118258
0.117966
0.117671
0.117375
0.117077
0.116778
0.116477
0.116175
0.115872
0.115567
0.115261
0.114955
0.114648
0.114339
0.114031
0.113721
0.113411
0.113101
0.112791
0.11248
0.112169
0.111858
0.111547
0.111236
0.110925
0.110614
0.110304
0.109994
0.109684
0.109375
0.109066
0.108757
0.10845
0.108142
0.107836
0.10753
0.107225
0.10692
0.106616
0.106313
0.106011
0.127764
0.145973
0.13467
0.130662
0.128994
0.128159
0.127684
0.127383
0.127173
0.127012
0.126877
0.126756
0.12664
0.126526
0.126409
0.126289
0.126163
0.126031
0.125893
0.125749
0.125597
0.125438
0.125273
0.125101
0.124922
0.124737
0.124546
0.124349
0.124145
0.123936
0.123722
0.123502
0.123278
0.123048
0.122813
0.122574
0.122331
0.122083
0.121832
0.121576
0.121317
0.121054
0.120788
0.120519
0.120246
0.119971
0.119692
0.119411
0.119128
0.118842
0.118553
0.118263
0.11797
0.117676
0.11738
0.117082
0.116783
0.116482
0.116179
0.115876
0.115571
0.115265
0.114959
0.114651
0.114343
0.114034
0.113725
0.113415
0.113105
0.112794
0.112483
0.112172
0.111861
0.11155
0.111239
0.110928
0.110617
0.110307
0.109997
0.109687
0.109378
0.109069
0.10876
0.108452
0.108145
0.107839
0.107533
0.107227
0.106923
0.106619
0.106316
0.106013
0.127775
0.145972
0.134666
0.130657
0.128988
0.128153
0.127678
0.127378
0.127169
0.127009
0.126875
0.126754
0.126639
0.126525
0.126409
0.126289
0.126163
0.126032
0.125894
0.12575
0.125598
0.12544
0.125275
0.125103
0.124925
0.12474
0.124549
0.124352
0.124149
0.12394
0.123726
0.123506
0.123282
0.123052
0.122818
0.122579
0.122335
0.122088
0.121836
0.121581
0.121322
0.121059
0.120793
0.120523
0.120251
0.119975
0.119697
0.119416
0.119132
0.118846
0.118558
0.118268
0.117975
0.117681
0.117384
0.117086
0.116787
0.116486
0.116184
0.11588
0.115575
0.115269
0.114963
0.114655
0.114347
0.114038
0.113728
0.113418
0.113108
0.112797
0.112486
0.112175
0.111864
0.111553
0.111242
0.110931
0.11062
0.11031
0.11
0.10969
0.10938
0.109072
0.108763
0.108455
0.108148
0.107841
0.107536
0.10723
0.106926
0.106622
0.106318
0.106016
0.127785
0.145971
0.134664
0.130653
0.128982
0.128147
0.127672
0.127373
0.127164
0.127005
0.126872
0.126752
0.126637
0.126524
0.126408
0.126288
0.126163
0.126032
0.125895
0.125751
0.1256
0.125442
0.125277
0.125105
0.124927
0.124742
0.124552
0.124355
0.124152
0.123943
0.123729
0.12351
0.123285
0.123056
0.122822
0.122583
0.12234
0.122092
0.121841
0.121585
0.121326
0.121063
0.120797
0.120528
0.120255
0.11998
0.119702
0.119421
0.119137
0.118851
0.118563
0.118272
0.117979
0.117685
0.117389
0.117091
0.116791
0.11649
0.116188
0.115884
0.115579
0.115273
0.114967
0.114659
0.114351
0.114042
0.113732
0.113422
0.113112
0.112801
0.11249
0.112179
0.111867
0.111556
0.111245
0.110934
0.110623
0.110313
0.110003
0.109693
0.109383
0.109074
0.108766
0.108458
0.108151
0.107844
0.107538
0.107233
0.127794
0.145971
0.134662
0.13065
0.128978
0.128141
0.127666
0.127367
0.12716
0.127001
0.126868
0.126749
0.126635
0.126522
0.126407
0.126288
0.126163
0.126032
0.125895
0.125751
0.1256
0.125443
0.125278
0.125107
0.124929
0.124744
0.124554
0.124357
0.124154
0.123946
0.123732
0.123513
0.123288
0.123059
0.122825
0.122586
0.122343
0.122096
0.121845
0.121589
0.12133
0.121068
0.120801
0.120532
0.12026
0.119984
0.119706
0.119425
0.119141
0.118855
0.118567
0.118276
0.117984
0.117689
0.117393
0.117095
0.116795
0.116494
0.116192
0.115888
0.115583
0.115277
0.11497
0.114663
0.114354
0.114045
0.113736
0.113426
0.113115
0.112804
0.112493
0.112182
0.111871
0.111559
0.111248
0.110937
0.110626
0.110316
0.110006
0.109696
0.109386
0.109077
0.108769
0.108461
0.108154
0.107847
0.107541
0.107236
0.127801
0.145971
0.134661
0.130647
0.128974
0.128137
0.127662
0.127363
0.127155
0.126997
0.126865
0.126746
0.126633
0.12652
0.126406
0.126287
0.126162
0.126032
0.125895
0.125751
0.125601
0.125443
0.125279
0.125108
0.12493
0.124746
0.124555
0.124359
0.124156
0.123948
0.123735
0.123516
0.123291
0.123062
0.122828
0.12259
0.122347
0.122099
0.121848
0.121593
0.121334
0.121071
0.120805
0.120536
0.120264
0.119988
0.11971
0.119429
0.119145
0.118859
0.118571
0.11828
0.117988
0.117693
0.117397
0.117099
0.116799
0.116498
0.116196
0.115892
0.115587
0.115281
0.114974
0.114666
0.114358
0.114049
0.113739
0.113429
0.113118
0.112808
0.112497
0.112185
0.111874
0.111563
0.111251
0.11094
0.11063
0.110319
0.110009
0.109699
0.109389
0.10908
0.108772
0.108464
0.108157
0.10785
0.107544
0.107239
0.127808
0.145972
0.134661
0.130646
0.128971
0.128133
0.127657
0.127358
0.127151
0.126993
0.126862
0.126743
0.126631
0.126518
0.126404
0.126285
0.126161
0.126031
0.125895
0.125751
0.125601
0.125444
0.12528
0.125109
0.124931
0.124747
0.124557
0.124361
0.124158
0.12395
0.123737
0.123518
0.123294
0.123065
0.122831
0.122593
0.12235
0.122103
0.121851
0.121596
0.121337
0.121075
0.120809
0.12054
0.120267
0.119992
0.119714
0.119433
0.119149
0.118863
0.118575
0.118284
0.117992
0.117697
0.117401
0.117103
0.116803
0.116502
0.116199
0.115896
0.115591
0.115285
0.114978
0.11467
0.114362
0.114052
0.113743
0.113432
0.113122
0.112811
0.1125
0.112189
0.111877
0.111566
0.111255
0.110944
0.110633
0.110322
0.110012
0.109702
0.109392
0.109083
0.108775
0.108467
0.10816
0.127815
0.145972
0.134661
0.130645
0.128969
0.12813
0.127653
0.127354
0.127147
0.126989
0.126858
0.12674
0.126628
0.126516
0.126402
0.126284
0.12616
0.126031
0.125894
0.125751
0.125601
0.125444
0.12528
0.125109
0.124932
0.124748
0.124558
0.124362
0.12416
0.123952
0.123739
0.12352
0.123296
0.123067
0.122834
0.122595
0.122352
0.122105
0.121854
0.121599
0.12134
0.121078
0.120812
0.120543
0.120271
0.119995
0.119717
0.119436
0.119153
0.118867
0.118578
0.118288
0.117995
0.117701
0.117404
0.117106
0.116807
0.116505
0.116203
0.115899
0.115594
0.115288
0.114981
0.114674
0.114365
0.114056
0.113746
0.113436
0.113125
0.112814
0.112503
0.112192
0.11188
0.111569
0.111258
0.110947
0.110636
0.110325
0.110015
0.109705
0.109395
0.109086
0.108778
0.10847
0.108163
0.127821
0.145973
0.134661
0.130644
0.128968
0.128127
0.12765
0.12735
0.127143
0.126986
0.126855
0.126737
0.126625
0.126514
0.1264
0.126282
0.126159
0.126029
0.125893
0.12575
0.125601
0.125444
0.12528
0.12511
0.124933
0.124749
0.124559
0.124363
0.124161
0.123954
0.12374
0.123522
0.123298
0.123069
0.122836
0.122598
0.122355
0.122108
0.121857
0.121602
0.121343
0.121081
0.120815
0.120546
0.120274
0.119999
0.11972
0.11944
0.119156
0.11887
0.118582
0.118291
0.117999
0.117704
0.117408
0.11711
0.11681
0.116509
0.116207
0.115903
0.115598
0.115292
0.114985
0.114677
0.114369
0.114059
0.11375
0.113439
0.113129
0.112818
0.112506
0.112195
0.111884
0.111572
0.111261
0.11095
0.110639
0.110328
0.110018
0.109708
0.109398
0.109089
0.108781
0.108473
0.108166
0.127826
0.145974
0.134662
0.130645
0.128967
0.128125
0.127647
0.127347
0.12714
0.126982
0.126851
0.126734
0.126623
0.126511
0.126398
0.12628
0.126157
0.126028
0.125892
0.12575
0.1256
0.125444
0.12528
0.12511
0.124933
0.12475
0.12456
0.124364
0.124162
0.123955
0.123742
0.123523
0.1233
0.123071
0.122838
0.1226
0.122357
0.12211
0.12186
0.121605
0.121346
0.121084
0.120818
0.120549
0.120277
0.120002
0.119724
0.119443
0.119159
0.118873
0.118585
0.118295
0.118002
0.117708
0.117411
0.117113
0.116814
0.116512
0.11621
0.115906
0.115601
0.115295
0.114988
0.11468
0.114372
0.114063
0.113753
0.113443
0.113132
0.112821
0.11251
0.112198
0.111887
0.111575
0.111264
0.110953
0.110642
0.110331
0.110021
0.109711
0.109401
0.109093
0.108784
0.108476
0.108169
0.127831
0.145975
0.134663
0.130645
0.128966
0.128124
0.127645
0.127344
0.127136
0.126979
0.126848
0.126731
0.12662
0.126509
0.126396
0.126279
0.126156
0.126027
0.125891
0.125749
0.1256
0.125443
0.12528
0.12511
0.124933
0.12475
0.124561
0.124365
0.124163
0.123956
0.123743
0.123525
0.123301
0.123073
0.12284
0.122602
0.122359
0.122113
0.121862
0.121607
0.121349
0.121086
0.120821
0.120552
0.12028
0.120005
0.119726
0.119446
0.119162
0.118876
0.118588
0.118298
0.118005
0.117711
0.117415
0.117116
0.116817
0.116516
0.116213
0.115909
0.115605
0.115299
0.114992
0.114684
0.114375
0.114066
0.113756
0.113446
0.113135
0.112824
0.112513
0.112202
0.11189
0.111579
0.111267
0.110956
0.110645
0.110334
0.110024
0.109714
0.109405
0.109096
0.108787
0.108479
0.108172
0.127835
0.145976
0.134664
0.130646
0.128966
0.128123
0.127643
0.127342
0.127133
0.126976
0.126845
0.126728
0.126617
0.126506
0.126393
0.126276
0.126154
0.126025
0.12589
0.125748
0.125599
0.125443
0.12528
0.12511
0.124933
0.12475
0.124561
0.124366
0.124164
0.123957
0.123744
0.123526
0.123303
0.123075
0.122841
0.122604
0.122361
0.122115
0.121864
0.121609
0.121351
0.121089
0.120823
0.120554
0.120282
0.120007
0.119729
0.119449
0.119165
0.118879
0.118591
0.118301
0.118008
0.117714
0.117418
0.11712
0.11682
0.116519
0.116216
0.115913
0.115608
0.115302
0.114995
0.114687
0.114378
0.114069
0.113759
0.113449
0.113138
0.112827
0.112516
0.112205
0.111893
0.111582
0.11127
0.110959
0.110648
0.110338
0.110027
0.109717
0.109408
0.109099
0.10879
0.108482
0.108175
0.12784
0.145977
0.134665
0.130646
0.128966
0.128122
0.127642
0.127339
0.127131
0.126973
0.126842
0.126725
0.126614
0.126504
0.126391
0.126274
0.126152
0.126024
0.125889
0.125747
0.125598
0.125442
0.125279
0.125109
0.124933
0.12475
0.124561
0.124366
0.124165
0.123958
0.123745
0.123527
0.123304
0.123076
0.122843
0.122605
0.122363
0.122117
0.121866
0.121611
0.121353
0.121091
0.120826
0.120557
0.120285
0.12001
0.119732
0.119451
0.119168
0.118882
0.118594
0.118304
0.118011
0.117717
0.117421
0.117123
0.116823
0.116522
0.11622
0.115916
0.115611
0.115305
0.114998
0.11469
0.114382
0.114072
0.113763
0.113452
0.113142
0.11283
0.112519
0.112208
0.111896
0.111585
0.111274
0.110962
0.110651
0.110341
0.11003
0.10972
0.109411
0.109102
0.108793
0.108485
0.108178
0.127844
0.145978
0.134666
0.130647
0.128967
0.128122
0.12764
0.127338
0.127129
0.12697
0.126839
0.126722
0.126611
0.126501
0.126389
0.126272
0.12615
0.126022
0.125887
0.125745
0.125597
0.125441
0.125278
0.125109
0.124933
0.12475
0.124561
0.124366
0.124165
0.123958
0.123746
0.123528
0.123305
0.123077
0.122844
0.122607
0.122365
0.122118
0.121868
0.121613
0.121355
0.121093
0.120828
0.120559
0.120287
0.120012
0.119734
0.119454
0.119171
0.118885
0.118597
0.118306
0.118014
0.11772
0.117424
0.117126
0.116826
0.116525
0.116223
0.115919
0.115614
0.115308
0.115001
0.114693
0.114385
0.114075
0.113766
0.113455
0.113145
0.112834
0.112522
0.112211
0.111899
0.111588
0.111277
0.110965
0.110654
0.110344
0.110033
0.109724
0.109414
0.109105
0.108796
0.108488
0.108181
0.127848
0.145978
0.134667
0.130649
0.128968
0.128122
0.12764
0.127336
0.127127
0.126968
0.126837
0.12672
0.126609
0.126498
0.126386
0.12627
0.126148
0.12602
0.125885
0.125744
0.125595
0.12544
0.125278
0.125108
0.124933
0.12475
0.124561
0.124366
0.124166
0.123959
0.123747
0.123529
0.123306
0.123078
0.122845
0.122608
0.122366
0.12212
0.121869
0.121615
0.121357
0.121095
0.12083
0.120561
0.120289
0.120014
0.119737
0.119456
0.119173
0.118887
0.118599
0.118309
0.118017
0.117722
0.117426
0.117128
0.116829
0.116528
0.116225
0.115922
0.115617
0.115311
0.115004
0.114696
0.114388
0.114078
0.113769
0.113458
0.113148
0.112837
0.112525
0.112214
0.111903
0.111591
0.11128
0.110969
0.110658
0.110347
0.110037
0.109727
0.109417
0.109108
0.1088
0.108491
0.108184
0.127852
0.145979
0.134668
0.13065
0.128968
0.128122
0.127639
0.127335
0.127125
0.126966
0.126834
0.126717
0.126606
0.126496
0.126384
0.126267
0.126146
0.126018
0.125884
0.125742
0.125594
0.125439
0.125277
0.125108
0.124932
0.12475
0.124561
0.124366
0.124166
0.123959
0.123747
0.12353
0.123307
0.123079
0.122846
0.122609
0.122367
0.122121
0.121871
0.121617
0.121359
0.121097
0.120832
0.120563
0.120291
0.120017
0.119739
0.119458
0.119175
0.11889
0.118602
0.118312
0.118019
0.117725
0.117429
0.117131
0.116832
0.116531
0.116228
0.115925
0.11562
0.115314
0.115007
0.114699
0.114391
0.114081
0.113772
0.113461
0.113151
0.11284
0.112528
0.112217
0.111906
0.111594
0.111283
0.110972
0.110661
0.11035
0.11004
0.10973
0.10942
0.109111
0.108803
0.108494
0.108187
0.127855
0.14598
0.134669
0.130651
0.128969
0.128122
0.127639
0.127334
0.127124
0.126964
0.126832
0.126715
0.126604
0.126493
0.126381
0.126265
0.126144
0.126016
0.125882
0.125741
0.125593
0.125438
0.125276
0.125107
0.124931
0.124749
0.124561
0.124366
0.124166
0.123959
0.123747
0.12353
0.123307
0.12308
0.122847
0.12261
0.122368
0.122122
0.121872
0.121618
0.12136
0.121099
0.120834
0.120565
0.120293
0.120019
0.119741
0.119461
0.119178
0.118892
0.118604
0.118314
0.118022
0.117728
0.117432
0.117134
0.116834
0.116533
0.116231
0.115927
0.115623
0.115317
0.11501
0.114702
0.114394
0.114084
0.113775
0.113464
0.113154
0.112843
0.112531
0.11222
0.111909
0.111597
0.111286
0.110975
0.110664
0.110353
0.110043
0.109733
0.109423
0.109114
0.108806
0.108497
0.10819
0.127859
0.14598
0.13467
0.130652
0.12897
0.128123
0.127639
0.127334
0.127123
0.126963
0.12683
0.126713
0.126601
0.126491
0.126379
0.126263
0.126141
0.126014
0.12588
0.125739
0.125591
0.125436
0.125274
0.125106
0.124931
0.124749
0.12456
0.124366
0.124166
0.12396
0.123748
0.12353
0.123308
0.123081
0.122848
0.122611
0.12237
0.122124
0.121874
0.12162
0.121362
0.1211
0.120835
0.120567
0.120295
0.120021
0.119743
0.119463
0.11918
0.118894
0.118606
0.118316
0.118024
0.11773
0.117434
0.117136
0.116837
0.116536
0.116234
0.11593
0.115625
0.115319
0.115013
0.114705
0.114396
0.114087
0.113777
0.113467
0.113157
0.112846
0.112534
0.112223
0.111912
0.1116
0.111289
0.110978
0.110667
0.110356
0.110046
0.109736
0.109426
0.109117
0.108809
0.1085
0.108193
0.127862
0.145981
0.134671
0.130653
0.128971
0.128124
0.12764
0.127334
0.127122
0.126961
0.126829
0.126711
0.126599
0.126489
0.126377
0.12626
0.126139
0.126012
0.125878
0.125737
0.125589
0.125435
0.125273
0.125105
0.12493
0.124748
0.12456
0.124366
0.124166
0.123959
0.123748
0.123531
0.123308
0.123081
0.122849
0.122612
0.122371
0.122125
0.121875
0.121621
0.121363
0.121102
0.120837
0.120569
0.120297
0.120022
0.119745
0.119465
0.119182
0.118896
0.118609
0.118319
0.118026
0.117732
0.117436
0.117139
0.116839
0.116538
0.116236
0.115933
0.115628
0.115322
0.115015
0.114708
0.114399
0.11409
0.11378
0.11347
0.113159
0.112849
0.112537
0.112226
0.111915
0.111603
0.111292
0.110981
0.11067
0.110359
0.110049
0.109739
0.10943
0.10912
0.108812
0.108503
0.108196
0.127866
0.145981
0.134672
0.130654
0.128972
0.128125
0.12764
0.127334
0.127121
0.12696
0.126827
0.126709
0.126597
0.126487
0.126374
0.126258
0.126137
0.12601
0.125876
0.125735
0.125588
0.125433
0.125272
0.125104
0.124929
0.124747
0.124559
0.124365
0.124165
0.123959
0.123748
0.123531
0.123309
0.123082
0.122849
0.122613
0.122371
0.122126
0.121876
0.121622
0.121364
0.121103
0.120838
0.12057
0.120299
0.120024
0.119747
0.119467
0.119184
0.118898
0.118611
0.118321
0.118029
0.117735
0.117439
0.117141
0.116842
0.116541
0.116239
0.115935
0.11563
0.115325
0.115018
0.11471
0.114402
0.114093
0.113783
0.113473
0.113162
0.112851
0.11254
0.112229
0.111918
0.111606
0.111295
0.110984
0.110673
0.110362
0.110052
0.109742
0.109433
0.109123
0.108815
0.108506
0.108199
0.127869
0.145981
0.134673
0.130655
0.128974
0.128126
0.127641
0.127334
0.127121
0.126959
0.126826
0.126707
0.126595
0.126485
0.126372
0.126256
0.126135
0.126008
0.125874
0.125733
0.125586
0.125432
0.12527
0.125102
0.124928
0.124746
0.124559
0.124365
0.124165
0.123959
0.123748
0.123531
0.123309
0.123082
0.12285
0.122613
0.122372
0.122127
0.121877
0.121623
0.121366
0.121104
0.12084
0.120572
0.1203
0.120026
0.119749
0.119468
0.119186
0.1189
0.118613
0.118323
0.118031
0.117737
0.117441
0.117143
0.116844
0.116543
0.116241
0.115938
0.115633
0.115327
0.115021
0.114713
0.114405
0.114095
0.113786
0.113476
0.113165
0.112854
0.112543
0.112232
0.111921
0.111609
0.111298
0.110987
0.110676
0.110366
0.110055
0.109745
0.109436
0.109127
0.108818
0.108509
0.108202
0.127872
0.145981
0.134673
0.130656
0.128975
0.128126
0.127641
0.127334
0.127121
0.126959
0.126825
0.126706
0.126594
0.126483
0.12637
0.126254
0.126133
0.126006
0.125872
0.125732
0.125584
0.12543
0.125269
0.125101
0.124926
0.124745
0.124558
0.124364
0.124164
0.123959
0.123748
0.123531
0.123309
0.123082
0.12285
0.122614
0.122373
0.122127
0.121878
0.121624
0.121367
0.121106
0.120841
0.120573
0.120302
0.120027
0.11975
0.11947
0.119187
0.118902
0.118615
0.118325
0.118033
0.117739
0.117443
0.117146
0.116846
0.116546
0.116244
0.11594
0.115635
0.11533
0.115023
0.114716
0.114407
0.114098
0.113789
0.113478
0.113168
0.112857
0.112546
0.112235
0.111924
0.111612
0.111301
0.11099
0.110679
0.110369
0.110058
0.109748
0.109439
0.10913
0.108821
0.108513
0.108205
0.127876
0.145981
0.134674
0.130657
0.128976
0.128127
0.127642
0.127334
0.127121
0.126958
0.126824
0.126705
0.126592
0.126481
0.126368
0.126252
0.126131
0.126004
0.12587
0.12573
0.125582
0.125428
0.125267
0.1251
0.124925
0.124744
0.124557
0.124363
0.124164
0.123958
0.123747
0.123531
0.123309
0.123082
0.122851
0.122614
0.122373
0.122128
0.121879
0.121625
0.121368
0.121107
0.120842
0.120574
0.120303
0.120029
0.119752
0.119472
0.119189
0.118904
0.118617
0.118327
0.118035
0.117741
0.117445
0.117148
0.116849
0.116548
0.116246
0.115942
0.115638
0.115332
0.115026
0.114718
0.11441
0.114101
0.113791
0.113481
0.113171
0.11286
0.112549
0.112238
0.111927
0.111615
0.111304
0.110993
0.110682
0.110372
0.110061
0.109751
0.109442
0.109133
0.108824
0.108516
0.127879
0.145981
0.134674
0.130658
0.128976
0.128128
0.127643
0.127335
0.127121
0.126958
0.126824
0.126704
0.126591
0.12648
0.126367
0.12625
0.126129
0.126002
0.125868
0.125728
0.125581
0.125427
0.125266
0.125098
0.124924
0.124743
0.124556
0.124362
0.124163
0.123958
0.123747
0.123531
0.123309
0.123082
0.122851
0.122615
0.122374
0.122129
0.121879
0.121626
0.121369
0.121108
0.120843
0.120576
0.120304
0.12003
0.119753
0.119473
0.119191
0.118906
0.118618
0.118329
0.118037
0.117743
0.117447
0.11715
0.116851
0.11655
0.116248
0.115945
0.11564
0.115335
0.115028
0.114721
0.114412
0.114103
0.113794
0.113484
0.113174
0.112863
0.112552
0.112241
0.111929
0.111618
0.111307
0.110996
0.110685
0.110375
0.110065
0.109755
0.109445
0.109136
0.108827
0.108519
0.127882
0.145981
0.134674
0.130658
0.128977
0.128129
0.127643
0.127335
0.127121
0.126958
0.126823
0.126703
0.12659
0.126478
0.126365
0.126249
0.126127
0.126
0.125866
0.125726
0.125579
0.125425
0.125264
0.125097
0.124922
0.124742
0.124555
0.124361
0.124162
0.123957
0.123746
0.12353
0.123309
0.123082
0.122851
0.122615