/*--------------------------------*- C++ -*----------------------------------*\
  =========                 |
  \\      /  F ield         | OpenFOAM: The Open Source CFD Toolbox
   \\    /   O peration     | Website:  https://openfoam.org
    \\  /    A nd           | Version:  10
     \\/     M anipulation  |
\*---------------------------------------------------------------------------*/
FoamFile
{
    format      ascii;
    class       volScalarField;
    location    "23000";
    object      omega;
}
// * * * * * * * * * * * * * * * * * * * * * * * * * * * * * * * * * * * * * //

dimensions      [0 0 -1 0 0 0 0];

internalField   nonuniform List<scalar> 
17808
(
12888
5191.52
2963.17
2035.83
1537.14
1228.49
1019.49
868.927
755.421
666.851
595.843
537.661
489.126
448.029
412.785
382.231
355.49
331.893
310.918
292.152
275.264
259.987
246.103
233.429
221.816
211.136
201.281
192.161
183.697
175.822
168.476
161.61
155.177
149.139
143.462
138.114
133.068
128.3
123.788
119.513
115.457
111.604
107.94
104.452
101.127
97.9562
94.9281
92.0343
89.2665
86.6171
84.079
81.6459
79.3118
77.0712
74.919
72.8505
70.8613
68.9473
67.1048
65.3301
63.62
61.9714
60.3813
58.8472
57.3663
55.9364
54.5552
53.2206
51.9307
50.6837
49.4776
48.311
47.1821
46.0895
45.0319
44.0078
43.0161
42.0555
41.1249
40.2232
39.3495
38.5028
37.6821
36.8867
36.1156
35.3681
34.6435
33.941
33.2601
32.6
31.9601
31.34
12886.1
5191.37
2964.49
2037.25
1538.38
1229.5
1020.31
869.588
755.959
667.293
596.208
537.965
489.382
448.245
412.97
382.389
355.626
332.011
311.02
292.241
275.342
260.056
246.163
233.483
221.863
211.178
201.319
192.195
183.727
175.849
168.5
161.631
155.196
149.157
143.477
138.128
133.081
128.312
123.799
119.523
115.466
111.612
107.947
104.458
101.133
97.9616
94.9331
92.0389
89.2707
86.6209
84.0826
81.6492
79.3148
77.074
74.9216
72.8529
70.8635
68.9494
67.1066
65.3318
63.6216
61.9729
60.3828
58.8485
57.3676
55.9376
54.5563
53.2217
51.9318
50.6847
49.4786
48.3119
47.183
46.0904
45.0327
44.0086
43.0168
42.0562
41.1256
40.2239
39.3502
38.5035
37.6828
36.8873
36.1162
35.3687
34.6441
33.9416
33.2607
32.6005
31.9607
31.3405
12887.2
5190.55
2965.19
2037.96
1539
1230.03
1020.77
869.974
756.289
667.577
596.454
538.179
489.568
448.409
413.113
382.515
355.738
332.11
311.108
292.318
275.411
260.117
246.218
233.531
221.907
211.217
201.354
192.226
183.756
175.874
168.523
161.652
155.215
149.173
143.493
138.142
133.093
128.323
123.809
119.532
115.474
111.62
107.954
104.465
101.139
97.9669
94.938
92.0433
89.2748
86.6246
84.086
81.6523
79.3177
77.0766
74.924
72.8551
70.8655
68.9512
67.1084
65.3335
63.6231
61.9743
60.3841
58.8497
57.3687
55.9387
54.5573
53.2227
51.9327
50.6855
49.4794
48.3126
47.1837
46.0911
45.0334
44.0092
43.0174
42.0568
41.1262
40.2245
39.3508
38.504
37.6833
36.8878
36.1167
35.3692
34.6446
33.9421
33.2611
32.601
31.9612
31.341
12888.3
5189.7
2965.65
2038.45
1539.44
1230.42
1021.1
870.254
756.528
667.783
596.635
538.338
489.709
448.534
413.225
382.616
355.828
332.191
311.181
292.384
275.47
260.171
246.266
233.575
221.946
211.252
201.386
192.255
183.782
175.898
168.545
161.672
155.233
149.19
143.507
138.155
133.105
128.334
123.819
119.541
115.483
111.628
107.961
104.471
101.145
97.9723
94.9429
92.0478
89.2789
86.6284
84.0894
81.6555
79.3206
77.0793
74.9265
72.8574
70.8677
68.9532
67.1102
65.3351
63.6247
61.9757
60.3854
58.851
57.3699
55.9398
54.5584
53.2237
51.9336
50.6864
49.4802
48.3134
47.1844
46.0918
45.034
44.0099
43.0181
42.0574
41.1267
40.2251
39.3513
38.5045
37.6838
36.8883
36.1172
35.3697
34.6451
33.9426
33.2616
32.6015
31.9616
31.3415
12889.5
5188.51
2965.71
2038.65
1539.7
1230.68
1021.33
870.458
756.706
667.939
596.772
538.46
489.819
448.633
413.314
382.696
355.901
332.258
311.241
292.44
275.521
260.217
246.308
233.614
221.981
211.284
201.415
192.282
183.806
175.92
168.565
161.69
155.25
149.205
143.522
138.168
133.117
128.345
123.829
119.55
115.491
111.635
107.968
104.478
101.151
97.9777
94.9478
92.0524
89.2831
86.6323
84.093
81.6587
79.3236
77.0821
74.929
72.8597
70.8698
68.9552
67.1121
65.3369
63.6263
61.9772
60.3868
58.8522
57.3711
55.9409
54.5595
53.2247
51.9346
50.6873
49.4811
48.3142
47.1852
46.0925
45.0347
44.0105
43.0187
42.058
41.1273
40.2256
39.3518
38.5051
37.6843
36.8888
36.1177
35.3702
34.6456
33.9431
33.2621
32.602
31.9621
31.3419
12890.9
5187.26
2965.54
2038.67
1539.82
1230.83
1021.48
870.596
756.831
668.051
596.873
538.551
489.902
448.709
413.384
382.76
355.96
332.312
311.292
292.486
275.563
260.256
246.345
233.647
222.012
211.313
201.441
192.306
183.829
175.941
168.584
161.708
155.266
149.22
143.535
138.18
133.129
128.355
123.839
119.559
115.499
111.643
107.975
104.484
101.157
97.9831
94.9528
92.0569
89.2873
86.6361
84.0965
81.662
79.3266
77.0848
74.9316
72.8621
70.872
68.9572
67.114
65.3386
63.6279
61.9787
60.3882
58.8535
57.3723
55.942
54.5605
53.2257
51.9355
50.6882
49.4819
48.315
47.186
46.0932
45.0354
44.0112
43.0193
42.0586
41.1279
40.2262
39.3524
38.5056
37.6849
36.8893
36.1182
35.3707
34.646
33.9435
33.2626
32.6024
31.9626
31.3424
12892.4
5186.12
2965.28
2038.62
1539.87
1230.92
1021.58
870.693
756.92
668.133
596.948
538.62
489.965
448.767
413.438
382.811
356.007
332.356
311.332
292.524
275.599
260.289
246.376
233.676
222.039
211.338
201.465
192.328
183.849
175.959
168.601
161.723
155.281
149.234
143.548
138.192
133.139
128.365
123.848
119.568
115.507
111.65
107.982
104.49
101.163
97.9884
94.9577
92.0615
89.2914
86.64
84.1001
81.6653
79.3297
77.0877
74.9342
72.8645
70.8743
68.9593
67.1159
65.3404
63.6296
61.9803
60.3896
58.8549
57.3736
55.9432
54.5616
53.2267
51.9365
50.6891
49.4828
48.3159
47.1868
46.094
45.0361
44.0119
43.02
42.0592
41.1285
40.2267
39.3529
38.5061
37.6854
36.8898
36.1187
35.3712
34.6465
33.944
33.263
32.6029
31.963
31.3428
12893.8
5185.13
2964.97
2038.54
1539.89
1230.97
1021.65
870.764
756.988
668.195
597.005
538.673
490.014
448.813
413.481
382.851
356.045
332.391
311.366
292.555
275.629
260.317
246.402
233.7
222.062
211.359
201.485
192.347
183.866
175.976
168.617
161.738
155.294
149.246
143.559
138.203
133.15
128.375
123.857
119.576
115.515
111.657
107.989
104.496
101.168
97.9935
94.9625
92.0659
89.2955
86.6438
84.1036
81.6686
79.3327
77.0905
74.9368
72.867
70.8765
68.9614
67.1178
65.3422
63.6312
61.9818
60.3911
58.8563
57.3748
55.9444
54.5628
53.2278
51.9375
50.6901
49.4837
48.3167
47.1876
46.0947
45.0368
44.0125
43.0206
42.0598
41.1291
40.2273
39.3535
38.5067
37.6859
36.8904
36.1192
35.3717
34.647
33.9445
33.2635
32.6033
31.9635
31.3433
12895
5184.27
2964.64
2038.42
1539.87
1230.99
1021.69
870.814
757.038
668.243
597.049
538.714
490.052
448.849
413.515
382.883
356.076
332.42
311.393
292.581
275.653
260.341
246.424
233.721
222.082
211.378
201.502
192.363
183.882
175.991
168.631
161.751
155.306
149.258
143.57
138.213
133.159
128.384
123.865
119.584
115.522
111.664
107.995
104.502
101.174
97.9985
94.9671
92.0702
89.2996
86.6475
84.1071
81.6718
79.3357
77.0933
74.9394
72.8694
70.8788
68.9635
67.1198
65.344
63.6329
61.9834
60.3925
58.8576
57.3761
55.9456
54.5639
53.2289
51.9386
50.691
49.4846
48.3176
47.1884
46.0955
45.0376
44.0132
43.0213
42.0604
41.1297
40.2279
39.354
38.5072
37.6864
36.8909
36.1197
35.3721
34.6475
33.9449
33.2639
32.6038
31.9639
31.3437
12896.2
5183.5
2964.29
2038.29
1539.82
1231
1021.71
870.848
757.075
668.279
597.083
538.746
490.082
448.877
413.542
382.909
356.1
332.444
311.416
292.603
275.674
260.36
246.443
233.739
222.099
211.394
201.518
192.378
183.896
176.004
168.643
161.763
155.317
149.268
143.58
138.222
133.168
128.392
123.873
119.591
115.529
111.67
108.001
104.507
101.179
98.0033
94.9716
92.0744
89.3035
86.6512
84.1105
81.675
79.3387
77.096
74.942
72.8718
70.881
68.9656
67.1217
65.3459
63.6346
61.985
60.394
58.859
57.3774
55.9469
54.5651
53.23
51.9396
50.692
49.4855
48.3184
47.1892
46.0963
45.0383
44.0139
43.0219
42.0611
41.1303
40.2285
39.3546
38.5077
37.6869
36.8914
36.1202
35.3726
34.6479
33.9454
33.2644
32.6042
31.9643
31.3442
12897.2
5182.83
2963.95
2038.15
1539.77
1230.98
1021.72
870.869
757.1
668.305
597.109
538.771
490.106
448.9
413.563
382.929
356.12
332.463
311.434
292.621
275.691
260.377
246.458
233.754
222.113
211.408
201.531
192.391
183.908
176.015
168.654
161.773
155.327
149.277
143.589
138.231
133.176
128.399
123.88
119.597
115.535
111.676
108.006
104.513
101.184
98.0079
94.9759
92.0784
89.3073
86.6547
84.1138
81.6781
79.3416
77.0988
74.9445
72.8742
70.8832
68.9677
67.1237
65.3477
63.6363
61.9866
60.3955
58.8604
57.3788
55.9481
54.5662
53.2311
51.9406
50.693
49.4864
48.3193
47.19
46.097
45.039
44.0146
43.0226
42.0617
41.1309
40.2291
39.3552
38.5083
37.6875
36.8919
36.1207
35.3731
34.6484
33.9459
33.2648
32.6047
31.9648
31.3446
12898.1
5182.25
2963.61
2038
1539.7
1230.96
1021.72
870.88
757.117
668.324
597.129
538.79
490.125
448.917
413.581
382.946
356.136
332.478
311.449
292.635
275.705
260.39
246.472
233.767
222.126
211.42
201.543
192.402
183.918
176.025
168.664
161.782
155.336
149.286
143.597
138.238
133.183
128.406
123.886
119.604
115.541
111.681
108.011
104.518
101.188
98.0123
94.98
92.0823
89.3109
86.6581
84.117
81.6811
79.3444
77.1014
74.947
72.8765
70.8854
68.9697
67.1256
65.3495
63.638
61.9882
60.397
58.8618
57.3801
55.9493
54.5674
53.2322
51.9417
50.694
49.4874
48.3202
47.1908
46.0978
45.0398
44.0153
43.0233
42.0624
41.1315
40.2296
39.3557
38.5088
37.688
36.8924
36.1212
35.3736
34.6489
33.9463
33.2653
32.6051
31.9652
31.345
12898.9
5181.75
2963.3
2037.86
1539.63
1230.92
1021.71
870.883
757.126
668.337
597.143
538.804
490.139
448.931
413.594
382.959
356.149
332.491
311.462
292.647
275.717
260.402
246.483
233.778
222.136
211.43
201.552
192.411
183.928
176.034
168.672
161.79
155.344
149.293
143.604
138.245
133.189
128.412
123.892
119.609
115.546
111.686
108.016
104.522
101.192
98.0164
94.9839
92.086
89.3143
86.6614
84.1201
81.684
79.3471
77.104
74.9494
72.8788
70.8876
68.9718
67.1275
65.3513
63.6397
61.9898
60.3985
58.8632
57.3814
55.9506
54.5686
53.2333
51.9427
50.695
49.4883
48.3211
47.1917
46.0986
45.0405
44.0161
43.024
42.063
41.1321
40.2302
39.3563
38.5094
37.6885
36.8929
36.1217
35.3741
34.6494
33.9468
33.2658
32.6056
31.9657
31.3455
12899.6
5181.31
2963
2037.71
1539.55
1230.88
1021.7
870.879
757.13
668.345
597.152
538.815
490.149
448.942
413.605
382.97
356.159
332.501
311.472
292.657
275.727
260.412
246.492
233.787
222.145
211.439
201.561
192.419
183.936
176.042
168.68
161.797
155.351
149.3
143.61
138.251
133.195
128.418
123.897
119.614
115.551
111.691
108.021
104.526
101.197
98.0202
94.9875
92.0894
89.3176
86.6645
84.123
81.6868
79.3498
77.1065
74.9518
72.881
70.8897
68.9737
67.1294
65.353
63.6414
61.9913
60.4
58.8646
57.3827
55.9518
54.5698
53.2344
51.9438
50.696
49.4893
48.322
47.1925
46.0994
45.0413
44.0168
43.0247
42.0637
41.1328
40.2309
39.3569
38.5099
37.6891
36.8934
36.1222
35.3746
34.6499
33.9473
33.2662
32.6061
31.9661
31.3459
12900.2
5180.92
2962.72
2037.57
1539.47
1230.84
1021.67
870.87
757.129
668.348
597.158
538.822
490.157
448.95
413.613
382.978
356.167
332.509
311.48
292.665
275.735
260.419
246.5
233.795
222.153
211.446
201.568
192.426
183.943
176.049
168.686
161.804
155.357
149.306
143.616
138.257
133.2
128.423
123.902
119.619
115.555
111.695
108.025
104.53
101.2
98.0238
94.9909
92.0927
89.3207
86.6674
84.1258
81.6894
79.3523
77.1089
74.9541
72.8831
70.8917
68.9757
67.1312
65.3547
63.643
61.9929
60.4014
58.866
57.384
55.9531
54.5709
53.2355
51.9448
50.697
49.4902
48.3229
47.1934
46.1003
45.0421
44.0175
43.0254
42.0644
41.1334
40.2315
39.3575
38.5105
37.6896
36.894
36.1227
35.3751
34.6504
33.9478
33.2667
32.6066
31.9666
31.3464
12900.7
5180.58
2962.47
2037.43
1539.39
1230.79
1021.65
870.856
757.123
668.347
597.161
538.826
490.162
448.956
413.619
382.984
356.174
332.516
311.486
292.672
275.741
260.426
246.507
233.801
222.159
211.453
201.574
192.433
183.949
176.055
168.692
161.809
155.362
149.311
143.621
138.262
133.205
128.428
123.907
119.623
115.559
111.699
108.029
104.534
101.204
98.0271
94.9941
92.0957
89.3236
86.6702
84.1285
81.692
79.3547
77.1111
74.9562
72.8852
70.8937
68.9775
67.133
65.3564
63.6446
61.9944
60.4029
58.8674
57.3853
55.9543
54.5721
53.2366
51.9459
50.698
49.4912
48.3238
47.1942
46.1011
45.0429
44.0183
43.0261
42.065
41.1341
40.2321
39.3581
38.5111
37.6902
36.8945
36.1233
35.3756
34.6509
33.9484
33.2674
32.6072
31.9672
31.3469
12901.2
5180.29
2962.23
2037.29
1539.31
1230.75
1021.62
870.839
757.115
668.344
597.16
538.827
490.165
448.959
413.623
382.988
356.178
332.521
311.491
292.677
275.747
260.432
246.512
233.807
222.165
211.458
201.58
192.438
183.954
176.06
168.697
161.814
155.367
149.316
143.626
138.266
133.21
128.432
123.911
119.627
115.563
111.703
108.032
104.537
101.207
98.0302
94.9971
92.0986
89.3264
86.6728
84.131
81.6943
79.357
77.1133
74.9583
72.8872
70.8956
68.9793
67.1347
65.358
63.6461
61.9958
60.4043
58.8687
57.3866
55.9555
54.5733
53.2377
51.9469
50.699
49.4921
48.3247
47.1951
46.1019
45.0436
44.019
43.0268
42.0657
41.1347
40.2327
39.3587
38.5117
37.6908
36.8951
36.1238
35.3762
34.6515
33.949
12901.6
5180.02
2962.01
2037.17
1539.23
1230.7
1021.59
870.82
757.103
668.338
597.157
538.827
490.166
448.961
413.625
382.992
356.182
332.524
311.495
292.681
275.751
260.436
246.517
233.812
222.169
211.463
201.584
192.442
183.958
176.064
168.701
161.819
155.371
149.32
143.63
138.27
133.213
128.436
123.914
119.631
115.567
111.706
108.035
104.54
101.21
98.0331
94.9999
92.1012
89.3289
86.6753
84.1333
81.6966
79.3591
77.1154
74.9603
72.8891
70.8974
68.981
67.1363
65.3596
63.6476
61.9973
60.4056
58.87
57.3878
55.9567
54.5744
53.2388
51.948
50.7
49.493
48.3256
47.1959
46.1027
45.0444
44.0198
43.0275
42.0664
41.1354
40.2333
39.3593
38.5123
37.6913
36.8956
36.1244
35.3768
34.6521
33.9496
12901.9
5179.79
2961.82
2037.05
1539.16
1230.65
1021.55
870.799
757.09
668.329
597.153
538.824
490.165
448.961
413.627
382.993
356.184
332.527
311.498
292.684
275.754
260.439
246.52
233.815
222.173
211.467
201.588
192.446
183.962
176.068
168.705
161.822
155.375
149.324
143.633
138.274
133.217
128.439
123.918
119.634
115.57
111.709
108.038
104.543
101.213
98.0358
95.0024
92.1037
89.3313
86.6776
84.1356
81.6987
79.3612
77.1174
74.9622
72.8909
70.8991
68.9827
67.1379
65.3611
63.6491
61.9987
60.407
58.8713
57.389
55.9579
54.5755
53.2399
51.949
50.7009
49.494
48.3265
47.1968
46.1035
45.0452
44.0205
43.0282
42.0671
41.136
40.234
39.3599
38.5129
37.6919
36.8963
36.125
35.3775
34.6528
33.9503
12902.2
5179.58
2961.64
2036.93
1539.09
1230.6
1021.52
870.777
757.074
668.319
597.146
538.82
490.163
448.96
413.627
382.994
356.185
332.529
311.5
292.687
275.757
260.442
246.523
233.818
222.176
211.47
201.592
192.45
183.966
176.071
168.709
161.826
155.378
149.327
143.637
138.277
133.22
128.442
123.921
119.637
115.573
111.712
108.041
104.546
101.215
98.0382
95.0048
92.106
89.3335
86.6797
84.1376
81.7007
79.3631
77.1192
74.964
72.8926
70.9008
68.9843
67.1394
65.3626
63.6505
62
60.4083
58.8725
57.3902
55.959
54.5766
53.2409
51.95
50.7019
49.4949
48.3273
47.1976
46.1043
45.046
44.0212
43.0289
42.0678
41.1367
40.2346
39.3605
38.5135
37.6926
36.8969
36.1258
12902.5
5179.39
2961.47
2036.83
1539.02
1230.56
1021.49
870.754
757.058
668.308
597.138
538.815
490.159
448.958
413.625
382.994
356.186
332.529
311.502
292.688
275.759
260.444
246.526
233.821
222.179
211.473
201.594
192.453
183.968
176.074
168.712
161.829
155.381
149.33
143.639
138.28
133.223
128.445
123.923
119.64
115.575
111.715
108.043
104.548
101.218
98.0405
95.007
92.1082
89.3356
86.6818
84.1396
81.7026
79.3649
77.121
74.9657
72.8943
70.9023
68.9858
67.1409
65.364
63.6519
62.0013
60.4095
58.8737
57.3914
55.9601
54.5777
53.242
51.951
50.7028
49.4958
48.3282
47.1985
46.1051
45.0467
44.022
43.0296
42.0685
41.1374
40.2353
39.3612
38.5141
37.6932
36.8976
36.1265
12902.8
5179.22
2961.32
2036.72
1538.95
1230.51
1021.46
870.731
757.041
668.295
597.129
538.808
490.155
448.955
413.623
382.992
356.185
332.529
311.502
292.689
275.76
260.446
246.527
233.823
222.181
211.475
201.597
192.455
183.971
176.077
168.714
161.831
155.384
149.332
143.642
138.282
133.225
128.447
123.926
119.642
115.578
111.717
108.046
104.551
101.22
98.0426
95.0091
92.1102
89.3376
86.6836
84.1414
81.7044
79.3667
77.1227
74.9673
72.8958
70.9039
68.9873
67.1423
65.3654
63.6532
62.0026
60.4107
58.8749
57.3925
55.9612
54.5787
53.243
51.9519
50.7038
49.4967
48.3291
47.1993
46.1059
45.0475
44.0227
43.0303
42.0692
41.138
40.2359
39.3618
38.5148
37.6939
36.8982
36.1271
12903
5179.06
2961.19
2036.63
1538.89
1230.47
1021.43
870.707
757.023
668.282
597.119
538.801
490.149
448.951
413.62
382.99
356.184
332.529
311.502
292.69
275.761
260.447
246.528
233.824
222.183
211.477
201.599
192.457
183.973
176.079
168.716
161.834
155.386
149.335
143.644
138.284
133.228
128.449
123.928
119.644
115.58
111.719
108.048
104.553
101.222
98.0446
95.011
92.112
89.3394
86.6854
84.1431
81.7061
79.3683
77.1242
74.9688
72.8973
70.9053
68.9887
67.1437
65.3667
63.6544
62.0038
60.4119
58.876
57.3936
55.9623
54.5797
53.244
51.9529
50.7047
49.4976
48.3299
47.2001
46.1067
45.0483
44.0235
43.0311
42.0699
41.1387
40.2366
39.3625
38.5154
37.6945
36.8989
36.1278
12903.2
5178.92
2961.06
2036.54
1538.83
1230.43
1021.4
870.684
757.005
668.268
597.108
538.792
490.142
448.946
413.617
382.988
356.182
332.527
311.501
292.689
275.761
260.447
246.529
233.825
222.184
211.478
201.6
192.459
183.975
176.081
168.718
161.835
155.388
149.337
143.646
138.286
133.23
128.451
123.93
119.646
115.582
111.721
108.05
104.554
101.224
98.0464
95.0128
92.1138
89.3411
86.6871
84.1447
81.7076
79.3698
77.1257
74.9703
72.8987
70.9067
68.99
67.1449
65.3679
63.6556
62.005
60.413
58.8771
57.3947
55.9633
54.5807
53.2449
51.9538
50.7056
49.4985
48.3308
47.201
46.1075
45.049
44.0242
43.0318
42.0706
41.1394
40.2373
39.3632
38.5161
37.6952
36.8996
36.1284
12903.4
5178.78
2960.94
2036.46
1538.78
1230.39
1021.37
870.662
756.988
668.254
597.097
538.783
490.135
448.94
413.612
382.984
356.179
332.526
311.5
292.688
275.76
260.447
246.53
233.826
222.185
211.479
201.601
192.46
183.976
176.082
168.72
161.837
155.39
149.338
143.648
138.288
133.231
128.453
123.932
119.648
115.583
111.723
108.051
104.556
101.225
98.048
95.0144
92.1154
89.3426
86.6886
84.1463
81.7091
79.3713
77.1271
74.9716
72.9001
70.908
68.9913
67.1462
65.3691
63.6568
62.0061
60.4141
58.8782
57.3957
55.9643
54.5817
53.2459
51.9547
50.7065
49.4993
48.3316
47.2018
46.1083
45.0498
44.025
43.0325
42.0713
41.1401
40.238
39.3639
38.5168
37.6959
36.9002
36.129
12903.5
5178.66
2960.84
2036.38
1538.72
1230.35
1021.34
870.64
756.97
668.239
597.085
538.774
490.128
448.934
413.607
382.98
356.176
332.523
311.498
292.687
275.76
260.447
246.529
233.826
222.185
211.48
201.602
192.461
183.977
176.084
168.721
161.839
155.391
149.34
143.65
138.29
133.233
128.455
123.934
119.65
115.585
111.724
108.053
104.558
101.227
98.0496
95.0159
92.1169
89.3441
86.6901
84.1477
81.7105
79.3726
77.1285
74.9729
72.9013
70.9092
68.9925
67.1474
65.3703
63.6579
62.0072
60.4152
58.8792
57.3967
55.9653
54.5827
53.2468
51.9556
50.7074
49.5002
48.3324
47.2026
46.1091
45.0506
44.0257
43.0332
42.072
41.1408
40.2387
39.3645
38.5175
37.6965
36.9009
36.1296
12903.7
5178.54
2960.74
2036.31
1538.67
1230.31
1021.31
870.618
756.953
668.225
597.073
538.764
490.119
448.927
413.602
382.976
356.173
332.52
311.496
292.686
275.758
260.446
246.529
233.826
222.185
211.48
201.603
192.462
183.978
176.085
168.722
161.84
155.393
149.341
143.651
138.291
133.234
128.456
123.935
119.651
115.587
111.726
108.054
104.559
101.228
98.051
95.0174
92.1183
89.3455
86.6914
84.149
81.7118
79.3739
77.1297
74.9742
72.9025
70.9104
68.9936
67.1485
65.3714
63.659
62.0083
60.4162
58.8802
57.3977
55.9662
54.5836
53.2477
51.9565
50.7082
49.501
48.3333
47.2034
46.1098
45.0513
44.0264
43.034
42.0727
41.1415
40.2394
39.3652
38.5181
37.6972
36.9015
36.1302
12903.8
5178.43
2960.65
2036.24
1538.62
1230.28
1021.29
870.598
756.936
668.211
597.061
538.754
490.111
448.92
413.596
382.971
356.169
332.517
311.493
292.684
275.757
260.445
246.528
233.826
222.185
211.48
201.603
192.462
183.979
176.086
168.723
161.841
155.394
149.342
143.652
138.292
133.236
128.458
123.936
119.652
115.588
111.727
108.056
104.561
101.23
98.0524
95.0187
92.1196
89.3468
86.6927
84.1503
81.7131
79.3751
77.1309
74.9754
72.9037
70.9115
68.9948
67.1496
65.3725
63.6601
62.0093
60.4172
58.8812
57.3986
55.9672
54.5845
53.2486
51.9574
50.7091
49.5018
48.3341
47.2041
46.1106
45.0521
44.0272
43.0347
42.0734
41.1422
40.2401
39.3659
38.5188
37.6979
36.9021
36.1309
12904
5178.33
2960.56
2036.18
1538.58
1230.24
1021.26
870.578
756.92
668.197
597.05
538.744
490.103
448.913
413.59
382.966
356.164
332.514
311.49
292.681
275.755
260.444
246.527
233.825
222.185
211.48
201.603
192.463
183.979
176.086
168.724
161.842
155.395
149.343
143.653
138.294
133.237
128.459
123.938
119.654
115.589
111.728
108.057
104.562
101.231
98.0536
95.0199
92.1208
89.348
86.6939
84.1515
81.7143
79.3763
77.1321
74.9765
72.9048
70.9126
68.9958
67.1506
65.3735
63.6611
62.0103
60.4182
58.8821
57.3996
55.9681
54.5854
53.2494
51.9582
50.7099
49.5027
48.3349
47.2049
46.1114
45.0528
44.0279
43.0354
42.0741
41.143
40.2408
39.3666
38.5195
37.6985
36.9028
36.1315
12904.1
5178.23
2960.48
2036.12
1538.54
1230.21
1021.24
870.559
756.904
668.184
597.038
538.734
490.094
448.906
413.583
382.96
356.16
332.51
311.487
292.679
275.753
260.442
246.526
233.824
222.184
211.48
201.603
192.463
183.98
176.087
168.725
161.842
155.395
149.344
143.654
138.295
133.238
128.46
123.939
119.655
115.59
111.73
108.058
104.563
101.232
98.0548
95.0211
92.122
89.3492
86.6951
84.1526
81.7154
79.3774
77.1332
74.9776
72.9059
70.9137
68.9968
67.1516
65.3745
63.662
62.0112
60.4191
58.8831
57.4005
55.9689
54.5863
53.2503
51.9591
50.7107
49.5035
48.3356
47.2057
46.1121
45.0536
44.0287
43.0362
42.0749
41.1437
40.2415
39.3673
38.5202
37.6992
36.9034
36.1321
12904.2
5178.13
2960.4
2036.06
1538.49
1230.18
1021.21
870.541
756.889
668.171
597.027
538.724
490.085
448.898
413.577
382.955
356.155
332.506
311.484
292.676
275.751
260.44
246.525
233.823
222.183
211.479
201.603
192.463
183.98
176.087
168.725
161.843
155.396
149.345
143.655
138.295
133.239
128.461
123.94
119.656
115.591
111.731
108.059
104.564
101.233
98.0559
95.0222
92.1231
89.3503
86.6961
84.1537
81.7165
79.3785
77.1342
74.9786
72.9069
70.9147
68.9978
67.1526
65.3754
63.663
62.0121
60.42
58.884
57.4013
55.9698
54.5871
53.2511
51.9599
50.7115
49.5042
48.3364
47.2065
46.1129
45.0543
44.0294
43.0369
42.0756
41.1444
40.2422
39.368
38.5209
37.6998
36.9041
36.1327
12904.3
5178.04
2960.33
2036.01
1538.45
1230.15
1021.19
870.524
756.875
668.159
597.016
538.715
490.077
448.891
413.57
382.949
356.15
332.501
311.48
292.673
275.748
260.438
246.523
233.821
222.182
211.479
201.602
192.462
183.98
176.087
168.725
161.843
155.397
149.346
143.656
138.296
133.24
128.462
123.941
119.657
115.592
111.732
108.06
104.565
101.234
98.057
95.0233
92.1241
89.3513
86.6972
84.1547
81.7175
79.3795
77.1352
74.9796
72.9079
70.9156
68.9988
67.1536
65.3764
63.6639
62.013
60.4209
58.8848
57.4022
55.9707
54.5879
53.2519
51.9607
50.7123
49.505
48.3372
47.2072
46.1137
45.0551
44.0301
43.0376
42.0763
41.1451
40.2429
39.3687
38.5215
37.7005
36.9047
36.1333
12904.4
5177.95
2960.26
2035.95
1538.42
1230.13
1021.17
870.507
756.861
668.147
597.006
538.705
490.068
448.883
413.563
382.943
356.145
332.497
311.476
292.669
275.745
260.436
246.521
233.82
222.181
211.478
201.602
192.462
183.98
176.087
168.725
161.844
155.397
149.346
143.656
138.297
133.24
128.463
123.941
119.658
115.593
111.733
108.061
104.566
101.235
98.0579
95.0242
92.1251
89.3523
86.6982
84.1557
81.7185
79.3805
77.1362
74.9806
72.9088
70.9166
68.9997
67.1545
65.3773
63.6648
62.0139
60.4218
58.8857
57.4031
55.9715
54.5888
53.2528
51.9615
50.7131
49.5058
48.338
47.208
46.1144
45.0558
44.0309
43.0383
42.077
41.1458
40.2436
39.3694
38.5222
37.7012
36.9053
36.1339
12904.5
5177.87
2960.19
2035.9
1538.38
1230.1
1021.15
870.492
756.848
668.136
596.996
538.696
490.06
448.876
413.557
382.937
356.139
332.492
311.472
292.666
275.742
260.433
246.519
233.818
222.18
211.477
201.601
192.461
183.979
176.087
168.725
161.844
155.397
149.346
143.657
138.297
133.241
128.463
123.942
119.658
115.594
111.734
108.062
104.567
101.236
98.0589
95.0252
92.1261
89.3533
86.6991
84.1566
81.7194
79.3814
77.1371
74.9815
72.9097
70.9175
69.0006
67.1554
65.3781
63.6657
62.0148
60.4227
58.8865
57.4039
55.9723
54.5896
53.2536
51.9623
50.7139
49.5066
48.3387
47.2087
46.1151
45.0565
44.0316
43.0391
42.0777
41.1465
40.2443
39.3701
38.5229
37.7018
36.906
36.1345
12904.7
5177.79
2960.12
2035.85
1538.35
1230.08
1021.13
870.476
756.835
668.125
596.986
538.687
490.052
448.868
413.55
382.931
356.134
332.487
311.468
292.662
275.739
260.43
246.517
233.816
222.178
211.475
201.6
192.461
183.979
176.086
168.725
161.844
155.397
149.347
143.657
138.298
133.242
128.464
123.943
119.659
115.595
111.734
108.063
104.568
101.237
98.0598
95.0261
92.127
89.3542
86.7
84.1576
81.7203
79.3823
77.138
74.9824
72.9106
70.9184
69.0015
67.1562
65.379
63.6665
62.0156
60.4235
58.8874
57.4047
55.9731
54.5904
53.2543
51.9631
50.7146
49.5073
48.3395
47.2095
46.1159
45.0573
44.0323
43.0398
42.0785
41.1472
40.245
39.3708
38.5236
37.7025
36.9066
36.1352
12904.8
5177.71
2960.06
2035.81
1538.31
1230.05
1021.11
870.462
756.823
668.114
596.977
538.679
490.044
448.861
413.543
382.925
356.129
332.482
311.464
292.658
275.736
260.428
246.514
233.814
222.177
211.474
201.599
192.46
183.978
176.086
168.725
161.844
155.397
149.347
143.657
138.298
133.242
128.464
123.943
119.66
115.596
111.735
108.064
104.569
101.238
98.0606
95.0269
92.1278
89.355
86.7009
84.1584
81.7212
79.3832
77.1389
74.9832
72.9115
70.9192
69.0023
67.1571
65.3798
63.6673
62.0165
60.4243
58.8882
57.4055
55.9739
54.5911
53.2551
51.9638
50.7154
49.5081
48.3402
47.2102
46.1166
45.058
44.0331
43.0405
42.0792
41.1479
40.2457
39.3715
38.5243
37.7032
36.9075
12904.9
5177.63
2960
2035.76
1538.28
1230.03
1021.1
870.448
756.812
668.104
596.968
538.671
490.037
448.854
413.537
382.919
356.123
332.478
311.459
292.655
275.732
260.425
246.512
233.812
222.175
211.472
201.598
192.459
183.977
176.086
168.725
161.843
155.397
149.347
143.658
138.299
133.242
128.465
123.944
119.66
115.596
111.736
108.064
104.569
101.239
98.0614
95.0277
92.1286
89.3558
86.7017
84.1593
81.722
79.384
77.1397
74.9841
72.9123
70.92
69.0032
67.1579
65.3807
63.6681
62.0173
60.4251
58.889
57.4063
55.9747
54.5919
53.2559
51.9646
50.7162
49.5089
48.341
47.211
46.1174
45.0588
44.0338
43.0412
42.0799
41.1487
40.2464
39.3722
38.525
37.7039
36.9081
12905
5177.56
2959.95
2035.72
1538.25
1230
1021.08
870.434
756.8
668.095
596.959
538.663
490.03
448.847
413.531
382.913
356.118
332.473
311.455
292.651
275.729
260.421
246.509
233.81
222.173
211.471
201.596
192.458
183.976
176.085
168.724
161.843
155.397
149.347
143.658
138.299
133.243
128.465
123.944
119.661
115.597
111.736
108.065
104.57
101.239
98.0621
95.0285
92.1294
89.3566
86.7025
84.1601
81.7228
79.3848
77.1406
74.9849
72.9131
70.9209
69.004
67.1587
65.3815
63.6689
62.0181
60.4259
58.8897
57.4071
55.9755
54.5927
53.2567
51.9654
50.7169
49.5096
48.3417
47.2117
46.1181
45.0595
44.0345
43.042
42.0806
41.1494
40.2471
39.3729
38.5257
37.7046
36.9088
12905.1
5177.48
2959.89
2035.68
1538.21
1229.98
1021.06
870.421
756.79
668.085
596.951
538.656
490.023
448.841
413.525
382.908
356.113
332.468
311.45
292.647
275.725
260.418
246.506
233.807
222.171
211.469
201.595
192.456
183.975
176.084
168.724
161.843
155.397
149.347
143.658
138.299
133.243
128.466
123.945
119.661
115.597
111.737
108.066
104.571
101.24
98.0628
95.0292
92.1302
89.3574
86.7033
84.1609
81.7236
79.3856
77.1413
74.9857
72.9139
70.9217
69.0048
67.1595
65.3823
63.6697
62.0188
60.4267
58.8905
57.4078
55.9762
54.5935
53.2574
51.9661
50.7177
49.5103
48.3425
47.2125
46.1188
45.0602
44.0353
43.0427
42.0814
41.1501
40.2479
39.3736
38.5264
37.7053
36.9094
12905.1
5177.42
2959.83
2035.63
1538.18
1229.96
1021.04
870.407
756.779
668.077
596.943
538.648
490.016
448.835
413.519
382.902
356.107
332.463
311.446
292.643
275.722
260.415
246.503
233.805
222.168
211.467
201.593
192.455
183.974
176.083
168.723
161.842
155.397
149.347
143.658
138.299
133.243
128.466
123.945
119.662
115.598
111.737
108.066
104.571
101.241
98.0635
95.0299
92.1309
89.3581
86.704
84.1616
81.7244
79.3864
77.1421
74.9865
72.9147
70.9224
69.0056
67.1603
65.383
63.6705
62.0196
60.4274
58.8913
57.4086
55.977
54.5942
53.2582
51.9669
50.7184
49.5111
48.3432
47.2132
46.1196
45.061
44.036
43.0434
42.0821
41.1508
40.2486
39.3743
38.5271
37.7059
36.91
12905.2
5177.35
2959.78
2035.59
1538.15
1229.93
1021.03
870.395
756.769
668.068
596.935
538.641
490.01
448.829
413.513
382.897
356.102
332.458
311.442
292.639
275.718
260.412
246.5
233.802
222.166
211.465
201.591
192.454
183.973
176.082
168.722
161.842
155.396
149.346
143.658
138.299
133.243
128.466
123.945
119.662
115.598
111.738
108.067
104.572
101.241
98.0641
95.0306
92.1316
89.3588
86.7048
84.1623
81.7251
79.3871
77.1429
74.9872
72.9155
70.9232
69.0063
67.161
65.3838
63.6713
62.0204
60.4282
58.892
57.4093
55.9777
54.595
53.2589
51.9676
50.7192
49.5118
48.3439
47.2139
46.1203
45.0617
44.0367
43.0441
42.0828
41.1515
40.2493
39.375
38.5277
37.7066
36.9107
12905.3
5177.29
2959.73
2035.55
1538.12
1229.91
1021.01
870.382
756.759
668.059
596.928
538.635
490.003
448.823
413.508
382.891
356.097
332.454
311.437
292.635
275.714
260.408
246.497
233.799
222.164
211.463
201.59
192.452
183.972
176.081
168.721
161.841
155.396
149.346
143.657
138.299
133.243
128.466
123.946
119.662
115.599
111.738
108.067
104.572
101.242
98.0647
95.0312
92.1322
89.3595
86.7054
84.163
81.7258
79.3879
77.1436
74.988
72.9162
70.9239
69.0071
67.1618
65.3845
63.672
62.0211
60.4289
58.8928
57.4101
55.9785
54.5957
53.2596
51.9683
50.7199
49.5126
48.3447
47.2147
46.121
45.0624
44.0374
43.0449
42.0835
41.1522
40.25
39.3757
38.5284
37.7072
36.9113
12905.4
5177.22
2959.68
2035.51
1538.09
1229.89
1020.99
870.369
756.749
668.051
596.921
538.628
489.997
448.817
413.502
382.886
356.093
332.449
311.433
292.631
275.711
260.405
246.494
233.797
222.161
211.461
201.588
192.451
183.97
176.08
168.72
161.84
155.395
149.346