/*--------------------------------*- C++ -*----------------------------------*\
  =========                 |
  \\      /  F ield         | OpenFOAM: The Open Source CFD Toolbox
   \\    /   O peration     | Website:  https://openfoam.org
    \\  /    A nd           | Version:  10
     \\/     M anipulation  |
\*---------------------------------------------------------------------------*/
FoamFile
{
    format      ascii;
    class       volScalarField;
    location    "30000";
    object      Co;
}
// * * * * * * * * * * * * * * * * * * * * * * * * * * * * * * * * * * * * * //

dimensions      [0 0 0 0 0 0 0];

internalField   nonuniform List<scalar> 
17808
(
6371.15
5787.53
5532.45
5359.23
5226.83
5119.67
5029.49
4951.5
4882.63
4820.89
4764.82
4713.39
4665.85
4621.57
4580.09
4541.03
4504.08
4468.99
4435.58
4403.61
4372.99
4343.57
4315.23
4287.88
4261.46
4235.87
4211.03
4186.91
4163.45
4140.6
4118.33
4096.59
4075.35
4054.58
4034.24
4014.32
3994.78
3975.62
3956.8
3938.32
3920.14
3902.26
3884.66
3867.32
3850.23
3833.39
3816.77
3800.36
3784.18
3768.18
3752.37
3736.75
3721.29
3705.98
3690.85
3675.86
3661.01
3646.3
3631.71
3617.25
3602.91
3588.67
3574.54
3560.52
3546.59
3532.75
3518.99
3505.33
3491.73
3478.22
3464.76
3451.38
3438.05
3424.78
3411.56
3398.39
3385.26
3372.18
3359.13
3346.11
3333.12
3320.16
3307.22
3294.29
3281.38
3268.48
3255.58
3242.68
3229.78
3216.87
3203.95
3191.01
6176.4
5604.34
5355.17
5187.72
5060.92
4958.87
4873.25
4799.28
4733.95
4675.31
4621.99
4572.96
4527.59
4485.22
4445.49
4408
4372.5
4338.75
4306.57
4275.77
4246.23
4217.84
4190.46
4164.03
4138.47
4113.71
4089.67
4066.32
4043.6
4021.47
3999.87
3978.79
3958.21
3938.07
3918.34
3899.01
3880.06
3861.47
3843.21
3825.26
3807.61
3790.26
3773.17
3756.34
3739.74
3723.39
3707.25
3691.31
3675.59
3660.05
3644.69
3629.51
3614.5
3599.64
3584.93
3570.37
3555.94
3541.65
3527.48
3513.42
3499.49
3485.66
3471.94
3458.32
3444.77
3431.34
3417.97
3404.69
3391.49
3378.35
3365.28
3352.27
3339.33
3326.44
3313.6
3300.8
3288.05
3275.33
3262.66
3250.01
3237.39
3224.81
3212.23
3199.68
3187.14
3174.6
3162.07
3149.54
3137.01
3124.47
3111.92
3099.35
5997.63
5441.78
5198.9
5035.24
4911.32
4811.71
4728.33
4656.5
4593.22
4536.51
4485.05
4437.79
4394.06
4353.27
4315.03
4278.91
4244.73
4212.2
4181.16
4151.46
4122.95
4095.54
4069.1
4043.56
4018.85
3994.9
3971.65
3949.05
3927.06
3905.63
3884.71
3864.29
3844.33
3824.81
3805.68
3786.94
3768.56
3750.52
3732.81
3715.41
3698.27
3681.42
3664.83
3648.49
3632.38
3616.51
3600.83
3585.36
3570.09
3555.01
3540.1
3525.35
3510.75
3496.32
3482.03
3467.89
3453.87
3440
3426.23
3412.58
3399.04
3385.61
3372.28
3359.04
3345.89
3332.83
3319.85
3306.95
3294.11
3281.35
3268.66
3256.02
3243.45
3230.92
3218.45
3206.01
3193.63
3181.27
3168.96
3156.68
3144.42
3132.19
3119.98
3107.77
3095.59
3083.42
3071.24
3059.07
3046.9
3034.72
3022.53
3010.32
5823.83
5283.73
5047.63
4888.59
4768.11
4671.22
4590.1
4520.21
4458.68
4403.57
4353.62
4307.79
4265.42
4225.93
4188.92
4154
4120.95
4089.5
4059.52
4030.82
4003.26
3976.77
3951.2
3926.51
3902.62
3879.44
3856.96
3835.08
3813.79
3793.03
3772.78
3753
3733.65
3714.74
3696.19
3678.03
3660.2
3642.71
3625.53
3608.64
3592.02
3575.67
3559.57
3543.71
3528.08
3512.66
3497.44
3482.42
3467.6
3452.95
3438.47
3424.15
3409.98
3395.96
3382.09
3368.35
3354.73
3341.25
3327.88
3314.62
3301.47
3288.42
3275.47
3262.61
3249.83
3237.15
3224.54
3212
3199.54
3187.14
3174.81
3162.53
3150.31
3138.15
3126.03
3113.95
3101.92
3089.92
3077.96
3066.03
3054.12
3042.23
3030.37
3018.52
3006.68
2994.85
2983.02
2971.21
2959.38
2947.54
2935.7
2923.84
5655.38
5130.43
4900.64
4745.98
4628.87
4534.73
4455.96
4388.1
4328.35
4274.9
4226.43
4182
4140.94
4102.66
4066.8
4032.99
4000.99
3970.57
3941.55
3913.77
3887.1
3861.47
3836.74
3812.84
3789.71
3767.29
3745.51
3724.34
3703.72
3683.62
3664.01
3644.84
3626.11
3607.77
3589.8
3572.2
3554.91
3537.96
3521.28
3504.9
3488.79
3472.92
3457.3
3441.91
3426.73
3411.77
3397
3382.42
3368.02
3353.8
3339.74
3325.83
3312.07
3298.48
3284.99
3271.65
3258.43
3245.33
3232.35
3219.47
3206.69
3194.01
3181.43
3168.94
3156.53
3144.21
3131.96
3119.79
3107.68
3095.63
3083.65
3071.72
3059.85
3048.04
3036.26
3024.53
3012.84
3001.19
2989.56
2977.97
2966.4
2954.86
2943.33
2931.82
2920.32
2908.83
2897.35
2885.87
2874.37
2862.88
2851.38
2839.85
5492.24
4982.26
4758.74
4608.33
4494.41
4402.87
4326.29
4260.34
4202.3
4150.4
4103.33
4060.21
4020.37
3983.25
3948.48
3915.72
3884.71
3855.24
3827.12
3800.21
3774.39
3749.57
3725.62
3702.48
3680.08
3658.38
3637.28
3616.78
3596.81
3577.34
3558.33
3539.78
3521.61
3503.83
3486.43
3469.36
3452.6
3436.16
3420
3404.11
3388.47
3373.09
3357.93
3343
3328.27
3313.75
3299.41
3285.27
3271.29
3257.48
3243.83
3230.33
3216.97
3203.76
3190.67
3177.72
3164.87
3152.15
3139.55
3127.04
3114.62
3102.31
3090.09
3077.96
3065.9
3053.94
3042.03
3030.2
3018.44
3006.75
2995.11
2983.52
2971.99
2960.51
2949.07
2937.68
2926.32
2915
2903.71
2892.45
2881.21
2870
2858.8
2847.62
2836.45
2825.28
2814.13
2802.97
2791.81
2780.64
2769.47
2758.28
5334.03
4838.68
4621.43
4475.2
4364.45
4275.44
4200.98
4136.87
4080.45
4030.01
3984.26
3942.38
3903.68
3867.64
3833.89
3802.11
3772
3743.43
3716.16
3690.08
3665.06
3640.99
3617.77
3595.36
3573.67
3552.63
3532.2
3512.32
3492.98
3474.11
3455.69
3437.71
3420.11
3402.87
3386
3369.45
3353.21
3337.27
3321.6
3306.18
3291.01
3276.09
3261.39
3246.89
3232.61
3218.51
3204.61
3190.88
3177.31
3163.91
3150.65
3137.55
3124.58
3111.75
3099.04
3086.47
3074
3061.65
3049.4
3037.25
3025.19
3013.24
3001.37
2989.58
2977.87
2966.25
2954.69
2943.2
2931.77
2920.41
2909.1
2897.85
2886.65
2875.5
2864.38
2853.31
2842.29
2831.29
2820.32
2809.38
2798.46
2787.57
2776.69
2765.83
2754.98
2744.13
2733.3
2722.46
2711.62
2700.77
2689.92
2679.04
5180.46
4699.33
4488.23
4346.11
4238.47
4151.97
4079.59
4017.25
3962.42
3913.38
3868.95
3828.24
3790.63
3755.63
3722.85
3691.99
3662.76
3635.03
3608.57
3583.27
3559
3535.65
3513.14
3491.42
3470.37
3449.97
3430.17
3410.91
3392.16
3373.86
3356.01
3338.58
3321.52
3304.81
3288.46
3272.41
3256.66
3241.19
3225.99
3211.05
3196.34
3181.86
3167.6
3153.53
3139.68
3126
3112.51
3099.18
3086.01
3073
3060.13
3047.41
3034.82
3022.37
3010.03
2997.82
2985.71
2973.72
2961.83
2950.02
2938.32
2926.71
2915.18
2903.74
2892.37
2881.07
2869.85
2858.69
2847.59
2836.55
2825.57
2814.64
2803.76
2792.92
2782.13
2771.37
2760.66
2749.97
2739.32
2728.7
2718.09
2707.51
2696.94
2686.39
2675.85
2665.32
2654.79
2644.26
2633.73
2623.2
2612.65
2602.09
5031.36
4564.05
4358.94
4220.83
4116.24
4032.17
3961.84
3901.24
3847.97
3800.29
3757.13
3717.56
3681.03
3647.02
3615.19
3585.2
3556.83
3529.91
3504.22
3479.65
3456.1
3433.44
3411.61
3390.52
3370.11
3350.34
3331.12
3312.45
3294.27
3276.53
3259.22
3242.31
3225.76
3209.57
3193.71
3178.14
3162.87
3147.87
3133.13
3118.63
3104.37
3090.32
3076.49
3062.84
3049.4
3036.13
3023.03
3010.1
2997.32
2984.69
2972.21
2959.86
2947.64
2935.55
2923.57
2911.71
2899.95
2888.31
2876.76
2865.3
2853.94
2842.66
2831.47
2820.35
2809.31
2798.34
2787.43
2776.6
2765.82
2755.1
2744.43
2733.81
2723.24
2712.72
2702.23
2691.79
2681.37
2671
2660.65
2650.32
2640.03
2629.75
2619.49
2609.24
2599
2588.77
2578.54
2568.3
2558.08
2547.84
2537.6
2527.34
4886.59
4432.71
4233.44
4099.26
3997.62
3915.93
3847.58
3788.7
3736.93
3690.6
3648.66
3610.21
3574.73
3541.68
3510.75
3481.63
3454.07
3427.93
3402.98
3379.13
3356.27
3334.27
3313.09
3292.61
3272.81
3253.63
3234.99
3216.87
3199.23
3182.02
3165.23
3148.83
3132.78
3117.07
3101.69
3086.59
3071.78
3057.23
3042.93
3028.87
3015.03
3001.4
2987.98
2974.75
2961.7
2948.82
2936.12
2923.57
2911.16
2898.92
2886.8
2874.81
2862.95
2851.21
2839.58
2828.06
2816.65
2805.34
2794.13
2783
2771.97
2761.02
2750.15
2739.35
2728.63
2717.98
2707.38
2696.86
2686.39
2675.97
2665.62
2655.3
2645.03
2634.81
2624.63
2614.48
2604.37
2594.29
2584.23
2574.21
2564.21
2554.22
2544.25
2534.29
2524.35
2514.41
2504.47
2494.53
2484.6
2474.66
2464.71
2454.74
4746.05
4305.2
4111.64
3981.25
3882.48
3803.12
3736.71
3679.5
3629.2
3584.18
3543.42
3506.06
3471.58
3439.47
3409.42
3381.15
3354.38
3328.97
3304.75
3281.6
3259.39
3238.03
3217.47
3197.6
3178.37
3159.75
3141.66
3124.08
3106.96
3090.26
3073.97
3058.06
3042.5
3027.25
3012.33
2997.68
2983.32
2969.19
2955.32
2941.68
2928.25
2915.04
2902.01
2889.18
2876.51
2864.02
2851.69
2839.51
2827.47
2815.58
2803.82
2792.19
2780.67
2769.28
2757.99
2746.81
2735.73
2724.75
2713.86
2703.06
2692.35
2681.71
2671.16
2660.67
2650.26
2639.92
2629.63
2619.41
2609.23
2599.12
2589.06
2579.05
2569.07
2559.14
2549.25
2539.4
2529.58
2519.79
2510.02
2500.28
2490.56
2480.86
2471.18
2461.51
2451.84
2442.18
2432.54
2422.88
2413.23
2403.58
2393.91
2384.23
4609.57
4181.39
3993.37
3866.69
3770.72
3693.62
3629.1
3573.51
3524.64
3480.9
3441.29
3405
3371.5
3340.3
3311.11
3283.63
3257.64
3232.94
3209.42
3186.93
3165.37
3144.63
3124.66
3105.37
3086.7
3068.62
3051.06
3034
3017.38
3001.19
2985.37
2969.93
2954.83
2940.04
2925.54
2911.34
2897.4
2883.7
2870.23
2857
2843.98
2831.15
2818.51
2806.06
2793.76
2781.64
2769.68
2757.86
2746.18
2734.64
2723.22
2711.92
2700.75
2689.69
2678.74
2667.88
2657.13
2646.47
2635.89
2625.41
2615
2604.68
2594.43
2584.25
2574.14
2564.09
2554.1
2544.17
2534.3
2524.48
2514.7
2504.98
2495.29
2485.65
2476.03
2466.47
2456.93
2447.42
2437.93
2428.47
2419.03
2409.6
2400.2
2390.8
2381.42
2372.04
2362.66
2353.29
2343.91
2334.53
2325.14
2315.74
4477.02
4061.15
3878.52
3755.46
3662.22
3587.32
3524.63
3470.63
3423.14
3380.65
3342.16
3306.9
3274.35
3244.05
3215.68
3188.98
3163.73
3139.75
3116.89
3095.05
3074.11
3053.97
3034.58
3015.85
2997.71
2980.15
2963.11
2946.54
2930.41
2914.69
2899.34
2884.35
2869.7
2855.34
2841.28
2827.49
2813.96
2800.67
2787.6
2774.77
2762.12
2749.68
2737.41
2725.32
2713.39
2701.63
2690.02
2678.55
2667.22
2656.01
2644.93
2633.97
2623.13
2612.38
2601.75
2591.22
2580.78
2570.43
2560.16
2549.98
2539.88
2529.85
2519.9
2510.01
2500.19
2490.44
2480.74
2471.1
2461.51
2451.97
2442.48
2433.03
2423.62
2414.25
2404.92
2395.63
2386.36
2377.12
2367.91
2358.72
2349.55
2340.39
2331.26
2322.13
2313.02
2303.91
2294.8
2285.69
2276.59
2267.47
2258.35
2249.22
4348.31
3944.39
3766.99
3647.46
3556.88
3484.11
3423.19
3370.75
3324.6
3283.32
3245.93
3211.67
3180.05
3150.61
3123.04
3097.11
3072.58
3049.28
3027.08
3005.86
2985.53
2965.97
2947.13
2928.94
2911.33
2894.28
2877.73
2861.65
2845.97
2830.72
2815.81
2801.27
2787.04
2773.1
2759.45
2746.07
2732.94
2720.04
2707.36
2694.9
2682.63
2670.55
2658.64
2646.91
2635.34
2623.92
2612.64
2601.51
2590.52
2579.64
2568.89
2558.25
2547.72
2537.3
2526.97
2516.75
2506.61
2496.56
2486.59
2476.71
2466.91
2457.17
2447.51
2437.9
2428.37
2418.9
2409.48
2400.12
2390.8
2381.54
2372.32
2363.14
2354.01
2344.91
2335.85
2326.82
2317.82
2308.84
2299.9
2290.97
2282.06
2273.18
2264.3
2255.43
2246.58
2237.73
2228.88
2220.04
2211.19
2202.34
2193.48
2184.61
4223.31
3831
3658.71
3542.58
3454.59
3383.88
3324.71
3273.76
3228.93
3188.83
3152.5
3119.23
3088.5
3059.89
3033.12
3007.93
2984.09
2961.46
2939.9
2919.28
2899.52
2880.53
2862.23
2844.56
2827.47
2810.91
2794.84
2779.21
2764
2749.18
2734.72
2720.59
2706.77
2693.25
2680
2667.01
2654.26
2641.73
2629.44
2617.33
2605.42
2593.7
2582.14
2570.76
2559.53
2548.44
2537.5
2526.7
2516.02
2505.46
2495.02
2484.7
2474.47
2464.36
2454.34
2444.41
2434.57
2424.82
2415.14
2405.54
2396.03
2386.57
2377.19
2367.86
2358.61
2349.41
2340.26
2331.17
2322.12
2313.12
2304.17
2295.26
2286.4
2277.55
2268.76
2259.99
2251.25
2242.53
2233.84
2225.16
2216.51
2207.88
2199.26
2190.65
2182.05
2173.45
2164.86
2156.27
2147.67
2139.08
2130.47
2121.86
4101.92
3720.88
3553.53
3440.72
3355.25
3286.55
3229.08
3179.58
3136.03
3097.08
3061.78
3029.47
2999.61
2971.82
2945.81
2921.33
2898.18
2876.2
2855.25
2835.23
2816.03
2797.58
2779.8
2762.64
2746.04
2729.96
2714.35
2699.17
2684.41
2670.02
2655.97
2642.25
2628.83
2615.71
2602.84
2590.23
2577.86
2565.69
2553.75
2542.01
2530.44
2519.06
2507.84
2496.79
2485.89
2475.13
2464.52
2454.03
2443.66
2433.41
2423.28
2413.26
2403.33
2393.51
2383.78
2374.14
2364.59
2355.12
2345.73
2336.42
2327.17
2317.99
2308.88
2299.83
2290.84
2281.91
2273.03
2264.2
2255.41
2246.68
2237.98
2229.33
2220.72
2212.13
2203.59
2195.07
2186.58
2178.11
2169.67
2161.25
2152.85
2144.46
2136.09
2127.72
2119.37
2111.02
2102.68
2094.33
2085.98
2077.63
2069.27
2060.9
3984.01
3613.94
3451.39
3341.82
3258.79
3192.06
3136.22
3088.14
3045.83
3007.98
2973.69
2942.3
2913.3
2886.31
2861.05
2837.25
2814.77
2793.41
2773.06
2753.61
2734.97
2717.05
2699.78
2683.11
2666.99
2651.36
2636.2
2621.46
2607.12
2593.15
2579.51
2566.18
2553.16
2540.41
2527.92
2515.67
2503.66
2491.85
2480.26
2468.85
2457.63
2446.58
2435.7
2424.96
2414.38
2403.93
2393.63
2383.44
2373.38
2363.43
2353.6
2343.86
2334.24
2324.7
2315.25
2305.9
2296.63
2287.43
2278.31
2269.27
2260.29
2251.38
2242.54
2233.75
2225.02
2216.35
2207.72
2199.15
2190.62
2182.14
2173.69
2165.29
2156.92
2148.59
2140.29
2132.02
2123.77
2115.55
2107.35
2099.17
2091.01
2082.86
2074.73
2066.61
2058.49
2050.38
2042.27
2034.17
3869.51
3510.06
3352.19
3245.76
3165.1
3100.28
3046.05
2999.33
2958.23
2921.47
2888.17
2857.66
2829.49
2803.27
2778.73
2755.62
2733.77
2713.03
2693.26
2674.37
2656.25
2638.85
2622.08
2605.88
2590.22
2575.05
2560.32
2546.01
2532.08
2518.5
2505.26
2492.32
2479.67
2467.29
2455.17
2443.27
2431.6
2420.15
2408.88
2397.81
2386.92
2376.19
2365.62
2355.2
2344.93
2334.79
2324.78
2314.89
2305.13
2295.47
2285.92
2276.47
2267.12
2257.87
2248.7
2239.61
2230.61
2221.68
2212.83
2204.05
2195.34
2186.68
2178.1
2169.56
2161.09
2152.66
2144.29
2135.97
2127.69
2119.44
2111.25
2103.09
2094.96
2086.87
2078.81
2070.77
2062.76
2054.78
2046.82
2038.87
2030.94
2023.03
2015.13
2007.24
1999.36
1991.48
1983.61
1975.74
3758.3
3409.19
3255.86
3152.48
3074.13
3011.15
2958.47
2913.09
2873.17
2837.46
2805.11
2775.48
2748.11
2722.64
2698.8
2676.35
2655.13
2634.98
2615.77
2597.42
2579.82
2562.92
2546.63
2530.89
2515.68
2500.95
2486.65
2472.75
2459.22
2446.03
2433.16
2420.6
2408.32
2396.29
2384.52
2372.97
2361.63
2350.51
2339.58
2328.82
2318.24
2307.83
2297.56
2287.45
2277.48
2267.63
2257.92
2248.32
2238.83
2229.46
2220.19
2211.02
2201.94
2192.95
2184.05
2175.23
2166.49
2157.82
2149.23
2140.7
2132.24
2123.85
2115.51
2107.22
2098.99
2090.81
2082.68
2074.59
2066.56
2058.55
2050.59
2042.67
2034.77
2026.92
2019.09
2011.28
2003.51
1995.75
1988.02
1980.31
1972.6
1964.92
1957.24
1949.58
1941.93
1934.27
1926.63
1918.98
3650.29
3311.22
3162.3
3061.87
2985.77
2924.6
2873.43
2829.35
2790.57
2755.88
2724.45
2695.67
2669.08
2644.34
2621.18
2599.38
2578.76
2559.18
2540.53
2522.7
2505.61
2489.19
2473.36
2458.08
2443.31
2428.99
2415.1
2401.6
2388.46
2375.65
2363.16
2350.96
2339.03
2327.35
2315.91
2304.7
2293.69
2282.89
2272.27
2261.82
2251.56
2241.44
2231.48
2221.65
2211.97
2202.41
2192.97
2183.66
2174.45
2165.35
2156.35
2147.45
2138.63
2129.9
2121.26
2112.7
2104.21
2095.8
2087.45
2079.18
2070.96
2062.81
2054.71
2046.66
2038.67
2030.73
2022.84
2014.98
2007.18
1999.41
1991.68
1983.98
1976.31
1968.69
1961.08
1953.5
1945.95
1938.42
1930.91
1923.42
1915.94
1908.47
1901.02
1893.58
1886.14
3545.39
3216.07
3071.42
2973.88
2899.96
2840.54
2790.83
2748.01
2710.34
2676.65
2646.12
2618.15
2592.33
2568.3
2545.81
2524.62
2504.59
2485.59
2467.47
2450.15
2433.54
2417.59
2402.22
2387.38
2373.03
2359.12
2345.62
2332.51
2319.75
2307.31
2295.18
2283.33
2271.74
2260.4
2249.29
2238.4
2227.71
2217.22
2206.9
2196.77
2186.8
2176.97
2167.3
2157.76
2148.35
2139.07
2129.91
2120.86
2111.92
2103.08
2094.34
2085.7
2077.14
2068.67
2060.28
2051.96
2043.72
2035.55
2027.45
2019.41
2011.43
2003.52
1995.66
1987.84
1980.08
1972.37
1964.71
1957.08
1949.5
1941.96
1934.45
1926.98
1919.54
1912.12
1904.74
1897.38
1890.04
1882.73
1875.44
1868.16
1860.9
1853.65
1846.41
1839.18
1831.96
3443.51
3123.66
2983.16
2888.42
2816.62
2758.91
2710.61
2669.02
2632.43
2599.71
2570.05
2542.88
2517.79
2494.46
2472.61
2452.03
2432.58
2414.11
2396.51
2379.68
2363.56
2348.05
2333.12
2318.71
2304.77
2291.27
2278.16
2265.42
2253.02
2240.94
2229.15
2217.64
2206.39
2195.38
2184.59
2174.02
2163.63
2153.44
2143.43
2133.59
2123.9
2114.36
2104.96
2095.7
2086.57
2077.56
2068.66
2059.87
2051.19
2042.61
2034.12
2025.73
2017.42
2009.19
2001.05
1992.97
1984.97
1977.04
1969.17
1961.37
1953.62
1945.93
1938.3
1930.72
1923.18
1915.69
1908.25
1900.84
1893.48
1886.16
1878.87
1871.61
1864.39
1857.19
1850.01
1842.87
1835.74
1828.65
1821.56
1814.49
1807.44
1800.4
1793.37
1786.35
1779.33
3344.56
3033.9
2897.45
2805.42
2735.69
2679.62
2632.71
2592.31
2556.77
2524.98
2496.17
2469.78
2445.41
2422.75
2401.52
2381.53
2362.64
2344.69
2327.59
2311.25
2295.59
2280.54
2266.03
2252.03
2238.49
2225.37
2212.64
2200.27
2188.23
2176.49
2165.04
2153.86
2142.93
2132.23
2121.76
2111.49
2101.4
2091.51
2081.78
2072.22
2062.81
2053.55
2044.43
2035.43
2026.56
2017.81
2009.17
2000.64
1992.21
1983.88
1975.64
1967.48
1959.42
1951.43
1943.52
1935.68
1927.91
1920.21
1912.57
1904.99
1897.47
1890.01
1882.59
1875.23
1867.91
1860.64
1853.41
1846.22
1839.08
1831.96
1824.88
1817.83
1810.82
1803.83
1796.86
1789.92
1783
1776.11
1769.23
1762.36
1755.51
1748.68
1741.85
1735.03
1728.21
3248.46
2946.72
2814.19
2724.82
2657.08
2602.62
2557.05
2517.81
2483.28
2452.4
2424.42
2398.79
2375.12
2353.1
2332.48
2313.06
2294.71
2277.28
2260.67
2244.8
2229.59
2214.96
2200.87
2187.27
2174.12
2161.38
2149.02
2137
2125.3
2113.9
2102.78
2091.92
2081.3
2070.92
2060.74
2050.77
2040.97
2031.36
2021.92
2012.63
2003.49
1994.49
1985.64
1976.9
1968.29
1959.79
1951.4
1943.11
1934.93
1926.84
1918.83
1910.92
1903.08
1895.33
1887.65
1880.03
1872.49
1865.01
1857.59
1850.24
1842.93
1835.68
1828.48
1821.33
1814.23
1807.17
1800.15
1793.17
1786.23
1779.32
1772.44
1765.6
1758.78
1752
1745.23
1738.49
1731.78
1725.08
1718.4
1711.73
1705.08
1698.44
1691.8
1685.18
1678.56
3155.12
2862.05
2733.33
2646.53
2580.72
2527.84
2483.57
2445.45
2411.91
2381.92
2354.73
2329.84
2306.85
2285.46
2265.43
2246.57
2228.74
2211.82
2195.68
2180.27
2165.49
2151.28
2137.59
2124.39
2111.61
2099.24
2087.23
2075.55
2064.19
2053.12
2042.32
2031.77
2021.46
2011.37
2001.48
1991.79
1982.28
1972.94
1963.78
1954.75
1945.88
1937.15
1928.54
1920.06
1911.69
1903.44
1895.29
1887.25
1879.3
1871.44
1863.67
1855.98
1848.37
1840.84
1833.38
1825.99
1818.66
1811.4
1804.2
1797.05
1789.96
1782.92
1775.93
1768.99
1762.09
1755.23
1748.42
1741.64
1734.9
1728.19
1721.51
1714.87
1708.25
1701.66
1695.09
1688.54
1682.02
1675.51
1669.02
1662.55
1656.09
1649.64
1643.2
1636.76
1630.34
3064.45
2779.82
2654.8
2570.49
2506.57
2455.2
2412.2
2375.17
2342.6
2313.46
2287.05
2262.88
2240.54
2219.77
2200.31
2182
2164.68
2148.24
2132.57
2117.59
2103.23
2089.43
2076.15
2063.32
2050.91
2038.88
2027.21
2015.88
2004.84
1994.09
1983.6
1973.35
1963.34
1953.54
1943.93
1934.52
1925.29
1916.22
1907.31
1898.55
1889.94
1881.45
1873.09
1864.85
1856.73
1848.71
1840.8
1832.99
1825.27
1817.63
1810.09
1802.62
1795.24
1787.92
1780.68
1773.5
1766.38
1759.33
1752.34
1745.4
1738.51
1731.67
1724.89
1718.15
1711.45
1704.79
1698.17
1691.59
1685.04
1678.53
1672.04
1665.59
1659.16
1652.76
1646.38
1640.03
1633.69
1627.37
1621.07
1614.78
1608.51
1602.24
1595.99
1589.74
1583.49
2976.4
2699.95
2578.52
2496.64
2434.55
2384.64
2342.88
2306.92
2275.27
2246.98
2221.33
2197.85
2176.15
2155.97
2137.07
2119.28
2102.46
2086.48
2071.26
2056.72
2042.78
2029.37
2016.47
2004
1991.95
1980.27
1968.93
1957.93
1947.21
1936.76
1926.57
1916.62
1906.89
1897.37
1888.04
1878.9
1869.94
1861.13
1852.47
1843.97
1835.6
1827.35
1819.24
1811.24
1803.35
1795.56
1787.88
1780.29
1772.79
1765.38
1758.05
1750.8
1743.63
1736.52
1729.49
1722.52
1715.61
1708.76
1701.97
1695.23
1688.54
1681.9
1675.31
1668.77
1662.26
1655.79
1649.36
1642.97
1636.62
1630.29
1623.99
1617.73
1611.48
1605.27
1599.07
1592.9
1586.75
1580.61
1574.49
1568.39
1562.29
1556.21
1550.13
1544.06
1538
2890.88
2622.37
2504.44
2424.91
2364.61
2316.13
2275.56
2240.63
2209.9
2182.4
2157.49
2134.68
2113.61
2094.01
2075.65
2058.37
2042.03
2026.51
2011.73
1997.6
1984.06
1971.04
1958.5
1946.4
1934.69
1923.35
1912.33
1901.64
1891.23
1881.09
1871.19
1861.52
1852.07
1842.83
1833.77
1824.89
1816.17
1807.63
1799.22
1790.95
1782.82
1774.82
1766.94
1759.17
1751.51
1743.94
1736.48
1729.11
1721.83
1714.63
1707.51
1700.47
1693.5
1686.6
1679.77
1673
1666.29
1659.65
1653.05
1646.51
1640.01
1633.56
1627.16
1620.8
1614.48
1608.2
1601.96
1595.76
1589.58
1583.44
1577.33
1571.24
1565.18
1559.14
1553.12
1547.13
1541.15
1535.2
1529.25
1523.32
1517.4
1511.49
1505.59
1499.7
1493.81
2807.81
2547.03
2432.49
2355.24
2296.67
2249.58
2210.18
2176.24
2146.39
2119.69
2095.49
2073.33
2052.87
2033.83
2015.99
1999.21
1983.34
1968.27
1953.91
1940.19
1927.03
1914.39
1902.2
1890.45
1879.08
1868.06
1857.37
1846.98
1836.86
1827.01
1817.4
1808.01
1798.84
1789.85
1781.05
1772.43
1763.97
1755.66
1747.5
1739.47
1731.57
1723.8
1716.14
1708.59
1701.16
1693.81
1686.56
1679.4
1672.33
1665.34
1658.43
1651.59
1644.83
1638.12
1631.49
1624.91
1618.4
1611.94
1605.54
1599.18
1592.87
1586.61
1580.4
1574.22
1568.08
1561.98
1555.92
1549.89
1543.9
1537.94
1532
1526.09
1520.2
1514.34
1508.5
1502.68
1496.87
1491.08
1485.31
1479.55
1473.8
1468.06
1462.33
1456.61
1450.89
2727.13
2473.85
2362.6
2287.57
2230.68
2184.95
2146.68
2113.71
2084.71
2058.78
2035.28
2013.76
1993.88
1975.37
1958.06
1941.76
1926.34
1911.71
1897.75
1884.42
1871.65
1859.36
1847.53
1836.11
1825.07
1814.37
1803.98
1793.89
1784.07
1774.5
1765.16
1756.04
1747.12
1738.4
1729.86
1721.48
1713.26
1705.19
1697.26
1689.47
1681.8
1674.25
1666.81
1659.48
1652.25
1645.12
1638.08
1631.13
1624.26
1617.47
1610.76
1604.12
1597.55
1591.04
1584.59
1578.21
1571.88
1565.61
1559.39
1553.21
1547.09
1541.01
1534.97
1528.98
1523.02
1517.09
1511.21
1505.35
1499.53
1493.74
1487.97
1482.23
1476.52
1470.82
1465.15
1459.49
1453.86
1448.24
1442.63
1437.04
1431.45
1425.88
1420.31
1414.76
1409.2
2648.77
2402.77
2294.72
2221.84
2166.59
2122.17
2085
2052.98
2024.81
1999.62
1976.79
1955.89
1936.58
1918.61
1901.79
1885.96
1870.98
1856.76
1843.22
1830.27
1817.86
1805.92
1794.43
1783.34
1772.61
1762.22
1752.13
1742.33
1732.79
1723.49
1714.42
1705.57
1696.91
1688.44
1680.14
1672
1664.02
1656.18
1648.48
1640.91
1633.46
1626.12
1618.9
1611.78
1604.76
1597.83
1591
1584.25
1577.57
1570.98
1564.46
1558.01
1551.63
1545.31
1539.05
1532.85
1526.7
1520.61
1514.57
1508.57
1502.62
1496.72
1490.85
1485.03
1479.25
1473.49
1467.78
1462.09
1456.44
1450.81
1445.21
1439.63
1434.09
1428.55
1423.05
1417.55
1412.08
1406.62
1401.18
1395.74
1390.32
1384.91
1379.5
1374.1
1368.71
2572.67
2333.74
2228.79
2158.01
2104.34
2061.21
2025.1
1994
1966.64
1942.18
1919.99
1899.69
1880.93
1863.48
1847.14
1831.76
1817.21
1803.41
1790.25
1777.67
1765.62
1754.03
1742.87
1732.09
1721.67
1711.57
1701.78
1692.25
1682.99
1673.96
1665.15
1656.55
1648.14
1639.91
1631.84
1623.94
1616.19
1608.58
1601.1
1593.74
1586.51
1579.38
1572.37
1565.46
1558.64
1551.91
1545.27
1538.71
1532.23
1525.83
1519.49
1513.23
1507.03
1500.89
1494.81
1488.79
1482.82
1476.9
1471.04
1465.22
1459.44
1453.71
1448.01
1442.35
1436.74
1431.15
1425.6
1420.07
1414.58
1409.12
1403.68
1398.26
1392.88
1387.5
1382.15
1376.82
1371.5
1366.2
1360.91
1355.64
1350.37
1345.11
1339.86
1334.62
1329.38
2498.75
2266.69
2164.76
2096.01
2043.89
2002
1966.92
1936.72
1910.14
1886.38
1864.83
1845.11
1826.89
1809.94
1794.06
1779.12
1764.99
1751.58
1738.8
1726.58
1714.87
1703.62
1692.78
1682.31
1672.19
1662.38
1652.87
1643.62
1634.62
1625.85
1617.29
1608.93
1600.77
1592.77
1584.94
1577.27
1569.74
1562.34
1555.08
1547.93
1540.91
1533.99
1527.18
1520.46
1513.84
1507.3
1500.85
1494.48
1488.19
1481.97
1475.82
1469.73
1463.71
1457.75
1451.85
1446
1440.2
1434.45
1428.76
1423.1
1417.49
1411.92
1406.39
1400.9
1395.44
1390.02
1384.63
1379.26
1373.93
1368.62
1363.34
1358.08
1352.85
1347.63
1342.44
1337.25
1332.09
1326.94
1321.81
1316.68
1311.57
1306.46
1301.36
1296.27
1291.18
2426.95
2201.57
2102.56
2035.79
1985.18
1944.48
1910.42
1881.09
1855.27
1832.19
1811.26
1792.1
1774.4
1757.93
1742.52
1728
1714.28
1701.25
1688.83
1676.97
1665.59
1654.66
1644.13
1633.97
1624.14
1614.61
1605.37
1596.38
1587.64
1579.13
1570.81
1562.7
1554.76
1547
1539.39
1531.94
1524.62
1517.44
1510.39
1503.45
1496.62
1489.9
1483.28
1476.76
1470.33
1463.98
1457.72
1451.53
1445.42
1439.37
1433.41
1427.49
1421.65
1415.86
1410.12
1404.44
1398.81
1393.23
1387.69
1382.2
1376.76
1371.34
1365.98
1360.64
1355.34
1350.07
1344.84
1339.63
1334.45
1329.29
1324.16
1319.05
1313.97
1308.9
1303.86
1298.83
1293.81
1288.81
1283.82
1278.85
1273.88
1268.92
1263.97
1259.02
1254.08
2357.22
2138.32
2042.16
1977.3
1928.14
1888.62
1855.54
1827.05
1801.97
1779.55
1759.23
1740.62
1723.43
1707.43
1692.46
1678.36
1665.03
1652.37
1640.31
1628.78
1617.73
1607.11
1596.88
1587.01
1577.46
1568.21
1559.23
1550.51
1542.02
1533.74
1525.67
1517.79
1510.08
1502.54
1495.15
1487.91
1480.81
1473.83
1466.98
1460.24
1453.61
1447.08
1440.66
1434.32
1428.07
1421.91
1415.82
1409.81
1403.88
1398.01
1392.21
1386.47
1380.79
1375.16
1369.59
1364.08
1358.61
1353.19
1347.81
1342.48
1337.19
1331.93
1326.72
1321.54
1316.39
1311.27
1306.19
1301.13
1296.1
1291.09
1286.11
1281.15
1276.21
1271.29
1266.39
1261.5
1256.63
1251.78
1246.93
1242.1
1237.27
1232.45
1227.65
1222.84
1218.04
2289.49
2076.88
1983.5
1920.5
1872.75
1834.36
1802.23
1774.56
1750.21
1728.43
1708.68
1690.61
1673.92
1658.38
1643.84
1630.15
1617.2
1604.9
1593.19
1581.99
1571.26
1560.94
1551
1541.41
1532.13
1523.15
1514.42
1505.95
1497.7
1489.66
1481.83
1474.17
1466.69
1459.36
1452.18
1445.15
1438.25
1431.48
1424.82
1418.27
1411.84
1405.5
1399.25
1393.1
1387.03
1381.04
1375.13
1369.3
1363.53
1357.83
1352.2
1346.62
1341.1
1335.64
1330.23
1324.87
1319.56
1314.3
1309.08
1303.9
1298.76
1293.66
1288.59
1283.56
1278.56
1273.59
1268.65
1263.73
1258.85
1253.99
1249.15
1244.33
1239.53
1234.76
1229.99
1225.25
1220.52
1215.8
1211.1
1206.4
1201.72
1197.04
1192.37
1187.7
2223.7
2017.21
1926.51
1865.33
1818.95
1781.66
1750.45
1723.58
1699.93
1678.77
1659.6
1642.04
1625.83
1610.74
1596.62
1583.32
1570.74
1558.8
1547.42
1536.54
1526.12
1516.1
1506.45
1497.12
1488.11
1479.38
1470.91
1462.67
1454.66
1446.86
1439.24
1431.81
1424.54
1417.42
1410.45
1403.62
1396.92
1390.34
1383.88
1377.51
1371.26
1365.1
1359.04
1353.06
1347.17
1341.35
1335.61
1329.95
1324.34
1318.81
1313.34
1307.92
1302.56
1297.26
1292
1286.8
1281.64
1276.53
1271.46
1266.43
1261.43
1256.48
1251.56
1246.67
1241.81
1236.99
1232.19
1227.42
1222.67
1217.95
1213.25
1208.57
1203.91
1199.27
1194.65
1190.04
1185.44
1180.86
1176.29
1171.73
1167.18
1162.64
1158.1
1153.57
2159.82
1959.25
1871.16
1811.73
1766.7
1730.48
1700.17
1674.06
1651.09
1630.54
1611.92
1594.87
1579.12
1564.46
1550.75
1537.83
1525.61
1514.02
1502.96
1492.4
1482.27
1472.54
1463.17
1454.12
1445.36
1436.88
1428.65
1420.65
1412.87
1405.29
1397.89
1390.66
1383.6
1376.69
1369.92
1363.29
1356.78
1350.38
1344.1
1337.93
1331.85
1325.87
1319.98
1314.18
1308.45
1302.8
1297.23
1291.72
1286.28
1280.91
1275.59
1270.33
1265.13
1259.98
1254.88
1249.82
1244.81
1239.84
1234.91
1230.03
1225.18
1220.37
1215.59
1210.84
1206.13
1201.44
1196.78
1192.14
1187.53
1182.95
1178.38
1173.84
1169.31
1164.81
1160.32
1155.84
1151.38
1146.93
1142.49
1138.06
1133.64
1129.23
1124.82
1120.42
2097.76
1902.96
1817.4
1759.68
1715.94
1680.76
1651.33
1625.97
1603.65
1583.7
1565.62
1549.05
1533.75
1519.52
1506.2
1493.65
1481.78
1470.52
1459.78
1449.52
1439.68
1430.24
1421.13
1412.34
1403.84
1395.6
1387.61
1379.84
1372.28
1364.92
1357.73
1350.71
1343.85
1337.13
1330.56
1324.11
1317.79
1311.58
1305.48
1299.48
1293.58
1287.77
1282.05
1276.41
1270.85
1265.36
1259.95
1254.6
1249.32
1244.1
1238.93
1233.83
1228.77
1223.77
1218.81
1213.9
1209.04
1204.21
1199.43
1194.68
1189.97
1185.3
1180.66
1176.04
1171.46
1166.91
1162.39
1157.88
1153.41
1148.95
1144.52
1140.1
1135.71
1131.33
1126.97
1122.62
1118.29
1113.97
1109.66
1105.35
1101.06
1096.78
1092.5
1088.22
2037.49
1848.29
1765.18
1709.13
1666.64
1632.48
1603.89
1579.26
1557.59
1538.21
1520.64
1504.55
1489.69
1475.86
1462.92
1450.74
1439.21
1428.28
1417.84
1407.88
1398.33
1389.14
1380.3
1371.77
1363.51
1355.51
1347.75
1340.2
1332.86
1325.71
1318.73
1311.91
1305.24
1298.72
1292.33
1286.07
1279.93
1273.9
1267.97
1262.14
1256.41
1250.77
1245.21
1239.73
1234.33
1229
1223.74
1218.55
1213.42
1208.35
1203.33
1198.37
1193.46
1188.6
1183.78
1179.02
1174.29
1169.61
1164.96
1160.35
1155.77
1151.23
1146.73
1142.25
1137.8
1133.38
1128.98
1124.61
1120.26
1115.93
1111.63
1107.34
1103.07
1098.82
1094.58
1090.36
1086.15
1081.95
1077.77
1073.59
1069.42
1065.26
1061.1
1056.95
1978.94
1795.19
1714.47
1660.03
1618.76
1585.58
1557.8
1533.89
1512.84
1494.01
1476.95
1461.33
1446.9
1433.46
1420.9
1409.06
1397.86
1387.24
1377.11
1367.43
1358.15
1349.24
1340.65
1332.36
1324.33
1316.57
1309.03
1301.7
1294.57
1287.62
1280.84
1274.22
1267.75
1261.41
1255.21
1249.13
1243.16
1237.3
1231.55
1225.88
1220.32
1214.84
1209.44
1204.11
1198.87
1193.69
1188.58
1183.53
1178.55
1173.62
1168.75
1163.93
1159.16
1154.44
1149.77
1145.13
1140.54
1136
1131.48
1127
1122.56
1118.15
1113.77
1109.42
1105.1
1100.8
1096.54
1092.29
1088.07
1083.86
1079.68
1075.52
1071.37
1067.24
1063.13
1059.03
1054.94
1050.86
1046.79
1042.74
1038.68
1034.64
1030.6
1026.57
1922.08
1743.61
1665.21
1612.34
1572.26
1540.03
1513.05
1489.82
1469.38
1451.09
1434.52
1419.35
1405.33
1392.28
1380.07
1368.58
1357.7
1347.39
1337.55
1328.15
1319.14
1310.47
1302.13
1294.08
1286.29
1278.75
1271.43
1264.31
1257.38
1250.63
1244.05
1237.62
1231.33
1225.18
1219.15
1213.24
1207.45
1201.76
1196.17
1190.67
1185.26
1179.94
1174.69
1169.52
1164.43
1159.4
1154.44
1149.54
1144.69
1139.91
1135.18
1130.5
1125.86
1121.28
1116.73
1112.23
1107.77
1103.35
1098.97
1094.62
1090.3
1086.02
1081.76
1077.54
1073.34
1069.17
1065.02
1060.9
1056.8
1052.71
1048.65
1044.61
1040.58
1036.57
1032.57
1028.59
1024.62
1020.66
1016.71
1012.77
1008.83
1004.91
1000.99
997.071
1866.86
1693.51
1617.37
1566.02
1527.09
1495.78
1469.59
1447.02
1427.16
1409.4
1393.31
1378.57
1364.96
1352.29
1340.43
1329.26
1318.7
1308.68
1299.12
1289.99
1281.24
1272.83
1264.72
1256.9
1249.34
1242.01
1234.9
1227.99
1221.26
1214.7
1208.31
1202.06
1195.96
1189.98
1184.12
1178.39
1172.76
1167.23