/*--------------------------------*- C++ -*----------------------------------*\
  =========                 |
  \\      /  F ield         | OpenFOAM: The Open Source CFD Toolbox
   \\    /   O peration     | Website:  https://openfoam.org
    \\  /    A nd           | Version:  10
     \\/     M anipulation  |
\*---------------------------------------------------------------------------*/
FoamFile
{
    format      ascii;
    class       volScalarField;
    location    "30000";
    object      omega;
}
// * * * * * * * * * * * * * * * * * * * * * * * * * * * * * * * * * * * * * //

dimensions      [0 0 -1 0 0 0 0];

internalField   nonuniform List<scalar> 
17808
(
12058
4857.78
2774.23
1906.03
1439
1149.92
954.178
813.157
706.846
623.89
557.384
502.891
457.436
418.948
385.945
357.334
332.297
310.205
290.569
273.003
257.196
242.899
229.906
218.048
207.182
197.191
187.973
179.443
171.528
164.163
157.295
150.875
144.862
139.219
133.913
128.915
124.2
119.746
115.532
111.539
107.751
104.153
100.733
97.4763
94.3735
91.414
88.5886
85.8889
83.3072
80.8362
78.4696
76.2012
74.0255
71.9373
69.9319
68.0048
66.152
64.3697
62.6542
61.0022
59.4108
57.8769
56.398
54.9713
53.5946
52.2656
50.9823
49.7429
48.5453
47.3879
46.269
45.187
44.1405
43.1281
42.1484
41.2004
40.2827
39.3943
38.5341
37.7012
36.8946
36.1134
35.3568
34.624
33.9142
33.2267
32.5609
31.9161
31.2917
30.687
30.1017
29.5351
12055.6
4857.93
2775.6
1907.42
1440.18
1150.87
954.943
813.773
707.346
624.301
557.723
503.174
457.673
419.149
386.116
357.481
332.423
310.314
290.664
273.085
257.269
242.963
229.962
218.097
207.226
197.23
188.008
179.474
171.555
164.188
157.317
150.895
144.88
139.235
133.927
128.928
124.212
119.757
115.542
111.548
107.759
104.161
100.739
97.4824
94.379
91.419
88.5933
85.8932
83.3111
80.8398
78.4729
76.2042
74.0283
71.9399
69.9343
68.007
66.1541
64.3716
62.656
61.0039
59.4124
57.8784
56.3993
54.9726
53.5958
52.2668
50.9835
49.7439
48.5463
47.3889
46.2699
45.1879
44.1413
43.1289
42.1492
41.2011
40.2834
39.395
38.5348
37.7018
36.8952
36.114
35.3574
34.6246
33.9148
33.2273
32.5615
31.9167
31.2922
30.6876
30.1022
29.5356
12056.3
4857.31
2776.36
1908.14
1440.79
1151.38
955.37
814.134
707.654
624.565
557.952
503.373
457.847
419.301
386.249
357.598
332.527
310.405
290.745
273.157
257.332
243.019
230.013
218.142
207.266
197.266
188.04
179.503
171.581
164.211
157.338
150.914
144.897
139.25
133.941
128.941
124.224
119.767
115.551
111.556
107.767
104.168
100.746
97.4883
94.3844
91.424
88.5978
85.8973
83.3148
80.8433
78.4761
76.2071
74.0309
71.9423
69.9366
68.0092
66.156
64.3734
62.6576
61.0055
59.4138
57.8797
56.4006
54.9737
53.5969
52.2678
50.9845
49.7449
48.5472
47.3897
46.2707
45.1886
44.142
43.1296
42.1499
41.2017
40.284
39.3956
38.5353
37.7024
36.8957
36.1145
35.3579
34.6251
33.9153
33.2278
32.562
31.9171
31.2927
30.688
30.1027
29.536
12057.2
4856.6
2776.89
1908.66
1441.23
1151.76
955.685
814.397
707.878
624.758
558.12
503.521
457.979
419.418
386.354
357.692
332.611
310.481
290.813
273.218
257.387
243.069
230.058
218.183
207.303
197.299
188.07
179.53
171.606
164.234
157.358
150.933
144.914
139.265
133.955
128.953
124.235
119.778
115.56
111.565
107.775
104.175
100.752
97.4943
94.3899
91.429
88.6024
85.9015
83.3187
80.8468
78.4793
76.2101
74.0337
71.9449
69.9389
68.0113
66.158
64.3752
62.6593
61.0071
59.4153
57.8811
56.4018
54.9749
53.598
52.2689
50.9855
49.7459
48.5481
47.3906
46.2715
45.1894
44.1428
43.1303
42.1506
41.2024
40.2846
39.3962
38.5359
37.7029
36.8963
36.1151
35.3584
34.6256
33.9158
33.2283
32.5624
31.9176
31.2931
30.6885
30.1031
29.5365
12058.2
4855.54
2777.03
1908.9
1441.5
1152.01
955.91
814.591
708.045
624.904
558.249
503.636
458.081
419.511
386.438
357.768
332.68
310.544
290.87
273.27
257.435
243.112
230.097
218.219
207.335
197.329
188.097
179.555
171.628
164.254
157.377
150.95
144.93
139.28
133.968
128.965
124.246
119.788
115.57
111.573
107.783
104.182
100.759
97.5003
94.3954
91.434
88.607
85.9058
83.3226
80.8504
78.4826
76.2132
74.0365
71.9475
69.9413
68.0135
66.1601
64.3771
62.6611
61.0087
59.4168
57.8825
56.4032
54.9762
53.5992
52.27
50.9865
49.7468
48.5491
47.3914
46.2723
45.1902
44.1435
43.131
42.1512
41.203
40.2853
39.3968
38.5365
37.7035
36.8968
36.1156
35.3589
34.6261
33.9163
33.2288
32.5629
31.9181
31.2936
30.6889
30.1036
29.5369
12059.5
4854.37
2776.94
1908.97
1441.64
1152.17
956.059
814.725
708.165
625.01
558.344
503.722
458.16
419.583
386.503
357.828
332.735
310.595
290.917
273.314
257.475
243.149
230.131
218.25
207.364
197.355
188.121
179.577
171.649
164.273
157.395
150.966
144.944
139.293
133.981
128.977
124.257
119.798
115.579
111.582
107.79
104.189
100.765
97.5062
94.4008
91.439
88.6116
85.91
83.3265
80.854
78.4859
76.2163
74.0394
71.9501
69.9437
68.0158
66.1622
64.3791
62.6629
61.0104
59.4184
57.884
56.4045
54.9775
53.6004
52.2711
50.9876
49.7479
48.55
47.3923
46.2732
45.191
44.1443
43.1317
42.1519
41.2037
40.2859
39.3974
38.5371
37.7041
36.8974
36.1161
35.3595
34.6266
33.9168
33.2293
32.5634
31.9185
31.2941
30.6894
30.104
29.5374
12060.9
4853.29
2776.76
1908.97
1441.73
1152.27
956.162
814.821
708.251
625.089
558.416
503.787
458.22
419.638
386.555
357.876
332.78
310.636
290.956
273.35
257.508
243.18
230.16
218.277
207.389
197.378
188.143
179.597
171.668
164.29
157.411
150.981
144.958
139.306
133.992
128.988
124.267
119.807
115.587
111.59
107.797
104.196
100.772
97.512
94.4062
91.444
88.6161
85.9142
83.3304
80.8576
78.4893
76.2193
74.0422
71.9528
69.9462
68.0181
66.1643
64.381
62.6647
61.0121
59.42
57.8855
56.4059
54.9788
53.6016
52.2723
50.9887
49.7489
48.551
47.3933
46.2741
45.1918
44.1451
43.1324
42.1526
41.2044
40.2865
39.398
38.5377
37.7047
36.8979
36.1167
35.36
34.6271
33.9173
33.2297
32.5639
31.919
31.2945
30.6898
30.1044
29.5378
12062.2
4852.34
2776.52
1908.92
1441.77
1152.34
956.237
814.894
708.318
625.149
558.471
503.838
458.266
419.682
386.596
357.914
332.816
310.67
290.987
273.38
257.537
243.207
230.185
218.3
207.411
197.399
188.162
179.615
171.684
164.306
157.425
150.994
144.971
139.318
134.003
128.998
124.276
119.816
115.595
111.597
107.804
104.202
100.778
97.5176
94.4113
91.4488
88.6206
85.9184
83.3343
80.8612
78.4926
76.2224
74.0451
71.9554
69.9487
68.0204
66.1664
64.383
62.6666
61.0138
59.4216
57.887
56.4073
54.9801
53.6029
52.2735
50.9898
49.7499
48.552
47.3942
46.2749
45.1926
44.1459
43.1332
42.1533
41.2051
40.2872
39.3986
38.5383
37.7052
36.8985
36.1172
35.3605
34.6276
33.9178
33.2302
32.5643
31.9195
31.295
30.6903
30.1049
29.5382
12063.5
4851.49
2776.24
1908.85
1441.77
1152.38
956.29
814.947
708.369
625.196
558.514
503.877
458.303
419.716
386.628
357.945
332.845
310.698
291.014
273.404
257.56
243.229
230.206
218.32
207.43
197.416
188.179
179.631
171.699
164.32
157.438
151.006
144.982
139.328
134.013
129.007
124.285
119.824
115.603
111.604
107.811
104.209
100.783
97.5229
94.4164
91.4535
88.625
85.9224
83.338
80.8647
78.4959
76.2255
74.0479
71.9581
69.9511
68.0227
66.1686
64.385
62.6685
61.0155
59.4232
57.8885
56.4087
54.9814
53.6041
52.2747
50.9909
49.751
48.553
47.3951
46.2758
45.1935
44.1467
43.134
42.1541
41.2058
40.2878
39.3992
38.5389
37.7058
36.8991
36.1178
35.361
34.6281
33.9183
33.2307
32.5648
31.9199
31.2954
30.6907
30.1053
29.5386
12064.7
4850.73
2775.94
1908.75
1441.76
1152.4
956.324
814.986
708.407
625.232
558.547
503.909
458.333
419.744
386.655
357.97
332.869
310.721
291.035
273.425
257.58
243.248
230.224
218.337
207.446
197.432
188.193
179.645
171.712
164.332
157.45
151.017
144.992
139.338
134.022
129.016
124.293
119.831
115.61
111.611
107.817
104.214
100.789
97.5281
94.4212
91.458
88.6292
85.9263
83.3417
80.8681
78.4991
76.2285
74.0507
71.9607
69.9536
68.0249
66.1707
64.387
62.6703
61.0173
59.4248
57.89
56.4102
54.9828
53.6054
52.2759
50.9921
49.7521
48.554
47.3961
46.2767
45.1943
44.1475
43.1347
42.1548
41.2064
40.2885
39.3999
38.5395
37.7064
36.8996
36.1183
35.3616
34.6286
33.9187
33.2312
32.5653
31.9204
31.2959
30.6912
30.1057
29.5391
12065.9
4850.06
2775.64
1908.64
1441.73
1152.41
956.345
815.013
708.435
625.26
558.573
503.933
458.356
419.766
386.676
357.991
332.888
310.739
291.053
273.442
257.596
243.264
230.239
218.352
207.46
197.445
188.206
179.657
171.723
164.343
157.46
151.027
145.002
139.347
134.031
129.024
124.301
119.838
115.617
111.617
107.823
104.22
100.794
97.5329
94.4257
91.4623
88.6332
85.9301
83.3453
80.8715
78.5022
76.2314
74.0534
71.9632
69.956
68.0272
66.1728
64.389
62.6722
61.019
59.4264
57.8915
56.4116
54.9841
53.6067
52.2771
50.9932
49.7532
48.555
47.3971
46.2776
45.1952
44.1483
43.1355
42.1555
41.2072
40.2892
39.4005
38.5401
37.707
36.9002
36.1188
35.3621
34.6292
33.9193
33.2317
32.5658
31.9208
31.2963
30.6916
30.1062
29.5395
12066.9
4849.48
2775.33
1908.52
1441.68
1152.4
956.354
815.031
708.456
625.281
558.594
503.953
458.375
419.784
386.693
358.007
332.904
310.755
291.068
273.457
257.61
243.277
230.252
218.364
207.472
197.456
188.217
179.667
171.733
164.353
157.469
151.036
145.01
139.355
134.038
129.031
124.307
119.845
115.623
111.623
107.829
104.225
100.799
97.5375
94.4301
91.4663
88.637
85.9337
83.3487
80.8747
78.5052
76.2342
74.0561
71.9657
69.9583
68.0294
66.1749
64.3909
62.674
61.0207
59.4281
57.8931
56.4131
54.9855
53.608
52.2783
50.9944
49.7542
48.5561
47.398
46.2786
45.1961
44.1491
43.1363
42.1563
41.2079
40.2899
39.4012
38.5407
37.7076
36.9008
36.1194
35.3626
34.6297
33.9198
33.2322
32.5662
31.9213
31.2968
30.6921
30.1066
29.5399
12067.8
4848.96
2775.04
1908.4
1441.63
1152.38
956.355
815.041
708.47
625.296
558.609
503.968
458.389
419.798
386.706
358.02
332.917
310.767
291.081
273.469
257.622
243.288
230.263
218.375
207.482
197.466
188.226
179.676
171.742
164.361
157.477
151.044
145.017
139.362
134.045
129.037
124.313
119.851
115.628
111.628
107.834
104.23
100.803
97.5418
94.4341
91.4702
88.6407
85.9372
83.3519
80.8777
78.5081
76.2369
74.0587
71.9682
69.9606
68.0316
66.1769
64.3929
62.6758
61.0224
59.4297
57.8946
56.4145
54.9868
53.6092
52.2795
50.9955
49.7553
48.5571
47.399
46.2795
45.197
44.15
43.1371
42.157
41.2086
40.2905
39.4018
38.5414
37.7082
36.9014
36.12
35.3632
34.6302
33.9203
33.2327
32.5667
31.9218
31.2972
30.6925
30.107
29.5403
12068.6
4848.51
2774.76
1908.28
1441.57
1152.36
956.349
815.045
708.479
625.307
558.621
503.979
458.401
419.809
386.717
358.031
332.928
310.778
291.091
273.479
257.632
243.298
230.272
218.384
207.491
197.475
188.235
179.684
171.75
164.369
157.485
151.05
145.024
139.368
134.051
129.043
124.319
119.856
115.633
111.633
107.838
104.234
100.808
97.5458
94.4379
91.4738
88.6441
85.9404
83.355
80.8807
78.5109
76.2396
74.0612
71.9705
69.9628
68.0336
66.1789
64.3947
62.6776
61.0241
59.4312
57.8961
56.4159
54.9882
53.6105
52.2807
50.9967
49.7564
48.5581
47.4
46.2804
45.1978
44.1508
43.1379
42.1578
41.2093
40.2912
39.4025
38.542
37.7088
36.9019
36.1205
35.3637
34.6307
33.9208
33.2332
32.5672
31.9222
31.2977
30.693
30.1075
29.5408
12069.3
4848.11
2774.49
1908.15
1441.51
1152.33
956.338
815.043
708.483
625.314
558.629
503.988
458.409
419.818
386.726
358.04
332.936
310.786
291.099
273.487
257.64
243.306
230.28
218.391
207.498
197.482
188.242
179.691
171.757
164.375
157.491
151.057
145.03
139.374
134.056
129.048
124.324
119.861
115.638
111.638
107.843
104.238
100.811
97.5496
94.4415
91.4772
88.6473
85.9435
83.3579
80.8834
78.5135
76.2421
74.0635
71.9728
69.965
68.0357
66.1808
64.3965
62.6793
61.0257
59.4328
57.8975
56.4173
54.9895
53.6118
52.2819
50.9978
49.7575
48.5591
47.401
46.2814
45.1987
44.1516
43.1387
42.1586
41.21
40.2919
39.4031
38.5426
37.7094
36.9025
36.1211
35.3643
34.6313
33.9213
33.2337
32.5677
31.9227
31.2982
30.6934
30.108
29.5412
12069.9
4847.76
2774.24
1908.03
1441.44
1152.29
956.322
815.038
708.483
625.317
558.634
503.994
458.416
419.824
386.733
358.046
332.943
310.793
291.106
273.494
257.647
243.313
230.287
218.398
207.505
197.489
188.248
179.697
171.763
164.381
157.497
151.062
145.035
139.379
134.061
129.053
124.329
119.865
115.642
111.642
107.847
104.242
100.815
97.553
94.4448
91.4803
88.6504
85.9464
83.3607
80.8861
78.516
76.2444
74.0658
71.9749
69.967
68.0376
66.1827
64.3983
62.681
61.0273
59.4343
57.899
56.4187
54.9908
53.613
52.2831
50.9989
49.7586
48.5602
47.4019
46.2823
45.1996
44.1525
43.1395
42.1593
41.2108
40.2926
39.4038
38.5433
37.71
36.9031
36.1217
35.3648
34.6318
33.9218
33.2342
32.5682
31.9233
31.2988
30.694
30.1085
29.5417
12070.5
4847.46
2774.01
1907.91
1441.38
1152.26
956.303
815.029
708.48
625.317
558.636
503.997
458.42
419.829
386.738
358.052
332.949
310.799
291.112
273.5
257.652
243.319
230.292
218.404
207.511
197.494
188.253
179.703
171.768
164.386
157.501
151.067
145.04
139.384
134.066
129.057
124.333
119.869
115.646
111.645
107.85
104.246
100.818
97.5562
94.4479
91.4833
88.6532
85.9491
83.3632
80.8885
78.5184
76.2467
74.068
71.977
69.969
68.0395
66.1845
64.4
62.6826
61.0289
59.4358
57.9004
56.42
54.9921
53.6142
52.2843
51.0001
49.7596
48.5612
47.4029
46.2832
45.2005
44.1533
43.1403
42.1601
41.2115
40.2933
39.4045
38.5439
37.7106
36.9037
36.1222
35.3654
34.6323
33.9223
33.2347
32.5687
31.9239
12071
4847.18
2773.8
1907.79
1441.32
1152.22
956.281
815.017
708.474
625.315
558.637
503.999
458.422
419.832
386.741
358.055
332.953
310.803
291.116
273.504
257.657
243.323
230.297
218.408
207.515
197.499
188.258
179.707
171.772
164.39
157.506
151.071
145.044
139.388
134.07
129.061
124.336
119.873
115.65
111.649
107.853
104.249
100.821
97.5591
94.4507
91.486
88.6558
85.9516
83.3657
80.8908
78.5206
76.2488
74.07
71.9789
69.9708
68.0413
66.1862
64.4016
62.6842
61.0304
59.4372
57.9018
56.4213
54.9933
53.6154
52.2854
51.0011
49.7607
48.5622
47.4039
46.2841
45.2014
44.1541
43.1411
42.1608
41.2122
40.294
39.4051
38.5446
37.7113
36.9043
36.1228
35.3659
34.6329
33.9229
33.2353
32.5693
31.9244
12071.4
4846.94
2773.6
1907.68
1441.25
1152.18
956.258
815.003
708.466
625.311
558.635
503.999
458.424
419.834
386.744
358.058
332.956
310.806
291.12
273.508
257.661
243.327
230.301
218.412
207.519
197.503
188.262
179.711
171.776
164.394
157.51
151.075
145.048
139.391
134.073
129.065
124.34
119.876
115.653
111.652
107.856
104.252
100.824
97.5618
94.4533
91.4885
88.6582
85.9539
83.3679
80.893
78.5227
76.2508
74.0719
71.9808
69.9726
68.043
66.1878
64.4032
62.6857
61.0318
59.4386
57.9031
56.4226
54.9945
53.6166
52.2865
51.0022
49.7617
48.5632
47.4048
46.285
45.2022
44.155
43.1419
42.1616
41.2129
40.2947
39.4058
38.5452
37.7119
36.9049
36.1234
35.3665
34.6335
33.9235
33.2359
32.5699
31.925
12071.8
4846.73
2773.42
1907.58
1441.19
1152.14
956.233
814.987
708.456
625.305
558.632
503.998
458.423
419.835
386.745
358.06
332.958
310.809
291.122
273.511
257.664
243.33
230.304
218.416
207.523
197.506
188.265
179.715
171.78
164.398
157.513
151.078
145.051
139.394
134.076
129.068
124.343
119.879
115.656
111.655
107.859
104.254
100.827
97.5643
94.4557
91.4908
88.6605
85.9561
83.37
80.895
78.5246
76.2527
74.0738
71.9825
69.9743
68.0446
66.1894
64.4047
62.6871
61.0332
59.4399
57.9044
56.4238
54.9957
53.6177
52.2876
51.0033
49.7627
48.5641
47.4057
46.2859
45.2031
44.1558
43.1426
42.1623
41.2136
40.2954
39.4065
38.5458
37.7125
36.9055
36.124
35.3671
34.6341
33.9242
12072.2
4846.53
2773.26
1907.48
1441.13
1152.1
956.208
814.97
708.445
625.298
558.627
503.995
458.422
419.834
386.745
358.061
332.959
310.81
291.124
273.513
257.666
243.333
230.307
218.418
207.525
197.509
188.268
179.717
171.783
164.4
157.516
151.081
145.054
139.397
134.079
129.07
124.346
119.882
115.658
111.657
107.861
104.257
100.829
97.5665
94.4579
91.493
88.6625
85.9581
83.372
80.8969
78.5265
76.2545
74.0755
71.9842
69.9759
68.0462
66.1908
64.4061
62.6885
61.0345
59.4412
57.9056
56.425
54.9969
53.6188
52.2887
51.0043
49.7637
48.5651
47.4066
46.2868
45.2039
44.1566
43.1434
42.1631
41.2144
40.2961
39.4071
38.5465
37.7131
36.9061
36.1246
35.3677
34.6347
33.9248
12072.5
4846.36
2773.11
1907.38
1441.07
1152.07
956.183
814.953
708.433
625.289
558.621
503.991
458.419
419.833
386.744
358.061
332.959
310.811
291.125
273.514
257.668
243.335
230.309
218.421
207.528
197.512
188.271
179.72
171.785
164.403
157.518
151.083
145.056
139.4
134.082
129.073
124.348
119.884
115.661
111.659
107.864
104.259
100.831
97.5686
94.4599
91.4949
88.6645
85.96
83.3738
80.8987
78.5282
76.2562
74.0771
71.9857
69.9774
68.0476
66.1922
64.4075
62.6898
61.0358
59.4424
57.9068
56.4261
54.998
53.6199
52.2897
51.0053
49.7647
48.566
47.4075
46.2876
45.2047
44.1574
43.1442
42.1638
41.2151
40.2968
39.4078
38.5471
37.7137
36.9067
36.1252
35.3683
34.6353
33.9254
12072.8
4846.2
2772.97
1907.29
1441.01
1152.03
956.157
814.935
708.42
625.28
558.614
503.986
458.416
419.83
386.743
358.06
332.959
310.811
291.126
273.515
257.669
243.336
230.311
218.422
207.53
197.514
188.273
179.722
171.787
164.405
157.521
151.086
145.058
139.402
134.084
129.075
124.35
119.886
115.663
111.661
107.866
104.261
100.833
97.5705
94.4618
91.4968
88.6662
85.9617
83.3755
80.9003
78.5298
76.2577
74.0786
71.9872
69.9788
68.049
66.1936
64.4088
62.691
61.037
59.4436
57.9079
56.4272
54.999
53.6209
52.2907
51.0062
49.7656
48.5669
47.4084
46.2885
45.2055
44.1581
43.1449
42.1645
41.2158
40.2974
39.4085
38.5478
37.7144
36.9073
36.1258
35.3689
34.6359
33.926
12073
4846.05
2772.84
1907.21
1440.96
1151.99
956.132
814.916
708.406
625.27
558.606
503.98
458.411
419.827
386.74
358.058
332.958
310.811
291.126
273.516
257.67
243.337
230.312
218.424
207.531
197.515
188.275
179.724
171.789
164.407
157.523
151.088
145.06
139.404
134.086
129.077
124.352
119.888
115.665
111.663
107.868
104.263
100.835
97.5723
94.4635
91.4984
88.6679
85.9633
83.377
80.9019
78.5313
76.2592
74.08
71.9886
69.9801
68.0503
66.1948
64.41
62.6922
61.0382
59.4447
57.909
56.4283
55
53.6219
52.2917
51.0072
49.7665
48.5678
47.4092
46.2893
45.2063
44.1589
43.1457
42.1652
41.2165
40.2981
39.4091
38.5484
37.715
36.908
36.1264
35.3695
34.6365
33.9266
12073.3
4845.92
2772.72
1907.13
1440.91
1151.96
956.108
814.898
708.392
625.259
558.598
503.973
458.406
419.823
386.738
358.056
332.957
310.81
291.125
273.516
257.67
243.338
230.313
218.425
207.532
197.516
188.276
179.725
171.791
164.409
157.524
151.089
145.062
139.406
134.088
129.079
124.354
119.89
115.666
111.665
107.869
104.264
100.837
97.5739
94.4651
91.5
88.6694
85.9648
83.3785
80.9033
78.5326
76.2605
74.0813
71.9899
69.9814
68.0515
66.196
64.4112
62.6933
61.0392
59.4458
57.91
56.4293
55.001
53.6229
52.2926
51.0081
49.7674
48.5686
47.4101
46.2901
45.2071
44.1597
43.1464
42.1659
41.2171
40.2988
39.4098
38.549
37.7156
36.9086
36.127
35.3701
34.6371
33.9272
12073.5
4845.79
2772.61
1907.05
1440.86
1151.93
956.084
814.88
708.378
625.248
558.589
503.966
458.4
419.819
386.734
358.053
332.955
310.809
291.124
273.515
257.67
243.338
230.313
218.425
207.533
197.517
188.277
179.727
171.792
164.41
157.526
151.091
145.064
139.407
134.089
129.08
124.355
119.891
115.668
111.666
107.871
104.266
100.838
97.5753
94.4665
91.5014
88.6708
85.9662
83.3798
80.9046
78.5339
76.2618
74.0825
71.9911
69.9826
68.0526
66.1972
64.4123
62.6944
61.0403
59.4468
57.911
56.4303
55.002
53.6238
52.2935
51.0089
49.7682
48.5694
47.4109
46.2909
45.2078
44.1604
43.1471
42.1666
41.2178
40.2994
39.4104
38.5497
37.7162
36.9092
36.1276
35.3707
34.6377
33.9277
12073.7
4845.67
2772.51
1906.98
1440.81
1151.9
956.061
814.863
708.364
625.236
558.58
503.959
458.394
419.814
386.73
358.05
332.952
310.807
291.123
273.514
257.669
243.338
230.313
218.426
207.534
197.518
188.278
179.728
171.793
164.411
157.527
151.092
145.065
139.409
134.09
129.082
124.357
119.893
115.669
111.668
107.872
104.267
100.839
97.5767
94.4678
91.5027
88.6721
85.9674
83.3811
80.9058
78.5351
76.2629
74.0837
71.9922
69.9837
68.0537
66.1982
64.4133
62.6954
61.0413
59.4478
57.912
56.4312
55.0029
53.6247
52.2943
51.0098
49.769
48.5702
47.4116
46.2916
45.2086
44.1611
43.1478
42.1673
41.2185
40.3001
39.411
38.5503
37.7169
36.9098
36.1282
35.3713
34.6382
33.9283
12073.9
4845.56
2772.42
1906.92
1440.77
1151.87
956.039
814.845
708.35
625.225
558.57
503.951
458.388
419.808
386.726
358.047
332.949
310.804
291.121
273.513
257.668
243.337
230.313
218.426
207.534
197.519
188.279
179.728
171.794
164.412
157.528
151.093
145.066
139.41
134.092
129.083
124.358
119.894
115.67
111.669
107.873
104.268
100.841
97.5779
94.469
91.5039
88.6733
85.9686
83.3822
80.907
78.5362
76.264
74.0848
71.9933
69.9847
68.0548
66.1992
64.4143
62.6964
61.0422
59.4487
57.9129
56.4321
55.0037
53.6255
52.2952
51.0106
49.7698
48.571
47.4124
46.2923
45.2093
44.1618
43.1485
42.168
41.2191
40.3007
39.4117
38.5509
37.7175
36.9104
36.1288
35.3719
34.6388
33.9288
12074.1
4845.46
2772.33
1906.86
1440.73
1151.84
956.018
814.829
708.337
625.214
558.561
503.943
458.381
419.802
386.721
358.043
332.946
310.802
291.119
273.511
257.667
243.336
230.312
218.425
207.534
197.519
188.279
179.729
171.795
164.413
157.529
151.094
145.067
139.411
134.093
129.084
124.359
119.895
115.672
111.67
107.875
104.27
100.842
97.579
94.4702
91.505
88.6743
85.9697
83.3833
80.908
78.5373
76.2651
74.0858
71.9942
69.9857
68.0557
66.2002
64.4152
62.6973
61.0431
59.4496
57.9137
56.4329
55.0046
53.6263
52.296
51.0114
49.7706
48.5718
47.4131
46.2931
45.21
44.1625
43.1491
42.1686
41.2198
40.3013
39.4123
38.5515
37.7181
36.911
36.1294
35.3725
34.6394
33.9293
12074.2
4845.35
2772.25
1906.8
1440.69
1151.81
955.997
814.813
708.324
625.203
558.551
503.934
458.374
419.796
386.716
358.038
332.942
310.799
291.117
273.509
257.666
243.335
230.311
218.425
207.534
197.519
188.279
179.729
171.795
164.413
157.529
151.095
145.068
139.412
134.093
129.085
124.36
119.896
115.673
111.671
107.876
104.271
100.843
97.5801
94.4712
91.506
88.6754
85.9707
83.3843
80.909
78.5383
76.266
74.0867
71.9952
69.9866
68.0566
66.201
64.4161
62.6982
61.044
59.4504
57.9145
56.4337
55.0054
53.6271
52.2967
51.0121
49.7713
48.5725
47.4138
46.2937
45.2107
44.1631
43.1498
42.1693
41.2204
40.302
39.4129
38.5521
37.7187
36.9116
36.13
35.373
34.6399
33.9299
12074.4
4845.26
2772.17
1906.74
1440.65
1151.78
955.978
814.798
708.311
625.192
558.542
503.926
458.367
419.79
386.71
358.034
332.939
310.795
291.114
273.507
257.664
243.334
230.31
218.424
207.533
197.518
188.279
179.729
171.795
164.414
157.53
151.095
145.068
139.412
134.094
129.086
124.361
119.897
115.673
111.672
107.876
104.271
100.844
97.581
94.4721
91.507
88.6763
85.9716
83.3852
80.9099
78.5392
76.2669
74.0876
71.9961
69.9875
68.0575
66.2019
64.4169
62.699
61.0448
59.4512
57.9153
56.4345
55.0061
53.6279
52.2975
51.0128
49.772
48.5732
47.4145
46.2944
45.2113
44.1638
43.1504
42.1699
41.221
40.3026
39.4135
38.5527
37.7193
36.9122
36.1306
35.3736
34.6405
33.9304
12074.6
4845.16
2772.1
1906.69
1440.61
1151.76
955.959
814.783
708.299
625.181
558.533
503.918
458.359
419.784
386.705
358.029
332.934
310.792
291.111
273.505
257.662
243.332
230.309
218.423
207.532
197.518
188.279
179.729
171.795
164.414
157.53
151.096
145.069
139.413
134.095
129.086
124.362
119.898
115.674
111.673
107.877
104.272
100.845
97.5818
94.473
91.5078
88.6771
85.9725
83.3861
80.9108
78.54
76.2678
74.0884
71.9969
69.9883
68.0583
66.2027
64.4177
62.6998
61.0455
59.4519
57.9161
56.4352
55.0068
53.6286
52.2982
51.0135
49.7727
48.5738
47.4152
46.2951
45.212
44.1644
43.151
42.1705
41.2216
40.3032
39.4141
38.5533
37.7198
36.9127
36.1311
35.3741
34.641
33.9309
12074.7
4845.07
2772.03
1906.64
1440.58
1151.73
955.941
814.769
708.287
625.171
558.524
503.91
458.352
419.777
386.699
358.024
332.93
310.788
291.108
273.502
257.66
243.33
230.308
218.422
207.532
197.517
188.278
179.729
171.795
164.414
157.53
151.096
145.069
139.413
134.095
129.087
124.362
119.898
115.675
111.674
107.878
104.273
100.845
97.5826
94.4738
91.5086
88.6779
85.9733
83.3869
80.9115
78.5408
76.2685
74.0892
71.9976
69.9891
68.059
66.2034
64.4184
62.7005
61.0463
59.4527
57.9168
56.4359
55.0075
53.6293
52.2988
51.0142
49.7734
48.5745
47.4158
46.2957
45.2126
44.165
43.1517
42.1711
41.2222
40.3038
39.4147
38.5539
37.7204
36.9133
36.1317
35.3747
34.6415
33.9314
12074.8
4844.98
2771.96
1906.59
1440.55
1151.71
955.924
814.756
708.276
625.161
558.515
503.902
458.345
419.771
386.693
358.019
332.925
310.784
291.104
273.499
257.657
243.328
230.306
218.421
207.53
197.516
188.278
179.728
171.795
164.414
157.53
151.096
145.07
139.414
134.096
129.087
124.363
119.899
115.676
111.674
107.879
104.274
100.846
97.5833
94.4745
91.5093
88.6787
85.974
83.3876
80.9123
78.5415
76.2693
74.0899
71.9984
69.9898
68.0597
66.2041
64.4191
62.7012
61.047
59.4533
57.9175
56.4366
55.0082
53.6299
52.2995
51.0148
49.774
48.5751
47.4164
46.2963
45.2132
44.1656
43.1522
42.1717
41.2228
40.3043
39.4152
38.5544
37.721
36.9138
36.1322
35.3752
34.642
33.9319
12075
4844.9
2771.9
1906.54
1440.51
1151.69
955.908
814.743
708.265
625.152
558.506
503.894
458.338
419.764
386.687
358.013
332.921
310.78
291.101
273.496
257.654
243.326
230.304
218.419
207.529
197.515
188.277
179.728
171.795
164.414
157.53
151.096
145.07
139.414
134.096
129.088
124.363
119.899
115.676
111.675
107.879
104.274
100.847
97.584
94.4751
91.51
88.6793
85.9747
83.3883
80.913
78.5422
76.2699
74.0906
71.999
69.9905
68.0604
66.2048
64.4198
62.7018
61.0476
59.454
57.9181
56.4372
55.0088
53.6305
52.3001
51.0155
49.7746
48.5757
47.417
46.2969
45.2138
44.1662
43.1528
42.1723
41.2234
40.3049
39.4158
38.555
37.7215
36.9144
36.1327
35.3757
34.6425
33.9324
12075.1
4844.81
2771.83
1906.5
1440.48
1151.67
955.892
814.731
708.255
625.143
558.498
503.887
458.331
419.758
386.681
358.008
332.916
310.776
291.097
273.492
257.652
243.323
230.302
218.417
207.528
197.514
188.276
179.727
171.794
164.413
157.53
151.096
145.07
139.414
134.096
129.088
124.363
119.9
115.676
111.675
107.88
104.275
100.847
97.5845
94.4757
91.5106
88.6799
85.9753
83.3889
80.9136
78.5428
76.2706
74.0913
71.9997
69.9911
68.061
66.2054
64.4204
62.7025
61.0482
59.4546
57.9187
56.4378
55.0094
53.6311
52.3007
51.0161
49.7752
48.5763
47.4176
46.2975
45.2144
44.1668
43.1534
42.1728
41.2239
40.3055
39.4163
38.5555
37.722
36.9149
36.1333
35.3763
34.6432
12075.3
4844.73
2771.77
1906.46
1440.45
1151.64
955.877
814.719
708.246
625.135
558.491
503.88
458.324
419.752
386.676
358.003
332.911
310.771
291.093
273.489
257.649
243.321
230.3
218.415
207.526
197.513
188.275
179.726
171.793
164.413
157.53
151.096
145.07
139.414
134.096
129.088
124.364
119.9
115.677
111.676
107.88
104.275
100.848
97.585
94.4762
91.5111
88.6805
85.9759
83.3895
80.9142
78.5434
76.2712
74.0918
72.0003
69.9917
68.0616
66.206
64.421
62.7031
61.0488
59.4552
57.9193
56.4384
55.01
53.6317
52.3013
51.0166
49.7758
48.5769
47.4182
46.2981
45.2149
44.1674
43.1539
42.1734
41.2245
40.306
39.4169
38.5561
37.7226
36.9155
36.1338
35.3768
34.6437
12075.4
4844.65
2771.71
1906.41
1440.42
1151.62
955.862
814.708
708.236
625.127
558.483
503.873
458.318
419.746
386.67
357.997
332.906
310.767
291.089
273.485
257.645
243.318
230.297
218.413
207.524
197.511
188.274
179.725
171.792
164.412
157.529
151.095
145.069
139.414
134.096
129.088
124.364
119.9
115.677
111.676
107.881
104.276
100.848
97.5855
94.4767
91.5116
88.681
85.9764
83.39
80.9147
78.544
76.2717
74.0924
72.0008
69.9922
68.0622
66.2066
64.4216
62.7036
61.0494
59.4558
57.9199
56.439
55.0106
53.6323
52.3018
51.0172
49.7763
48.5774
47.4187
46.2986
45.2155
44.1679
43.1545
42.1739
41.225
40.3065
39.4174
38.5566
37.7231
36.916
36.1343
35.3773
34.6442
12075.5
4844.57
2771.66
1906.37
1440.39
1151.6
955.848
814.697
708.228
625.119
558.476
503.866
458.312
419.74
386.664
357.992
332.901
310.763
291.085
273.482
257.642
243.315
230.295
218.411
207.522
197.51
188.272
179.724
171.792
164.411
157.529
151.095
145.069
139.414
134.096
129.088
124.364
119.9
115.677
111.676
107.881
104.276
100.848
97.5859
94.4771
91.512
88.6814
85.9768
83.3905
80.9152
78.5445
76.2722
74.0929
72.0013
69.9928
68.0627
66.2071
64.4221
62.7042
61.0499
59.4563
57.9204
56.4395
55.0111
53.6328
52.3024
51.0177
49.7769
48.578
47.4193
46.2991
45.216
44.1684
43.155
42.1744
41.2255
40.307
39.4179
38.5571
37.7236
36.9165
36.1348
35.3778
34.6446
12075.6
4844.49
2771.6
1906.33
1440.36
1151.58
955.833
814.686
708.219
625.112
558.47
503.86
458.306
419.734
386.659
357.987
332.897
310.758
291.081
273.478
257.639
243.312
230.292
218.409
207.52
197.508
188.271
179.723
171.79
164.41
157.528
151.094
145.069
139.413
134.096
129.088
124.364
119.9
115.677
111.676
107.881
104.276
100.849
97.5862
94.4775
91.5124
88.6818
85.9773
83.3909
80.9156
78.5449
76.2727
74.0934
72.0018
69.9932
68.0632
66.2076
64.4226
62.7047
61.0504
59.4568
57.9209
56.44
55.0116
53.6333
52.3029
51.0182
49.7774
48.5785
47.4198
46.2996
45.2165
44.1689
43.1555
42.1749
41.226
40.3076
39.4184
38.5576
37.7241
36.917
36.1353
35.3783
34.6451
12075.8
4844.42
2771.54
1906.29
1440.34
1151.56
955.819
814.676
708.211
625.104
558.463
503.854
458.3
419.728
386.654
357.982
332.892
310.754
291.077
273.474
257.635
243.309
230.289
218.406
207.518
197.506
188.269
179.721
171.789
164.409
157.527
151.094
145.068
139.413
134.096
129.088
124.364
119.9
115.677
111.676
107.881
104.276
100.849
97.5865
94.4778
91.5127
88.6822
85.9776
83.3913
80.916
78.5453
76.2731
74.0938
72.0023
69.9937
68.0637
66.2081
64.4231
62.7051
61.0509
59.4573
57.9214
56.4405
55.0121
53.6338
52.3034
51.0187
49.7779
48.5789
47.4202
46.3001
45.217
44.1694
43.156
42.1754
41.2265
40.308
39.4189
38.5581
37.7246
36.9175
36.1358
35.3787
34.6455
12075.9
4844.34
2771.49
1906.25
1440.31
1151.54
955.805
814.665
708.202
625.098
558.457
503.848
458.294
419.723
386.648
357.977
332.887
310.749
291.073
273.47
257.632
243.306
230.286
218.404
207.516
197.504
188.267
179.72
171.788
164.408
157.526
151.093
145.067
139.412
134.095
129.088
124.363
119.9
115.677
111.677
107.881
104.277
100.849
97.5867
94.478
91.513
88.6825
85.9779
83.3916
80.9164
78.5457
76.2735
74.0942
72.0027
69.9941
68.0641
66.2085
64.4235
62.7056
61.0513
59.4577
57.9218
56.441
55.0126
53.6343
52.3038
51.0192
49.7783
48.5794
47.4207
46.3006
45.2175
44.1699
43.1565
42.1759
41.227
40.3085
39.4194
38.5586
37.7251
36.9179
36.1362
35.3792
34.6459
12076
4844.26
2771.43
1906.21
1440.28
1151.52
955.791
814.655
708.194
625.091
558.451
503.843
458.289
419.718
386.643
357.972
332.882
310.745
291.069
273.467
257.628
243.302
230.283
218.401
207.513
197.502
188.265
179.718
171.786
164.407
157.525
151.092
145.067
139.412
134.095
129.087