/*--------------------------------*- C++ -*----------------------------------*\
  =========                 |
  \\      /  F ield         | OpenFOAM: The Open Source CFD Toolbox
   \\    /   O peration     | Website:  https://openfoam.org
    \\  /    A nd           | Version:  10
     \\/     M anipulation  |
\*---------------------------------------------------------------------------*/
FoamFile
{
    format      ascii;
    class       volScalarField;
    location    "1000";
    object      Co;
}
// * * * * * * * * * * * * * * * * * * * * * * * * * * * * * * * * * * * * * //

dimensions      [0 0 0 0 0 0 0];

internalField   nonuniform List<scalar> 
17922
(
51.967
49.3172
46.7521
44.2819
41.9308
39.7337
37.7394
35.9368
34.271
32.6774
31.1854
29.7988
28.4856
27.2469
26.1336
25.2753
24.616
23.9824
23.3751
22.7614
22.0942
21.3862
20.6407
19.8591
19.0399
18.1809
17.2777
16.3402
15.4214
14.5136
13.5845
12.6539
11.7276
10.812
9.91318
9.03763
8.19163
7.38092
6.61115
5.88874
5.2195
4.60904
4.06393
3.59098
3.19712
2.8876
2.66638
2.53693
2.49657
2.54076
2.66551
2.86772
3.14799
3.5014
3.92143
4.39979
4.92771
5.49669
6.09886
6.72692
7.37408
8.034
8.70043
9.3671
10.0281
10.6777
11.3102
11.9199
12.5017
13.0514
13.5653
14.0406
14.4755
14.8693
15.2221
15.5363
15.8165
16.0668
16.2914
16.4949
16.6835
16.864
17.0428
17.2241
17.4114
17.6067
17.8108
18.0232
18.2431
18.4689
18.6985
18.9291
19.1656
50.4078
47.838
45.3503
42.955
40.676
38.5476
36.6147
34.8794
33.2824
31.7221
30.2475
28.8841
27.5942
26.5264
25.7312
25.053
24.4392
23.8501
23.2737
22.6755
22.0146
21.3106
20.5664
19.7817
18.9558
18.0891
17.1816
16.2417
15.3313
14.4397
13.5209
12.5987
11.6797
10.7701
9.87559
9.00168
8.1542
7.33915
6.56189
5.82847
5.14455
4.51558
3.94902
3.45221
3.03241
2.69635
2.45058
2.34281
2.27269
2.28269
2.4088
2.62119
2.91676
3.28776
3.72621
4.22313
4.76915
5.35511
5.97262
6.61411
7.27272
7.94207
8.61615
9.28926
9.95594
10.6105
11.2474
11.8609
12.4461
12.9984
13.5141
13.9902
14.4248
14.8178
15.1704
15.4855
15.766
16.014
16.232
16.4251
16.5999
16.7631
16.9202
17.0756
17.2329
17.394
17.5602
17.7312
17.9062
18.0839
18.2622
18.439
18.6192
48.9294
46.4428
44.0349
41.7162
39.5102
37.4505
35.5753
33.8982
32.3719
30.8685
29.4303
28.103
26.9471
26.0605
25.3476
24.6976
24.1045
23.5314
22.9494
22.3413
21.6797
20.9752
20.2331
19.4534
18.6358
17.7792
16.8845
15.9584
15.0622
14.187
13.2823
12.3715
11.4632
10.5642
9.67997
8.81594
7.97803
7.17207
6.40278
5.67581
4.99675
4.37113
3.80654
3.31051
2.89061
2.55454
2.40046
2.36708
2.27829
2.18125
2.27235
2.48854
2.78847
3.1638
3.60548
4.10396
4.64965
5.23328
5.84635
6.48119
7.13092
7.78937
8.45105
9.11078
9.76319
10.4027
11.0237
11.6207
12.1886
12.723
13.2201
13.6771
14.0921
14.4649
14.7962
15.0878
15.3429
15.5641
15.7551
15.9213
16.0682
16.2012
16.3253
16.445
16.5644
16.6862
16.8113
16.9392
17.069
17.1992
17.3284
17.4561
17.5872
47.4705
45.0639
42.7335
40.4902
38.3584
36.3722
34.5669
32.9567
31.4937
30.0497
28.6541
27.3933
26.3947
25.632
24.9472
24.3206
23.7407
23.1826
22.6024
21.9971
21.3449
20.6469
19.9112
19.1386
18.3288
17.4808
16.5964
15.6806
14.791
13.9238
13.0312
12.1318
11.2351
10.3477
9.47534
8.62338
7.79737
7.00301
6.24516
5.52928
4.86091
4.24588
3.69172
3.20601
2.79685
2.51563
2.53865
2.54509
2.45985
2.29128
2.25718
2.4878
2.80121
3.18898
3.64154
4.14879
4.70078
5.28807
5.9022
6.5357
7.18203
7.83539
8.49066
9.14301
9.78736
10.4185
11.0311
11.6198
12.1796
12.706
13.1953
13.6448
14.0525
14.4182
14.7426
15.0274
15.275
15.4886
15.6717
15.8294
15.9668
16.0891
16.2015
16.3086
16.414
16.5195
16.6261
16.7341
16.8435
16.953
17.0616
17.1681
17.2751
46.0357
43.7066
41.4519
39.2835
37.2266
35.3154
33.582
32.037
30.631
29.2417
27.8902
26.7944
25.9503
25.2118
24.5517
23.9477
23.3821
22.8396
22.2684
21.6684
21.0231
20.3321
19.6031
18.8374
18.0348
17.1949
16.3195
15.4116
14.5259
13.6645
12.7828
11.8951
11.0101
10.1349
9.27517
8.43621
7.62338
6.84212
6.09734
5.39435
4.73871
4.13645
3.59499
3.12196
2.72614
2.61453
2.71959
2.73023
2.6499
2.48606
2.30468
2.52058
2.84818
3.24894
3.713
4.22986
4.78916
5.38128
5.99769
6.63104
7.27504
7.92429
8.57403
9.21977
9.85684
10.4804
11.0854
11.6667
12.2194
12.739
13.2218
13.6649
14.0666
14.4264
14.7446
15.0227
15.263
15.469
15.6449
15.795
15.9241
16.0369
16.1386
16.2337
16.325
16.415
16.5049
16.5954
16.6865
16.777
16.8653
16.9496
17.0321
44.6317
42.3786
40.1984
38.1042
36.122
34.2851
32.622
31.1391
29.7866
28.4465
27.2232
26.2927
25.5188
24.8029
24.1653
23.5835
23.0329
22.5017
21.9404
21.3447
20.7042
20.0201
19.2977
18.5385
17.7427
16.9103
16.0426
15.1408
14.2579
13.4016
12.5303
11.6542
10.7816
9.91943
9.07341
8.24872
7.45054
6.68404
5.95411
5.26595
4.62509
4.0377
3.51105
3.05283
2.68363
2.78973
2.89848
2.91408
2.83955
2.68158
2.45008
2.57541
2.91669
3.32964
3.80421
4.32959
4.89514
5.49101
6.10857
6.74055
7.3809
8.02457
8.66717
9.30462
9.93267
10.5468
11.1424
11.7145
12.2582
12.7692
13.2436
13.6787
14.0726
14.4245
14.7348
15.0048
15.2368
15.4345
15.6019
15.7432
15.8629
15.9657
16.0562
16.1383
16.215
16.2884
16.3601
16.4308
16.5007
16.5693
16.6353
16.6967
16.7563
43.2572
41.0786
38.9718
36.9509
35.0422
33.2777
31.6823
30.2592
28.959
27.7128
26.6557
25.8426
25.1009
24.4068
23.7888
23.2275
22.6912
22.1668
21.6159
21.0262
20.3913
19.7137
18.9975
18.2444
17.4547
16.6287
15.7673
14.8701
13.9895
13.1383
12.2771
11.4129
10.5535
9.70544
8.87442
8.06551
7.28367
6.53383
5.82077
5.14956
4.52571
3.95545
3.44582
3.00469
2.76196
2.96701
3.08051
3.10219
3.03467
2.88392
2.65902
2.65891
3.01345
3.43794
3.92218
4.45514
5.02594
5.62453
6.24222
6.87181
7.50748
8.14449
8.77887
9.40696
10.025
10.6288
11.214
11.776
12.31
12.8116
13.2771
13.7035
14.0891
14.4329
14.735
14.9969
15.2209
15.4104
15.5695
15.702
15.8124
15.9049
15.9841
16.0535
16.1158
16.1732
16.227
16.2784
16.3279
16.3757
16.4208
16.4615
16.5015
41.9105
39.8049
37.7702
35.8214
33.9848
32.2906
30.7605
29.3961
28.1724
27.1058
26.1871
25.4031
24.6955
24.0229
23.4213
22.8784
22.3568
21.8384
21.2979
20.7142
20.085
19.4134
18.7029
17.9552
17.1709
16.3504
15.494
14.6004
13.7222
12.8764
12.0251
11.1735
10.3282
9.49552
8.68102
7.8896
7.12597
6.39483
5.70079
5.04879
4.44426
3.89341
3.40301
2.9812
2.93891
3.1484
3.26793
3.29699
3.23782
3.09577
2.87928
2.77367
3.14088
3.5761
4.06902
4.6084
5.18325
5.78338
6.40006
7.02616
7.6561
8.28548
8.91074
9.52867
10.1359
10.7288
11.3032
11.8546
12.3785
12.8705
13.3269
13.7448
14.1222
14.458
14.7524
15.0065
15.2229
15.4046
15.5555
15.6792
15.7799
15.8617
15.929
15.9852
16.0332
16.0751
16.1122
16.1456
16.1764
16.2051
16.231
16.253
16.276
40.5912
38.5571
36.5932
34.7151
32.9487
31.3225
29.8558
28.5582
27.5325
26.6338
25.7302
24.9724
24.3011
23.651
23.0635
22.537
22.0306
21.5191
20.9865
20.4079
19.7841
19.1182
18.4128
17.6699
16.8903
16.0743
15.2221
14.3315
13.4562
12.6165
11.7756
10.9372
10.1071
9.29134
8.49506
7.72301
6.97965
6.26939
5.59666
4.96622
4.38336
3.8542
3.38518
2.98478
3.11955
3.33485
3.46187
3.4998
3.45045
3.31867
3.11237
2.92062
3.2996
3.74435
4.24458
4.78889
5.36622
5.96633
6.58052
7.20177
7.82475
8.44543
9.06066
9.66766
10.2635
10.845
11.4081
11.9486
12.4621
12.9444
13.3917
13.8011
14.1705
14.4986
14.7855
15.0323
15.2412
15.4152
15.5579
15.6729
15.764
15.8351
15.8902
15.9333
15.9672
15.9943
16.0159
16.0332
16.0475
16.0593
16.0683
16.074
16.0832
39.2989
37.3348
35.4401
33.6311
31.9331
30.3729
28.9894
27.8968
27.0451
26.1773
25.286
24.5495
23.9159
23.291
22.7156
22.2038
21.712
21.2079
20.6806
20.1066
19.4879
18.8269
18.1262
17.3875
16.6119
15.7999
14.9511
14.0636
13.192
12.3593
11.5295
10.7053
9.89187
9.0946
8.31842
7.56779
6.84688
6.15983
5.51082
4.90437
4.34559
3.84041
3.39494
3.04123
3.30473
3.52748
3.66367
3.71214
3.67428
3.55446
3.36018
3.11941
3.49026
3.94299
4.44878
4.99611
5.57398
6.17219
6.78212
7.39694
8.01159
8.62242
9.22671
9.8221
10.4061
10.9757
11.5272
12.0567
12.5598
13.0323
13.4706
13.8716
14.2331
14.5537
14.8332
15.0728
15.2743
15.4408
15.5756
15.6824
15.7647
15.8262
15.8707
15.9019
15.9231
15.9368
15.9448
15.9485
15.9489
15.9469
15.9426
15.9364
15.9372
38.033
36.1374
34.3106
32.569
30.9375
29.5036
28.3355
27.3823
26.5697
25.7367
24.8561
24.134
23.5377
22.9423
22.3781
21.879
21.3995
20.9034
20.3798
19.8098
19.1955
18.5388
17.8421
17.1071
16.3351
15.5265
14.6811
13.797
12.9303
12.1057
11.2881
10.4794
9.68408
8.90712
8.15305
7.42603
6.72992
6.06852
5.44574
4.86582
4.33361
3.85475
3.43504
3.18171
3.49554
3.72767
3.87494
3.93583
3.91133
3.80534
3.62494
3.38066
3.71366
4.17234
4.68146
5.22949
5.80555
6.39962
7.00324
7.60983
8.21467
8.8145
9.40698
9.99015
10.5619
11.1194
11.6593
12.1777
12.6704
13.1334
13.5628
13.9555
14.3092
14.6224
14.8948
15.1273
15.3218
15.481
15.6086
15.7083
15.7835
15.8377
15.8741
15.8962
15.9074
15.9108
15.9084
15.9019
15.8927
15.8819
15.87
15.859
15.8598
36.7932
34.9648
33.2042
31.5787
30.1425
28.8831
27.7972
26.8807
26.104
25.3108
24.4427
23.7273
23.1645
22.6035
22.0515
21.562
21.0931
20.6051
20.0837
19.5169
18.9062
18.2531
17.5599
16.8282
16.0593
15.2541
14.4122
13.5323
12.6717
11.8568
11.0526
10.2609
9.48542
8.73072
8.00092
7.29984
6.631
5.99785
5.40395
4.8532
4.35012
3.89998
3.50828
3.36975
3.69321
3.93696
4.0975
4.17293
4.16385
4.07371
3.90918
3.68041
3.97044
4.43255
4.94227
5.48815
6.05959
6.64686
7.24179
7.83817
8.4316
9.01923
9.59909
10.1696
10.7288
11.2742
11.8027
12.3104
12.7932
13.247
13.6679
14.0528
14.3992
14.7055
14.9715
15.1979
15.3865
15.5399
15.6617
15.7559
15.8262
15.8755
15.9069
15.9236
15.929
15.9264
15.9186
15.9078
15.8959
15.8841
15.8738
15.8689
15.8824
35.6812
33.9993
32.399
30.9005
29.5317
28.3185
27.2736
26.3914
25.6466
24.8976
24.0482
23.3322
22.7956
22.2722
21.7361
21.2531
20.7933
20.3116
19.7915
19.2271
18.6193
17.9692
17.2789
16.5501
15.7844
14.9826
14.1448
13.2701
12.4171
11.6134
10.8244
10.0513
9.29757
8.56722
7.86398
7.1913
6.55234
5.95018
5.38795
4.86917
4.39791
3.97902
3.61762
3.56353
3.8991
4.15702
4.33333
4.42575
4.4344
4.36234
4.21579
4.00456
4.26098
4.7234
5.23035
5.77067
6.33419
6.91159
7.49517
8.07911
8.65947
9.23378
9.80042
10.358
10.9049
11.4388
11.9564
12.4541
12.9278
13.3733
13.7868
14.1649
14.5052
14.8061
15.0673
15.2898
15.4751
15.6255
15.7445
15.836
15.904
15.9516
15.9817
15.9974
16.0023
16.0002
15.9945
15.9882
15.9837
15.9828
15.9881
16.0054
16.05
34.8945
33.2617
31.7103
30.2603
28.939
27.7703
26.7644
25.9141
25.197
24.4934
23.673
22.9522
22.4327
21.9456
21.4312
20.9526
20.4992
20.0216
19.5025
18.9399
18.3342
17.6865
16.9987
16.2728
15.5102
14.7122
13.8794
13.0111
12.1675
11.3769
10.6048
9.85214
9.12219
8.41839
7.74412
7.10245
6.49614
5.92784
5.40026
4.91641
4.47984
4.09485
3.76619
3.76397
4.11454
4.38957
4.58457
4.69679
4.72587
4.67438
4.54812
4.35648
4.58528
5.04418
5.54429
6.075
6.62674
7.19083
7.76017
8.32947
8.89526
9.45542
10.0086
10.5537
11.0889
11.6121
12.12
12.609
13.0748
13.5134
13.9208
14.2938
14.6298
14.9274
15.1864
15.408
15.5937
15.7455
15.8666
15.9606
16.0313
16.0823
16.1167
16.138
16.1502
16.158
16.1656
16.1768
16.1946
16.222
16.2628
16.3254
16.4275
34.1309
32.546
31.0419
29.6393
28.3643
27.2384
26.2695
25.4489
24.7549
24.0942
23.3156
22.5905
22.0784
21.6221
21.1341
20.6608
20.2096
19.7342
19.2159
18.6545
18.0503
17.4046
16.7191
15.996
15.2369
14.4434
13.6165
12.7563
11.9239
11.1483
10.395
9.66487
8.96083
8.28593
7.64316
7.03521
6.46446
5.93311
5.44335
4.99762
4.59884
4.25063
3.9573
3.97194
4.34087
4.63642
4.85351
4.98881
5.04142
5.01336
4.90991
4.73998
4.94279
5.39341
5.8818
6.39815
6.93379
7.48089
8.03307
8.58569
9.13572
9.68136
10.2214
10.7547
11.2794
11.7933
12.293
12.7747
13.2343
13.6676
14.0708
14.4408
14.775
15.0722
15.3323
15.5567
15.7473
15.9062
16.036
16.1397
16.2213
16.2844
16.3329
16.3708
16.4031
16.4353
16.4728
16.5204
16.5823
16.6627
16.7679
16.9087
17.1065
33.3903
31.8516
30.3935
29.037
27.807
26.7227
25.7892
24.9958
24.3208
23.6971
22.9715
22.248
21.7343
21.3027
20.842
20.3765
19.924
19.4489
18.931
18.3703
17.7673
17.1232
16.44
15.7198
14.9648
14.1767
13.357
12.5066
11.6873
10.9287
10.1963
9.49083
8.81496
8.17138
7.56276
6.9914
6.4593
5.96816
5.51963
5.11549
4.7579
4.44962
4.19447
4.18812
4.57931
4.89934
5.14253
5.30481
5.38458
5.3832
5.30529
5.15919
5.33205
5.76861
6.23949
6.73607
7.25087
7.77712
8.30933
8.84348
9.37694
9.90809
10.4357
10.9584
11.4743
11.9807
12.4741
12.9508
13.4064
13.8371
14.239
14.6094
14.9458
15.2471
15.5131
15.7455
15.9467
16.1191
16.2653
16.3884
16.492
16.5802
16.6575
16.7289
16.8004
16.8785
16.9702
17.0816
17.2188
17.3883
17.5995
17.8676
18.2185
39.2
37.497
35.8412
34.2303
32.6716
31.1774
29.7639
28.4527
27.267
26.223
25.3233
24.555
23.8962
23.3015
22.6348
21.9247
21.4018
20.9885
20.5519
20.0971
19.6426
19.1658
18.6476
18.0871
17.4848
16.8422
16.1613
15.4446
14.6943
13.9128
13.1018
12.2628
11.4587
10.7192
10.0098
9.33127
8.68588
8.07615
7.50441
6.97264
6.48242
6.035
5.6314
5.27265
4.96002
4.69516
4.48133
4.4128
4.83078
5.18
5.45405
5.64794
5.75916
5.78814
5.73869
5.6184
5.75018
6.16577
6.6124
7.08314
7.57202
8.07354
8.58315
9.09743
9.61401
10.1313
10.6478
11.1619
11.6714
12.1732
12.6638
13.1391
13.5949
14.0273
14.4329
14.8091
15.154
15.4663
15.746
15.9945
16.2146
16.4095
16.5821
16.7362
16.8758
17.0059
17.1317
17.2593
17.3958
17.5495
17.729
17.9429
18.2004
18.5123
18.8935
19.3666
19.9671
38.3221
36.6645
35.0531
33.4859
31.9709
30.5205
29.1516
27.8854
26.7433
25.739
24.8717
24.1268
23.483
22.9092
22.2999
21.619
21.0824
20.6792
20.2628
19.8205
19.3657
18.8854
18.3656
17.8046
17.2028
16.5616
15.8834
15.1707
14.4261
13.6523
12.8516
12.026
11.2391
10.5209
9.83672
9.18725
8.57472
8.00139
7.46936
6.98028
6.53538
6.13541
5.78075
5.47162
5.2082
4.99065
4.82159
4.71896
5.09575
5.47978
5.79046
6.02151
6.16916
6.23266
6.21465
6.12178
6.19225
6.57874
6.9935
7.43187
7.88972
8.36296
8.84797
9.34179
9.84217
10.3473
10.8554
11.3644
11.8715
12.3735
12.8662
13.3457
13.8075
14.2479
14.6636
15.0525
15.4135
15.7459
16.0496
16.3258
16.5774
16.808
17.0217
17.223
17.4172
17.6106
17.8098
18.0226
18.2582
18.5272
18.8416
19.2148
19.6625
20.2048
20.8693
21.6953
22.7395
37.4665
35.8523
34.2834
32.759
31.2871
29.8801
28.5554
27.334
26.2356
25.2702
24.4343
23.7116
23.0824
22.524
21.9633
21.327
20.7787
20.3764
19.9761
19.5446
19.0904
18.6066
18.0847
17.5229
16.9213
16.2817
15.6065
14.8986
14.1608
13.3962
12.6075
11.7972
11.0295
10.3347
9.67783
9.05967
8.48236
7.94801
7.45854
7.01537
6.61936
6.2708
5.96942
5.7146
5.50524
5.33933
5.21889
5.14678
5.37392
5.79963
6.15387
6.42872
6.6186
6.72111
6.7374
6.67288
6.65033
6.99857
7.37323
7.77269
8.19494
8.63736
9.09712
9.5715
10.0581
10.5547
11.0591
11.5683
12.079
12.5872
13.0885
13.5785
14.053
14.5083
14.9412
15.3504
15.7358
16.0978
16.437
16.755
17.0545
17.3394
17.6147
17.886
18.1605
18.446
18.752
19.0892
19.471
19.9135
20.4371
21.0667
21.834
22.7803
23.9604
25.4459
27.3312
41.6663
39.9333
38.2581
36.6359
35.0631
33.5346
32.0511
30.6204
29.2556
27.9747
26.7981
25.7431
24.8166
24.0119
23.3103
22.6955
22.1493
21.6245
21.0417
20.492
20.0814
19.6921
19.2687
18.8151
18.3287
17.8046
17.2417
16.6404
16.0027
15.3312
14.629
13.8992
13.1452
12.3703
11.5771
10.8307
10.1613
9.53385
8.94916
8.40936
7.91654
7.47249
7.07846
6.73503
6.44205
6.19863
6.00329
5.85352
5.74404
5.67651
5.65331
5.73967
6.13949
6.54576
6.87229
7.11095
7.25708
7.30991
7.27345
7.18078
7.41217
7.73872
8.09355
8.47705
8.88803
9.32415
9.78255
10.2603
10.7543
11.2615
11.778
12.2996
12.8215
13.3386
13.8465
14.3412
14.8195
15.2786
15.7175
16.1372
16.5398
16.9272
17.3022
17.6681
18.0292
18.3912
18.7612
19.1484
19.5644
20.0232
20.5428
21.1469
21.8664
22.7409
23.8208
25.1686
26.8613
28.991
31.6654
35.0094
40.7297
39.0404
37.408
35.8273
34.2941
32.8046
31.3604
29.9697
28.6465
27.4089
26.2768
25.2652
24.3779
23.6048
22.9231
22.322
21.7876
21.2875
20.7564
20.2203
19.7955
19.4111
18.9928
18.5395
18.0509
17.5248
16.9609
16.3603
15.725
15.058
14.3625
13.6421
12.9003
12.1408
11.3666
10.6433
10.0013
9.40521
8.85601
8.3559
7.90704
7.51119
7.16953
6.88241
6.6493
6.46871
6.33848
6.25465
6.20701
6.19715
6.22717
6.29005
6.51749
6.96607
7.35355
7.64811
7.8421
7.93237
7.92157
7.81938
7.80026
8.07264
8.37953
8.72394
9.10583
9.52295
9.97167
10.4479
10.9476
11.4662
11.9989
12.5405
13.0854
13.6279
14.163
14.6877
15.1998
15.6971
16.179
16.6472
17.1051
17.5564
18.0055
18.457
18.9168
19.3923
19.8936
20.4348
21.0351
21.7208
22.5269
23.5002
24.6998
26.1982
28.0808
30.4443
33.3945
37.0397
41.4847
46.8188
39.8178
38.1705
36.5795
35.0387
33.5436
32.0917
30.6857
29.3342
28.0519
26.8574
25.7695
24.801
23.9531
23.2124
22.5502
21.9615
21.4399
20.9576
20.4674
19.9581
19.5203
19.1335
18.7174
18.2635
17.7728
17.2451
16.6807
16.0812
15.4491
14.7876
14.1
13.3903
12.6623
11.9198
11.1662
10.4679
9.85504
9.29205
8.78017
8.32174
7.91905
7.574
7.28778
7.06064
6.89168
6.77888
6.71952
6.70792
6.72877
6.78246
6.87002
6.97895
7.0985
7.41172
7.87093
8.22862
8.47328
8.59931
8.60863
8.51175
8.33003
8.35264
8.6134
8.9228
9.28202
9.68845
10.137
10.6221
11.1381
11.6793
12.2398
12.8133
13.3935
13.9736
14.5484
15.1153
15.6735
16.2227
16.7629
17.2962
17.8267
18.3599
18.9019
19.4603
20.0441
20.6662
21.3447
22.1065
22.9892
24.0436
25.3354
26.9446
28.9637
31.4926
34.6332
38.4818
43.1164
48.5748
54.8285
61.7635
38.9324
37.3252
35.7733
34.2699
32.811
31.3953
30.0263
28.7133
27.4715
26.3197
25.2755
24.3496
23.5408
22.8332
22.1908
21.6133
21.1051
20.6381
20.1769
19.6991
19.2557
18.8595
18.4427
17.9873
17.4946
16.9655
16.4011
15.8036
15.1756
14.5206
13.8422
13.1446
12.4318
11.7079
10.9766
10.3046
9.72249
9.19414
8.72114
8.30606
7.95146
7.65949
7.43149
7.26774
7.1671
7.12696
7.14347
7.20933
7.30793
7.43271
7.5806
7.73541
7.87861
8.01748
8.41711
8.84431
9.13911
9.29482
9.31461
9.21244
9.01058
8.76875
8.77922
9.06402
9.41135
9.81901
10.2801
10.7872
11.3333
11.9111
12.5136
13.1334
13.7627
14.3939
15.0208
15.6408
16.255
16.8655
17.4744
18.0854
18.7038
19.3367
19.9936
20.6873
21.4353
22.2632
23.2079
24.321
25.6707
27.3404
29.4261
32.0298
35.2505
39.1725
43.8493
49.2868
55.4169
62.0657
68.9303
75.656
38.0723
36.503
34.988
33.5201
32.0958
30.715
29.3818
28.1066
26.9049
25.7954
24.7944
23.9102
23.1397
22.4652
21.8439
21.2765
20.7813
20.3295
19.8892
19.4392
18.9993
18.591
18.1696
17.7114
17.2165
16.6865
16.1228
15.528
14.9051
14.2578
13.5899
12.9058
12.2096
11.5056
10.7979
10.1536
9.60342
9.11089
8.67793
8.30744
8.00237
7.76523
7.59771
7.50029
7.47176
7.50891
7.60643
7.75577
7.93936
8.1392
8.34829
8.5464
8.70227
8.7918
8.97564
9.47517
9.81313
9.9862
10.0031
9.88494
9.65995
9.35745
9.06837
9.14618
9.49631
9.9192
10.4069
10.9505
11.5411
12.1705
12.83
13.5099
14.2009
14.8941
15.5827
16.2648
16.943
17.6223
18.3082
19.0072
19.7283
20.4831
21.2882
22.1681
23.1583
24.3081
25.6833
27.3663
29.4522
32.0422
35.2317
39.0975
43.68
48.9634
54.8435
61.129
67.5111
73.5747
78.8394
83.0558
37.2362
35.7028
34.2226
32.7884
31.3974
30.05
28.7518
27.5138
26.3519
25.2843
24.3258
23.4823
22.749
22.107
21.5092
20.9516
20.4672
20.0305
19.6065
19.1775
18.7467
18.3282
17.8989
17.4363
16.9392
16.4085
15.8463
15.2552
14.6385
14
13.3439
12.6744
11.9961
11.3133
10.6302
10.0146
9.49722
9.04124
8.64898
8.32375
8.06895
7.88763
7.78198
7.75288
7.7993
7.91768
8.1013
8.33902
8.60962
8.8864
9.15587
9.38679
9.53241
9.556
9.51785
10.0855
10.4524
10.6266
10.6269
10.4833
10.2303
9.89978
9.52445
9.26311
9.53061
9.98339
10.5143
11.1123
11.7667
12.4671
13.2028
13.9603
14.7267
15.4922
16.251
17.0025
17.7524
18.5093
19.283
20.0854
20.9328
21.8483
22.8648
24.0281
25.3993
27.0553
29.0858
31.5879
34.6535
38.3546
42.7201
47.7275
53.2704
59.1476
65.0424
70.5621
75.2448
78.7844
80.9459
81.7998
36.423
34.9235
33.4762
32.0741
30.7149
29.4001
28.1361
26.9347
25.8123
24.7862
23.8694
23.0656
22.3678
21.757
21.1855
20.6397
20.1632
19.7396
19.3287
18.9145
18.4931
18.0688
17.6307
17.163
16.6634
16.1326
15.5724
14.9859
14.3764
13.748
13.1047
12.4511
11.7917
11.131
10.4733
9.88701
9.40285
8.98365
8.63213
8.35205
8.14737
8.02174
7.97802
8.01766
8.13999
8.34116
8.61291
8.9406
9.29866
9.65314
9.97422
10.2125
10.3062
10.2066
10.0055
10.6346
11.0229
11.1967
11.1831
11.012
10.7163
10.3244
9.87267
9.39371
9.2601
9.72592
10.3094
10.9926
11.7596
12.5924
13.4699
14.365
15.2554
16.1289
16.9832
17.823
18.6592
19.5078
20.3896
21.3293
22.3583
23.5178
24.8628
26.4635
28.4026
30.7695
33.6459
37.1028
41.1726
45.8348
50.9858
56.4338
61.882
66.9639
71.2356
74.3994
76.1926
76.6179
75.5299
73.0764
35.6317
34.1641
32.7479
31.3763
30.0477
28.7646
27.5342
26.3693
25.2861
24.301
23.425
22.6592
21.9948
21.4128
20.87
20.3412
19.8702
19.4557
19.0552
18.6509
18.2363
17.8095
17.3645
16.892
16.39
15.8593
15.3019
14.7209
14.1197
13.5023
12.873
12.2362
11.5966
10.9586
10.3267
9.76992
9.31891
8.93608
8.62457
8.3886
8.23271
8.16121
8.17767
8.28423
8.48063
8.76277
9.12073
9.53585
9.97663
10.3981
10.7466
10.9519
10.9374
10.658
10.403
11.103
11.5416
11.7706
11.8247
11.7286
11.5057
11.17
10.7394
10.2309
9.72281
9.90428
10.4899
11.1989
12.0252
12.9605
13.9664
14.988
15.9832
16.9351
17.8516
18.7551
19.6717
20.6287
21.6585
22.8022
24.1108
25.6455
27.4777
29.6855
32.3467
35.5275
39.2582
43.5264
48.2477
53.2526
58.2752
62.9887
66.9725
69.9496
71.6141
71.9206
70.71
68.1262
64.2729
59.6064
34.8614
33.4239
32.037
30.6946
29.3956
28.1433
26.9462
25.8176
24.7735
23.8289
22.9925
22.2629
21.629
21.0729
20.5604
20.055
19.5876
19.1767
18.7847
18.3875
17.9772
17.5496
17.0999
16.6234
16.1195
15.5894
15.0355
14.4608
13.8689
13.2636
12.6492
12.03
11.4107
10.7958
10.1897
9.6621
9.24357
8.89598
8.62287
8.42887
8.31902
8.29826
8.37085
8.53959
8.80458
9.16137
9.59809
10.0913
10.6007
11.0648
11.4003
11.5174
11.3342
10.8465
10.6537
11.4294
11.9353
12.2457
12.404
12.4336
12.3668
12.2394
12.0889
11.9327
11.7477
11.8951
12.5346
13.1736
13.8672
14.6603
15.5077
16.3651
17.2145
18.0624
18.9329
19.8514
20.8459
21.9523
23.212
24.6752
26.4006
28.4533
30.9
33.7984
37.1807
41.0398
45.3092
49.8536
54.4536
58.8248
62.5784
65.4468
67.1139
67.5114
66.4237
63.9597
60.2446
55.729
50.7545
45.7107
34.1113
32.7021
31.3431
30.0285
28.7581
27.5363
26.3723
25.28
24.2748
23.3702
22.5721
21.8767
21.2714
20.7397
20.2569
19.7795
19.3165
18.9042
18.5178
18.1254
17.7176
17.2899
16.8372
16.3574
15.852
15.3232
14.7736
14.2063
13.6246
13.0324
12.4335
11.8325
11.2338
10.6419
10.0612
9.56201
9.17464
8.86039
8.62307
8.4676
8.39944
8.42396
8.54593
8.76858
9.09215
9.51147
10.0122
10.5653
11.1195
11.5951
11.8857
11.8889
11.538
10.8941
10.8378
11.7002
12.2738
12.6162
12.7415
12.6304
12.2453
11.5448
10.5206
9.22186
7.75908
6.48809
5.90678
6.75559
8.27841
10.3517
12.5891
14.686
16.5075
18.063
19.4459
20.7621
22.1077
23.5685
25.2227
27.1435
29.3962
32.0323
35.0822
38.5461
42.3746
46.4608
50.6259
54.6332
58.1568
60.9325
62.656
63.2343
62.4283
60.2902
56.8966
52.6527
47.917
43.083
38.389
34.0271
33.3806
31.9982
30.6656
29.3778
28.1353
26.9436
25.8128
24.757
23.7909
22.9258
22.1651
21.5025
20.9247
20.4165
19.9586
19.5092
19.0577
18.6422
18.2556
17.8656
17.4592
17.0319
16.5775
16.0945
15.5879
15.0611
14.5168
13.9578
13.3873
12.8088
12.2262
11.6436
11.0655
10.4961
9.93998
9.46782
9.10963
8.82596
8.62076
8.49907
8.46647
8.52854
8.69019
8.95466
9.32177
9.78492
10.3262
10.9091
11.4695
11.9118
12.1215
12.0281
11.6424
11.0897
11.1355
12.3106
13.2534
14.0957
14.9026
15.7165
16.5795
17.4934
18.4232
19.3199
19.9926
20.2175
19.8175
19.236
18.7387
19.0628
19.4925
19.9002
20.3445
20.9329
21.7559
22.8485
24.23
25.919
27.9394
30.3138
33.0553
36.1553
39.5722
43.2193
46.9513
50.576
53.8343
56.4766
58.2383
58.9945
58.5154
56.8066
53.8767
50.0493
45.6463
41.0513
36.537
32.322
28.5094
25.1436
32.6688
31.3117
30.0043
28.7423
27.5273
26.3658
25.2686
24.2497
23.3227
22.4967
21.7722
21.141
20.5892
20.1024
19.6634
19.2415
18.8108
18.3917
17.9977
17.6074
17.2023
16.7767
16.3221
15.8356
15.3272
14.8032
14.2653
13.7157
13.1573
12.5932
12.0271
11.4629
10.905
10.3574
9.82455
9.37749
9.0458
8.78913
8.61135
8.51735
8.51254
8.60224
8.79105
9.08163
9.47273
9.95571
10.5086
11.0868
11.6106
11.9599
11.9942
11.6348
10.9232
10.0583
9.68502
10.5987
11.2584
11.669
11.8206
11.6773
11.2282
10.4639
9.37933
8.06693
6.60164
5.18362
4.02147
4.21583
7.34974
11.4377
14.9271
17.5368
19.5059
21.1636
22.7787
24.5018
26.4326
28.6286
31.1198
33.9063
36.9561
40.1986
43.5171
46.7574
49.7155
52.1745
53.9168
54.7829
54.6045
53.3342
50.9276
47.6232
43.6595
39.3896
35.0918
31.0089
27.2809
23.9809
21.1229
18.6908
31.9751
30.6422
29.359
28.1222
26.9346
25.8035
24.7406
23.7592
22.8716
22.084
21.3944
20.7927
20.265
19.7971
19.374
18.9752
18.5679
18.152
17.7505
17.3555
16.949
16.5243
16.07
15.5802
15.0698
14.5496
14.0194
13.4804
12.9348
12.3856
11.8361
11.2901
10.7516
10.2246
9.71323
9.28883
8.98033
8.74629
8.59028
8.51672
8.53046
8.63608
8.8372
9.1352
9.52703
10.0017
10.5346
11.08
11.5651
11.9001
12.022
11.9672
11.8756
11.9061
12.3136
13.4482
15.0122
16.4386
17.8441
19.2839
20.7908
22.3227
23.7685
25.0177
25.8165
25.8412
24.2695
21.2227
19.5167
20.4219
21.2695
21.9523
22.7591
23.8816
25.3833
27.233
29.4019
31.8554
34.5481
37.4097
40.3377
43.2067
45.8444
48.0811
49.7355
50.6535
50.7073
49.7999
47.9086
45.1516
41.7036
37.8593
33.8644
29.9665
26.3329
23.0716
20.2275
17.8049
15.7798
14.117
31.2992
29.9893
28.7297
27.5179
26.3579
25.2579
24.23
23.2869
22.4388
21.6892
21.0333
20.4596
19.9547
19.505
19.0958
18.7108
18.3251
17.9234
17.5173
17.1111
16.6987
16.2719
15.8173
15.327
14.816
14.3002
13.7793
13.252
12.7201
12.186
11.653
11.1245
10.6044
10.0964
9.60431
9.19964
8.91046
8.69407
8.55345
8.49224
8.51431
8.62302
8.82042
9.10589
9.4739
9.91037
10.3871
10.8538
11.2319
11.419
11.3241
10.925
10.2951
9.57204
8.90432
8.53485
9.25589
9.74229
9.971
9.89904
9.5188
8.83472
7.88291
6.80782
5.9123
5.73819
6.57856
9.88456
14.0677
18.8604
21.7113
23.3863
24.752
26.2497
28.0174
30.0666
32.3638
34.8341
37.3786
39.8846
42.197
44.1934
45.7044
46.6162
46.8071
46.1925
44.7328
42.4838
39.5846
36.2322
32.6372
29.0171
25.546
22.3562
19.5237
17.0823
15.0315
13.3477
12.1828
11.5816
30.6408
29.3532
28.1167
26.93
25.7981
24.7303
23.7385
22.8344
22.0257
21.3132
20.6894
20.142
19.6582
19.2243
18.8256
18.449
18.0789
17.6946
17.2927
16.8782
16.4544
16.0196
15.5635
15.0752
14.5658
14.055
13.545
13.0309
12.5131
11.9943
11.4772
10.9654
10.4624
9.97143
9.49607
9.10783
8.83371
8.62954
8.4975
8.44017
8.46007
8.55893
8.73679
8.99065
9.31242
9.6858
10.0821
10.4561
10.7456
10.8858
10.8497
10.6942
10.5552
10.5802
10.8416
11.3749
12.5446
13.8831
15.5011
17.157
18.9132
20.8119
22.8585
24.928
26.6756
27.5379
26.1204
24.2577
23.2445
23.6186
24.2229
25.1727
26.5279
28.2329
30.19
32.3132
34.511
36.6789
38.6845
40.436
41.7798
42.6487
42.9083
42.5038
41.3869
39.5943
37.1975
34.3508
31.209
27.9491
24.7311
21.6884
18.9167
16.4756
14.3906
12.6607
11.2632
10.4376
10.1808
10.3321
29.9996
28.7343
27.5209
26.3596
25.2567
24.2221
23.2674
22.4029
21.6335
20.9568
20.3633
19.8405
19.3759
18.9559
18.5659
18.1938
17.8303
17.4629
17.0728
16.6561
16.2192
15.7711
15.3099
14.8239
14.3189
13.815
13.3169
12.8171
12.3139
11.81
11.3082
10.8119
10.3242
9.84825
9.38687
9.01153
8.74798
8.55049
8.42025
8.35853
8.3663
8.44342
8.58774
8.79394
9.05175
9.34378
9.64317
9.91213
10.1049
10.1808
10.1293
9.99271
9.85625
9.80548
9.87712
10.0633
10.3266
10.7432
11.4961
12.364
12.9744
13.316
13.4108
13.2881
13.072
13.1461
13.257
14.9901
18.8156
22.591
24.9708
26.7125
28.3276
30.0112
31.7742
33.5478
35.2383
36.722
37.884
38.6738
38.9587
38.7053
37.8552
36.4341
34.4897
32.1211
29.4351
26.5809
23.6844
20.8681
18.2312
15.847
13.7611
11.9943
10.5443
9.38939
8.77381
8.72092
8.91636
9.14009
30.6749
29.3765
28.1335
26.9432
25.8079
24.735
23.7349
22.8184
21.9938
21.2629
20.6205
20.0554
19.5555
19.1086
18.7008
18.3186
17.9511
17.5907
17.2295
16.851
16.4389
15.9921
15.5278
15.0579
14.5757
14.0791
13.5828
13.0954
12.6104
12.1221
11.6326
11.1452
10.663
10.189
9.72558
9.27527
8.90923
8.65183
8.45567
8.32087
8.24731
8.23434
8.27998
8.38005
8.52723
8.70976
8.91006
9.10373
9.25991
9.34493
9.33188
9.21556
9.02323
8.8049
8.60249
8.43117
8.283
8.14314
8.01549
8.14161
9.05341
10.1403
11.3859
12.8461
14.4961
16.2417
17.6781
17.7126
18.8958
21.4554
23.4804
25.2294
26.9018
28.5362
30.1143
31.5795
32.8593
33.8884
34.5806
34.8796
34.7348
34.096
32.9825
31.4222
29.4774
27.2301
24.7835
22.2423
19.7093
17.2747
15.0145
12.9851
11.2222
9.74118
8.53761
7.58993
7.09128
7.13059
7.34597
7.58565
7.8451
30.0481
28.772
27.551
26.384
25.2756
24.2341
23.2698
22.3924
21.6075
20.9141
20.304
19.7652
19.2862
18.8549
18.4575
18.0814
17.7169
17.3568
16.997
16.6293
16.2281
15.776
15.2916
14.8075
14.3291
13.8455
13.3607
12.8842
12.4121
11.9376
11.4617
10.9874
10.5178
10.0554
9.60224
9.16012
8.7999
8.54447
8.34482
8.19998
8.10849
8.06822
8.07558
8.12483
8.20738
8.31098
8.41922
8.51169
8.56559
8.56009
8.48435
8.34765
8.18653
8.05966
8.03283
8.16428
8.49179
9.03506
9.80459
10.7908
12.2884
13.8901
15.4164
16.9055
18.2945
19.3866
20.2003
20.2125
21.3164
23.2309
24.5662
25.6252
26.6776
27.7553
28.7757
29.6378
30.2548
30.5619
30.5025
30.0515
29.1988
27.9701
26.3994
24.5483
22.4909
20.3083
18.0842
15.8973
13.8178
11.9039
10.1993
8.73078
7.50762
6.52225
5.75319
5.30203
5.35669
5.57575
5.81637
6.07307
6.34307
29.4398
28.1854
26.9864
25.8438
24.7638
23.7552
22.828
21.9902
21.2444
20.5865
20.0062
19.4915
19.0314
18.6136
18.2247
17.8533
17.491
17.1315
16.7717
16.4077
16.018
15.5705
15.0676
14.5631
14.084
13.6167
13.1481
12.6838
12.2229
11.7603
11.2964
10.8339
10.3753
9.92262
9.47733
9.04066
8.68306
8.42599
8.21887
8.05973
7.94599
7.87431
7.83993
7.8362
7.85407
7.8818
7.90503
7.90751
7.87305
7.78904
7.65136
7.46894
7.26513
7.07024
6.91233
6.80464
6.73982
6.69089
6.62553
6.51089
6.33266
6.12026
5.9516
6.13999
6.9567
8.35564
10.3944
12.7223
15.7645
18.8681
21.1893
22.8361
24.0366
24.933
25.5606
25.9083
25.9512
25.669
25.0539
24.1138
22.8747
21.3815
19.6853
17.8492
15.9396
14.0228
12.1616
10.4111
8.81642
7.41001
6.20997
5.21922
4.42686
3.81128
3.34996
3.36497
3.57834
3.81004
4.05537
4.31119
28.8502
27.6173
26.441
25.3242
24.274
23.2997
22.4105
21.6121
20.904
20.2793
19.7262
19.2332
18.7896
18.3827
18.0004
17.6325
17.2716
16.9126
16.5528
16.1897
15.8071
15.367
14.8538
14.3292
13.8461
13.3935
12.9434
12.4919
12.0409
11.5888
11.1359
10.6838
10.2347
9.78983
9.35024
8.91655
8.55887