/*--------------------------------*- C++ -*----------------------------------*\
  =========                 |
  \\      /  F ield         | OpenFOAM: The Open Source CFD Toolbox
   \\    /   O peration     | Website:  https://openfoam.org
    \\  /    A nd           | Version:  10
     \\/     M anipulation  |
\*---------------------------------------------------------------------------*/
FoamFile
{
    format      ascii;
    class       volScalarField;
    location    "1000";
    object      nut;
}
// * * * * * * * * * * * * * * * * * * * * * * * * * * * * * * * * * * * * * //

dimensions      [0 2 -1 0 0 0 0];

internalField   nonuniform List<scalar> 
17922
(
3.9229e-05
3.73453e-05
3.58404e-05
3.48087e-05
3.4371e-05
3.46445e-05
3.56741e-05
3.36205e-05
3.00248e-05
2.67084e-05
2.42946e-05
2.24067e-05
2.09239e-05
1.9811e-05
1.88746e-05
1.8033e-05
1.7221e-05
1.64112e-05
1.56994e-05
1.50106e-05
1.45218e-05
1.43358e-05
1.43927e-05
1.46743e-05
1.51554e-05
1.58134e-05
1.6643e-05
1.75447e-05
1.78054e-05
1.74412e-05
1.70849e-05
1.67482e-05
1.64249e-05
1.61085e-05
1.58001e-05
1.54971e-05
1.52062e-05
1.49245e-05
1.46503e-05
1.43799e-05
1.41049e-05
1.38403e-05
1.35917e-05
1.33516e-05
1.31191e-05
1.29051e-05
1.27209e-05
1.2573e-05
1.24642e-05
1.23929e-05
1.23461e-05
1.23032e-05
1.22433e-05
1.21566e-05
1.20438e-05
1.1905e-05
1.17405e-05
1.15508e-05
1.13369e-05
1.11009e-05
1.08454e-05
1.05742e-05
1.02911e-05
1.00005e-05
9.70658e-06
9.41248e-06
9.12079e-06
8.83432e-06
8.55607e-06
8.28846e-06
8.03316e-06
7.79112e-06
7.56244e-06
7.34683e-06
7.14348e-06
6.95045e-06
6.76889e-06
6.59757e-06
6.43404e-06
6.27682e-06
6.12457e-06
5.97571e-06
5.82852e-06
5.68172e-06
5.53454e-06
5.3864e-06
5.23709e-06
5.08647e-06
4.93493e-06
4.78328e-06
4.63255e-06
4.48424e-06
4.3391e-06
3.87211e-05
3.69077e-05
3.54822e-05
3.45469e-05
3.42221e-05
3.46156e-05
3.57483e-05
3.52999e-05
2.95796e-05
2.56551e-05
2.33637e-05
2.15703e-05
2.01582e-05
1.90533e-05
1.80997e-05
1.73121e-05
1.66521e-05
1.61796e-05
1.6067e-05
1.60409e-05
1.60994e-05
1.64151e-05
1.69343e-05
1.76543e-05
1.85676e-05
1.96911e-05
2.10195e-05
2.26388e-05
2.35057e-05
2.32479e-05
2.29434e-05
2.26768e-05
2.23921e-05
2.20713e-05
2.17142e-05
2.13282e-05
2.09201e-05
2.04879e-05
2.00365e-05
1.95695e-05
1.90697e-05
1.85711e-05
1.80808e-05
1.75906e-05
1.7103e-05
1.66196e-05
1.61691e-05
1.57957e-05
1.54934e-05
1.52747e-05
1.51374e-05
1.50243e-05
1.49131e-05
1.47909e-05
1.46655e-05
1.45391e-05
1.44081e-05
1.4268e-05
1.41132e-05
1.39394e-05
1.37447e-05
1.35289e-05
1.32926e-05
1.30358e-05
1.27621e-05
1.24753e-05
1.21777e-05
1.18745e-05
1.15708e-05
1.12714e-05
1.09802e-05
1.06989e-05
1.04292e-05
1.01721e-05
9.92776e-06
9.69618e-06
9.47472e-06
9.2618e-06
9.05638e-06
8.85547e-06
8.6571e-06
8.45974e-06
8.26279e-06
8.0646e-06
7.86446e-06
7.6633e-06
7.46152e-06
7.25965e-06
7.05794e-06
6.85642e-06
6.65503e-06
6.45444e-06
6.25804e-06
3.82952e-05
3.65419e-05
3.51861e-05
3.43332e-05
3.41014e-05
3.45903e-05
3.58144e-05
3.76811e-05
4.00567e-05
3.85376e-05
3.82292e-05
3.86646e-05
3.92725e-05
4.02993e-05
4.13964e-05
4.27063e-05
4.43116e-05
4.5736e-05
4.89682e-05
5.10058e-05
5.03595e-05
4.98104e-05
4.94016e-05
4.91494e-05
4.90513e-05
4.90872e-05
4.92188e-05
4.93898e-05
4.95426e-05
4.96716e-05
4.97975e-05
4.9922e-05
5.00273e-05
5.00895e-05
5.00841e-05
4.99884e-05
4.97824e-05
4.94497e-05
4.89782e-05
4.83603e-05
4.75932e-05
4.66813e-05
4.56352e-05
4.44672e-05
4.31824e-05
4.17923e-05
4.03098e-05
3.87488e-05
3.71311e-05
3.5486e-05
3.38498e-05
3.22568e-05
3.07315e-05
2.92884e-05
2.79354e-05
2.66757e-05
2.55085e-05
2.44299e-05
2.34335e-05
2.2511e-05
2.16534e-05
2.08515e-05
2.00966e-05
1.93811e-05
1.86986e-05
1.80442e-05
1.74147e-05
1.68082e-05
1.62237e-05
1.56611e-05
1.51214e-05
1.46057e-05
1.41154e-05
1.36519e-05
1.32164e-05
1.28096e-05
1.24314e-05
1.20813e-05
1.17583e-05
1.14614e-05
1.1189e-05
1.09396e-05
1.07111e-05
1.05019e-05
1.031e-05
1.01336e-05
9.97111e-06
9.82094e-06
9.68167e-06
9.55199e-06
9.43076e-06
9.31703e-06
9.21002e-06
3.78892e-05
3.6196e-05
3.49111e-05
3.41407e-05
3.4001e-05
3.45841e-05
3.59014e-05
3.78625e-05
4.03058e-05
4.02503e-05
4.07224e-05
4.19622e-05
4.33158e-05
4.53559e-05
4.76685e-05
5.01563e-05
5.29057e-05
5.24814e-05
5.19233e-05
5.13181e-05
5.07518e-05
5.02868e-05
4.9961e-05
4.97888e-05
4.97662e-05
4.98721e-05
5.00697e-05
5.03093e-05
5.05444e-05
5.0764e-05
5.09752e-05
5.11739e-05
5.13419e-05
5.14557e-05
5.14914e-05
5.14268e-05
5.12425e-05
5.09228e-05
5.04557e-05
4.98331e-05
4.90461e-05
4.81077e-05
4.70258e-05
4.58129e-05
4.448e-05
4.30325e-05
4.14787e-05
3.98344e-05
3.8123e-05
3.63742e-05
3.46231e-05
3.29069e-05
3.1255e-05
2.96874e-05
2.82166e-05
2.6849e-05
2.55865e-05
2.44263e-05
2.33627e-05
2.23869e-05
2.14891e-05
2.06587e-05
1.98855e-05
1.91599e-05
1.84741e-05
1.78214e-05
1.71972e-05
1.65983e-05
1.60227e-05
1.54697e-05
1.49393e-05
1.44323e-05
1.39498e-05
1.34932e-05
1.30633e-05
1.26609e-05
1.2286e-05
1.19383e-05
1.1617e-05
1.1321e-05
1.10491e-05
1.07997e-05
1.05711e-05
1.03616e-05
1.01694e-05
9.9928e-06
9.83019e-06
9.68006e-06
9.541e-06
9.41177e-06
9.29123e-06
9.17841e-06
9.07242e-06
3.75009e-05
3.58686e-05
3.46556e-05
3.39684e-05
3.39206e-05
3.45986e-05
3.60103e-05
3.80586e-05
4.05565e-05
3.91309e-05
3.95325e-05
4.06206e-05
4.17269e-05
4.36802e-05
4.58012e-05
4.78773e-05
5.06418e-05
5.24943e-05
5.22111e-05
5.16789e-05
5.1194e-05
5.08135e-05
5.05713e-05
5.04798e-05
5.05339e-05
5.07121e-05
5.09794e-05
5.12921e-05
5.16104e-05
5.19182e-05
5.22122e-05
5.24831e-05
5.27117e-05
5.28747e-05
5.29487e-05
5.2912e-05
5.27458e-05
5.24346e-05
5.19672e-05
5.13353e-05
5.05339e-05
4.95702e-05
4.84475e-05
4.71746e-05
4.57714e-05
4.42536e-05
4.26209e-05
4.08907e-05
3.90864e-05
3.72375e-05
3.53785e-05
3.35467e-05
3.17751e-05
3.00883e-05
2.85029e-05
2.70292e-05
2.56715e-05
2.44288e-05
2.32962e-05
2.22651e-05
2.13248e-05
2.04636e-05
1.96698e-05
1.89324e-05
1.82416e-05
1.75895e-05
1.69699e-05
1.63782e-05
1.58115e-05
1.52682e-05
1.47476e-05
1.42502e-05
1.37766e-05
1.33277e-05
1.29046e-05
1.25077e-05
1.21373e-05
1.1793e-05
1.14743e-05
1.11802e-05
1.09096e-05
1.06609e-05
1.04327e-05
1.02234e-05
1.00312e-05
9.85462e-06
9.69202e-06
9.54195e-06
9.40308e-06
9.27417e-06
9.15409e-06
9.04181e-06
8.93633e-06
3.71283e-05
3.55581e-05
3.4418e-05
3.38149e-05
3.38598e-05
3.46339e-05
3.61398e-05
3.82691e-05
4.08166e-05
3.91416e-05
3.95234e-05
4.05489e-05
4.13944e-05
4.33011e-05
4.54584e-05
4.71975e-05
4.95707e-05
5.19409e-05
5.25375e-05
5.2081e-05
5.16796e-05
5.13856e-05
5.1229e-05
5.12206e-05
5.1354e-05
5.1608e-05
5.19497e-05
5.23398e-05
5.27426e-05
5.31369e-05
5.35113e-05
5.3852e-05
5.41386e-05
5.43477e-05
5.44562e-05
5.44428e-05
5.42892e-05
5.39805e-05
5.35058e-05
5.28575e-05
5.20321e-05
5.1034e-05
4.98669e-05
4.8536e-05
4.70555e-05
4.54456e-05
4.37221e-05
4.19002e-05
4.00018e-05
3.80548e-05
3.60933e-05
3.41533e-05
3.22701e-05
3.04712e-05
2.87771e-05
2.72014e-05
2.57513e-05
2.44276e-05
2.32265e-05
2.21397e-05
2.11562e-05
2.02632e-05
1.94478e-05
1.86974e-05
1.80008e-05
1.73485e-05
1.67329e-05
1.61482e-05
1.55905e-05
1.50571e-05
1.4547e-05
1.40597e-05
1.35958e-05
1.31558e-05
1.27404e-05
1.23501e-05
1.19852e-05
1.16454e-05
1.13302e-05
1.10389e-05
1.07703e-05
1.05232e-05
1.02961e-05
1.00875e-05
9.89585e-06
9.71961e-06
9.55727e-06
9.40742e-06
9.26876e-06
9.14006e-06
9.0202e-06
8.90805e-06
8.80261e-06
3.67705e-05
3.52636e-05
3.4198e-05
3.36803e-05
3.38193e-05
3.46911e-05
3.6291e-05
3.84971e-05
4.10911e-05
3.94506e-05
4.01053e-05
4.14494e-05
4.21902e-05
4.41974e-05
4.68395e-05
4.8736e-05
5.07051e-05
5.3094e-05
5.29028e-05
5.25242e-05
5.22087e-05
5.20034e-05
5.1935e-05
5.20125e-05
5.22284e-05
5.25621e-05
5.29823e-05
5.34535e-05
5.39417e-05
5.44206e-05
5.48724e-05
5.52794e-05
5.56199e-05
5.58703e-05
5.60076e-05
5.6011e-05
5.58625e-05
5.55477e-05
5.50562e-05
5.4381e-05
5.35198e-05
5.24753e-05
5.12521e-05
4.98569e-05
4.83018e-05
4.65961e-05
4.47684e-05
4.28412e-05
4.08436e-05
3.87984e-05
3.67383e-05
3.46974e-05
3.27115e-05
3.08098e-05
2.90155e-05
2.73453e-05
2.58086e-05
2.44084e-05
2.31421e-05
2.20017e-05
2.09762e-05
2.00521e-05
1.92153e-05
1.8452e-05
1.77495e-05
1.70968e-05
1.64852e-05
1.59075e-05
1.53588e-05
1.48358e-05
1.43366e-05
1.38602e-05
1.34067e-05
1.29764e-05
1.25697e-05
1.2187e-05
1.18286e-05
1.14943e-05
1.11837e-05
1.0896e-05
1.06303e-05
1.03854e-05
1.01601e-05
9.95283e-06
9.76217e-06
9.58662e-06
9.42474e-06
9.27517e-06
9.13664e-06
9.00794e-06
8.88789e-06
8.77531e-06
8.66922e-06
3.64266e-05
3.49849e-05
3.39955e-05
3.35652e-05
3.38004e-05
3.47718e-05
3.64652e-05
3.87442e-05
4.13131e-05
3.94504e-05
4.04674e-05
4.23077e-05
4.29005e-05
4.48092e-05
4.78874e-05
5.0141e-05
5.18176e-05
5.36135e-05
5.33088e-05
5.30113e-05
5.27842e-05
5.267e-05
5.26926e-05
5.28588e-05
5.31606e-05
5.35775e-05
5.408e-05
5.46347e-05
5.52082e-05
5.5769e-05
5.6294e-05
5.67625e-05
5.71512e-05
5.74363e-05
5.75947e-05
5.76059e-05
5.74525e-05
5.71204e-05
5.65998e-05
5.58845e-05
5.49728e-05
5.38676e-05
5.25742e-05
5.11008e-05
4.94598e-05
4.76636e-05
4.57345e-05
4.36994e-05
4.15915e-05
3.94427e-05
3.72859e-05
3.51504e-05
3.3071e-05
3.10772e-05
2.91936e-05
2.7439e-05
2.58247e-05
2.43556e-05
2.30301e-05
2.18409e-05
2.07769e-05
1.98242e-05
1.89678e-05
1.81928e-05
1.74851e-05
1.68327e-05
1.62253e-05
1.56551e-05
1.51159e-05
1.46037e-05
1.41158e-05
1.3651e-05
1.32086e-05
1.27887e-05
1.23916e-05
1.20175e-05
1.16666e-05
1.13387e-05
1.10335e-05
1.07503e-05
1.04883e-05
1.02464e-05
1.00234e-05
9.81796e-06
9.62861e-06
9.45395e-06
9.29258e-06
9.14318e-06
9.00449e-06
8.87528e-06
8.75433e-06
8.64042e-06
8.53256e-06
3.6096e-05
3.47215e-05
3.38107e-05
3.34704e-05
3.38046e-05
3.48775e-05
3.66641e-05
3.90129e-05
4.14012e-05
3.93222e-05
4.06842e-05
4.32138e-05
4.36272e-05
4.51752e-05
4.84849e-05
5.10893e-05
5.26409e-05
5.39906e-05
5.3758e-05
5.35447e-05
5.34087e-05
5.33883e-05
5.35046e-05
5.37625e-05
5.41534e-05
5.46569e-05
5.52444e-05
5.58842e-05
5.65416e-05
5.71807e-05
5.77736e-05
5.82971e-05
5.87266e-05
5.90376e-05
5.92072e-05
5.92151e-05
5.90441e-05
5.8681e-05
5.81162e-05
5.73448e-05
5.63659e-05
5.51832e-05
5.38035e-05
5.2237e-05
5.04974e-05
4.8601e-05
4.65715e-05
4.44361e-05
4.22235e-05
3.99709e-05
3.7714e-05
3.5487e-05
3.33226e-05
3.12479e-05
2.92874e-05
2.74607e-05
2.57806e-05
2.4253e-05
2.28771e-05
2.16464e-05
2.05498e-05
1.95731e-05
1.87004e-05
1.79161e-05
1.7205e-05
1.65541e-05
1.5952e-05
1.53898e-05
1.48607e-05
1.43599e-05
1.3884e-05
1.34313e-05
1.30007e-05
1.25921e-05
1.22054e-05
1.18407e-05
1.14982e-05
1.11776e-05
1.08786e-05
1.06008e-05
1.03431e-05
1.01048e-05
9.88458e-06
9.68121e-06
9.49331e-06
9.31949e-06
9.1584e-06
9.00872e-06
8.86918e-06
8.73853e-06
8.61545e-06
8.4987e-06
8.38723e-06
3.57783e-05
3.44735e-05
3.36443e-05
3.33974e-05
3.38338e-05
3.50105e-05
3.68903e-05
3.93065e-05
4.16467e-05
3.91949e-05
4.07958e-05
4.43019e-05
4.46693e-05
4.56174e-05
4.90318e-05
5.19581e-05
5.35556e-05
5.44092e-05
5.42528e-05
5.4127e-05
5.40849e-05
5.41612e-05
5.4374e-05
5.47268e-05
5.52097e-05
5.58024e-05
5.64769e-05
5.72019e-05
5.79408e-05
5.86531e-05
5.93073e-05
5.98777e-05
6.03386e-05
6.06648e-05
6.08334e-05
6.08243e-05
6.06207e-05
6.02099e-05
5.95834e-05
5.87374e-05
5.76724e-05
5.63937e-05
5.49101e-05
5.32346e-05
5.13831e-05
4.93761e-05
4.72392e-05
4.50012e-05
4.26928e-05
4.03485e-05
3.80017e-05
3.56894e-05
3.34455e-05
3.12998e-05
2.92748e-05
2.73901e-05
2.5658e-05
2.40846e-05
2.26698e-05
2.14074e-05
2.02862e-05
1.92918e-05
1.84079e-05
1.7618e-05
1.69064e-05
1.6259e-05
1.56637e-05
1.51107e-05
1.45926e-05
1.41038e-05
1.36406e-05
1.32006e-05
1.27826e-05
1.23859e-05
1.20103e-05
1.16558e-05
1.13224e-05
1.10099e-05
1.0718e-05
1.0446e-05
1.01934e-05
9.95896e-06
9.74174e-06
9.54047e-06
9.35379e-06
9.18036e-06
9.01883e-06
8.86785e-06
8.72612e-06
8.59228e-06
8.46494e-06
8.34279e-06
8.22465e-06
3.54733e-05
3.42414e-05
3.34974e-05
3.3348e-05
3.38906e-05
3.5174e-05
3.71456e-05
3.9623e-05
4.21094e-05
3.91142e-05
4.06852e-05
4.54418e-05
4.61225e-05
4.61974e-05
4.95513e-05
5.28314e-05
5.46319e-05
5.48715e-05
5.47958e-05
5.47609e-05
5.48158e-05
5.49917e-05
5.5304e-05
5.57544e-05
5.63319e-05
5.70158e-05
5.77782e-05
5.85871e-05
5.94036e-05
6.01828e-05
6.089e-05
6.14974e-05
6.19781e-05
6.23067e-05
6.24598e-05
6.24176e-05
6.21637e-05
6.16864e-05
6.09783e-05
6.0037e-05
5.88652e-05
5.74703e-05
5.58642e-05
5.40631e-05
5.20862e-05
4.9958e-05
4.77069e-05
4.53633e-05
4.29596e-05
4.05297e-05
3.81071e-05
3.57264e-05
3.34188e-05
3.12152e-05
2.91392e-05
2.72102e-05
2.54409e-05
2.38362e-05
2.23959e-05
2.11135e-05
1.99777e-05
1.89738e-05
1.80852e-05
1.72948e-05
1.65865e-05
1.59454e-05
1.53589e-05
1.48167e-05
1.43107e-05
1.38349e-05
1.33851e-05
1.29586e-05
1.25537e-05
1.21695e-05
1.18056e-05
1.1462e-05
1.11383e-05
1.08345e-05
1.05501e-05
1.02845e-05
1.0037e-05
9.8066e-06
9.5922e-06
9.39255e-06
9.20633e-06
9.03216e-06
8.86865e-06
8.7144e-06
8.56798e-06
8.42792e-06
8.29272e-06
8.16092e-06
8.03117e-06
3.51812e-05
3.40262e-05
3.33721e-05
3.33254e-05
3.39786e-05
3.53688e-05
3.74286e-05
3.9965e-05
4.27116e-05
3.92142e-05
4.02884e-05
4.63626e-05
4.80292e-05
4.70082e-05
4.98876e-05
5.36291e-05
5.53517e-05
5.53803e-05
5.53901e-05
5.54498e-05
5.56048e-05
5.58832e-05
5.62978e-05
5.68482e-05
5.75223e-05
5.82984e-05
5.91481e-05
6.00381e-05
6.09268e-05
6.1765e-05
6.25151e-05
6.31478e-05
6.3635e-05
6.39507e-05
6.40715e-05
6.39778e-05
6.36538e-05
6.30887e-05
6.22767e-05
6.12177e-05
5.99169e-05
5.83847e-05
5.66367e-05
5.4693e-05
5.25771e-05
5.03175e-05
4.79455e-05
4.54937e-05
4.29958e-05
4.04856e-05
3.79964e-05
3.55606e-05
3.32082e-05
3.09673e-05
2.88605e-05
2.69061e-05
2.51165e-05
2.34964e-05
2.20452e-05
2.07562e-05
1.96173e-05
1.86134e-05
1.77278e-05
1.6943e-05
1.62425e-05
1.56113e-05
1.50364e-05
1.45069e-05
1.40144e-05
1.35527e-05
1.31171e-05
1.27047e-05
1.23134e-05
1.19423e-05
1.15906e-05
1.12582e-05
1.09446e-05
1.06497e-05
1.03729e-05
1.01136e-05
9.87107e-06
9.64416e-06
9.43172e-06
9.23245e-06
9.04496e-06
8.8678e-06
8.69945e-06
8.5384e-06
8.38303e-06
8.23172e-06
8.0828e-06
7.93462e-06
7.78558e-06
3.49025e-05
3.38299e-05
3.32714e-05
3.33321e-05
3.40984e-05
3.55952e-05
3.77409e-05
4.03334e-05
4.30935e-05
3.96614e-05
3.9705e-05
4.67484e-05
5.031e-05
4.83789e-05
5.00542e-05
5.4224e-05
5.58336e-05
5.59394e-05
5.60391e-05
5.61971e-05
5.64555e-05
5.68391e-05
5.73584e-05
5.80107e-05
5.87824e-05
5.96507e-05
6.05857e-05
6.15525e-05
6.25062e-05
6.33938e-05
6.41751e-05
6.48193e-05
6.52976e-05
6.55831e-05
6.56526e-05
6.54865e-05
6.50702e-05
6.4394e-05
6.34543e-05
6.22537e-05
6.08005e-05
5.91093e-05
5.71999e-05
5.50968e-05
5.28286e-05
5.04276e-05
4.79285e-05
4.53665e-05
4.27764e-05
4.01924e-05
3.76467e-05
3.51699e-05
3.27898e-05
3.05312e-05
2.84151e-05
2.64575e-05
2.46691e-05
2.30535e-05
2.1609e-05
2.03282e-05
1.91989e-05
1.82058e-05
1.73318e-05
1.65596e-05
1.58725e-05
1.52552e-05
1.46948e-05
1.41803e-05
1.3703e-05
1.32566e-05
1.28361e-05
1.24383e-05
1.20612e-05
1.17035e-05
1.13643e-05
1.10431e-05
1.07396e-05
1.04533e-05
1.01837e-05
9.92999e-06
9.69125e-06
9.46629e-06
9.25379e-06
9.05228e-06
8.86022e-06
8.67597e-06
8.49782e-06
8.32404e-06
8.15281e-06
7.9823e-06
7.81066e-06
7.63605e-06
7.45661e-06
3.46387e-05
3.36548e-05
3.31973e-05
3.33698e-05
3.42514e-05
3.58549e-05
3.80843e-05
4.0728e-05
4.35007e-05
4.052e-05
3.91577e-05
4.64105e-05
5.2521e-05
5.06977e-05
5.05475e-05
5.44753e-05
5.63653e-05
5.65526e-05
5.67464e-05
5.70064e-05
5.73713e-05
5.78628e-05
5.84888e-05
5.92442e-05
6.01135e-05
6.10724e-05
6.20891e-05
6.31267e-05
6.41366e-05
6.50621e-05
6.58609e-05
6.65012e-05
6.69529e-05
6.7189e-05
6.71859e-05
6.69248e-05
6.63919e-05
6.55796e-05
6.44868e-05
6.31193e-05
6.149e-05
5.96178e-05
5.75276e-05
5.5249e-05
5.28155e-05
5.02641e-05
4.76327e-05
4.49592e-05
4.22801e-05
3.96296e-05
3.70391e-05
3.45367e-05
3.21474e-05
2.98924e-05
2.77895e-05
2.58517e-05
2.40868e-05
2.24969e-05
2.10783e-05
1.98227e-05
1.87174e-05
1.77469e-05
1.68943e-05
1.61423e-05
1.54744e-05
1.48756e-05
1.43331e-05
1.38361e-05
1.33759e-05
1.29459e-05
1.25414e-05
1.21589e-05
1.17962e-05
1.14519e-05
1.1125e-05
1.08148e-05
1.05207e-05
1.02421e-05
9.97827e-06
9.72827e-06
9.4909e-06
9.26477e-06
9.04828e-06
8.83973e-06
8.63727e-06
8.43901e-06
8.24298e-06
8.04718e-06
7.84961e-06
7.64829e-06
7.4413e-06
7.2267e-06
7.00268e-06
3.4389e-05
3.35023e-05
3.31516e-05
3.344e-05
3.44395e-05
3.61496e-05
3.84605e-05
4.1151e-05
4.39365e-05
4.18315e-05
3.89062e-05
4.54259e-05
5.38984e-05
5.37447e-05
5.21461e-05
5.47143e-05
5.69507e-05
5.72241e-05
5.75161e-05
5.78817e-05
5.83559e-05
5.89575e-05
5.96913e-05
6.055e-05
6.15158e-05
6.25623e-05
6.36556e-05
6.4756e-05
6.58114e-05
6.67617e-05
6.75628e-05
6.81816e-05
6.85874e-05
6.87526e-05
6.86539e-05
6.8273e-05
6.75977e-05
6.66227e-05
6.53502e-05
6.37904e-05
6.19608e-05
5.9886e-05
5.75961e-05
5.51266e-05
5.2516e-05
4.98058e-05
4.70379e-05
4.42529e-05
4.14892e-05
3.87811e-05
3.61589e-05
3.3648e-05
3.12699e-05
2.90412e-05
2.69755e-05
2.50817e-05
2.33641e-05
2.18218e-05
2.04491e-05
1.92362e-05
1.81699e-05
1.72344e-05
1.64132e-05
1.56893e-05
1.50469e-05
1.44715e-05
1.39505e-05
1.34734e-05
1.3032e-05
1.26197e-05
1.22319e-05
1.1865e-05
1.15166e-05
1.11854e-05
1.087e-05
1.05696e-05
1.02834e-05
1.00104e-05
9.74967e-06
9.49983e-06
9.25936e-06
9.02651e-06
8.79931e-06
8.57569e-06
8.35347e-06
8.13047e-06
7.90451e-06
7.67348e-06
7.4354e-06
7.1885e-06
6.93116e-06
6.66198e-06
6.37989e-06
3.41566e-05
3.33757e-05
3.31365e-05
3.35448e-05
3.46645e-05
3.64812e-05
3.88713e-05
4.16058e-05
4.4405e-05
4.36479e-05
3.92051e-05
4.4153e-05
5.41327e-05
5.57383e-05
5.47955e-05
5.57384e-05
5.75928e-05
5.79577e-05
5.83521e-05
5.88267e-05
5.94128e-05
6.0126e-05
6.09681e-05
6.19292e-05
6.29889e-05
6.41185e-05
6.52814e-05
6.64349e-05
6.75235e-05
6.84836e-05
6.92698e-05
6.98479e-05
7.01865e-05
7.02578e-05
7.00386e-05
6.95117e-05
6.86668e-05
6.75015e-05
6.60224e-05
6.42444e-05
6.21907e-05
5.98919e-05
5.73845e-05
5.47096e-05
5.1911e-05
4.90348e-05
4.61273e-05
4.32322e-05
4.03897e-05
3.76347e-05
3.49959e-05
3.24958e-05
3.01513e-05
2.79736e-05
2.59706e-05
2.41462e-05
2.25002e-05
2.10279e-05
1.97212e-05
1.85685e-05
1.7556e-05
1.66679e-05
1.5888e-05
1.52003e-05
1.45895e-05
1.4042e-05
1.35458e-05
1.30912e-05
1.26701e-05
1.22764e-05
1.19055e-05
1.15539e-05
1.12193e-05
1.08998e-05
1.05943e-05
1.03014e-05
1.002e-05
9.74883e-06
9.48624e-06
9.23048e-06
8.9795e-06
8.73102e-06
8.48264e-06
8.23192e-06
7.97648e-06
7.71407e-06
7.44271e-06
7.16074e-06
6.86697e-06
6.56071e-06
6.24182e-06
5.91072e-06
5.56859e-06
4.14121e-05
3.90056e-05
3.68969e-05
3.51739e-05
3.3981e-05
3.32833e-05
3.31552e-05
3.36862e-05
3.49278e-05
3.68511e-05
3.93189e-05
4.20972e-05
4.49193e-05
4.59416e-05
4.03441e-05
4.30434e-05
5.35944e-05
5.62561e-05
5.71516e-05
5.76226e-05
5.82945e-05
5.87575e-05
5.92587e-05
5.98453e-05
6.05452e-05
6.13707e-05
6.23206e-05
6.33818e-05
6.45314e-05
6.57378e-05
6.69616e-05
6.81569e-05
6.92644e-05
7.02177e-05
7.09703e-05
7.14869e-05
7.17355e-05
7.16881e-05
7.13222e-05
7.06218e-05
6.95791e-05
6.81957e-05
6.64827e-05
6.4461e-05
6.21601e-05
5.9617e-05
5.68748e-05
5.39811e-05
5.09846e-05
4.79365e-05
4.48874e-05
4.18849e-05
3.89714e-05
3.61821e-05
3.35443e-05
3.10769e-05
2.87912e-05
2.66912e-05
2.47782e-05
2.30497e-05
2.14998e-05
2.01198e-05
1.88985e-05
1.78228e-05
1.6878e-05
1.60488e-05
1.53196e-05
1.46753e-05
1.41017e-05
1.35862e-05
1.31179e-05
1.26876e-05
1.22879e-05
1.19131e-05
1.15587e-05
1.12215e-05
1.08989e-05
1.05889e-05
1.029e-05
1.00004e-05
9.71859e-06
9.44256e-06
9.17013e-06
8.89884e-06
8.62603e-06
8.34893e-06
8.06486e-06
7.77137e-06
7.46644e-06
7.14867e-06
6.81736e-06
6.47273e-06
6.11596e-06
5.74924e-06
5.37569e-06
4.99941e-06
4.62531e-06
4.09005e-05
3.85934e-05
3.65821e-05
3.49611e-05
3.38305e-05
3.32231e-05
3.3209e-05
3.38656e-05
3.52309e-05
3.72605e-05
3.98046e-05
4.26275e-05
4.54862e-05
4.83064e-05
4.25797e-05
4.25319e-05
5.26317e-05
5.682e-05
5.77575e-05
5.84699e-05
5.90612e-05
5.96279e-05
6.02399e-05
6.09411e-05
6.17561e-05
6.26937e-05
6.37494e-05
6.49072e-05
6.61411e-05
6.74163e-05
6.86905e-05
6.99144e-05
7.10251e-05
7.19536e-05
7.26523e-05
7.30851e-05
7.32196e-05
7.30277e-05
7.24876e-05
7.15855e-05
7.03167e-05
6.8687e-05
6.67135e-05
6.44232e-05
6.18528e-05
5.90458e-05
5.60522e-05
5.29264e-05
4.97238e-05
4.64988e-05
4.33075e-05
4.02018e-05
3.7227e-05
3.44191e-05
3.18031e-05
2.93934e-05
2.71948e-05
2.52022e-05
2.34082e-05
2.18025e-05
2.03731e-05
1.91067e-05
1.7989e-05
1.70053e-05
1.61408e-05
1.53805e-05
1.47098e-05
1.4115e-05
1.35832e-05
1.31031e-05
1.26648e-05
1.22601e-05
1.18821e-05
1.15257e-05
1.11865e-05
1.08614e-05
1.05477e-05
1.02431e-05
9.94536e-06
9.65238e-06
9.36174e-06
9.07078e-06
8.77657e-06
8.47607e-06
8.16621e-06
7.84426e-06
7.50805e-06
7.15633e-06
6.78902e-06
6.40744e-06
6.01434e-06
5.61401e-06
5.21198e-06
4.81482e-06
4.42962e-06
4.06336e-06
3.72232e-06
4.03896e-05
3.81858e-05
3.62725e-05
3.47481e-05
3.37014e-05
3.3194e-05
3.32987e-05
3.40843e-05
3.55749e-05
3.77099e-05
4.03285e-05
4.31942e-05
4.60914e-05
4.89368e-05
4.55996e-05
4.2892e-05
5.13699e-05
5.74365e-05
5.84241e-05
5.92117e-05
5.9899e-05
6.05736e-05
6.12996e-05
6.21173e-05
6.30477e-05
6.40961e-05
6.52545e-05
6.65038e-05
6.78145e-05
6.9149e-05
7.04615e-05
7.16993e-05
7.27961e-05
7.36802e-05
7.43035e-05
7.46293e-05
7.46244e-05
7.42613e-05
7.35194e-05
7.23871e-05
7.08638e-05
6.89605e-05
6.67004e-05
6.41179e-05
6.12566e-05
5.81669e-05
5.49055e-05
5.15346e-05
4.81176e-05
4.4712e-05
4.13793e-05
3.81767e-05
3.51531e-05
3.23453e-05
2.97759e-05
2.74532e-05
2.53737e-05
2.35213e-05
2.18769e-05
2.04215e-05
1.91361e-05
1.80026e-05
1.70042e-05
1.61252e-05
1.53508e-05
1.46671e-05
1.4061e-05
1.35202e-05
1.30335e-05
1.25909e-05
1.21837e-05
1.18046e-05
1.14476e-05
1.11076e-05
1.07809e-05
1.04639e-05
1.01538e-05
9.84786e-06
9.54313e-06
9.2367e-06
8.92538e-06
8.60581e-06
8.27464e-06
7.92884e-06
7.56604e-06
7.18505e-06
6.78628e-06
6.3721e-06
5.94703e-06
5.51759e-06
5.09192e-06
4.67915e-06
4.28822e-06
3.92704e-06
3.60134e-06
3.31399e-06
3.06481e-06
4.8291e-05
4.52137e-05
4.23853e-05
3.99494e-05
3.78013e-05
3.59748e-05
3.45452e-05
3.35945e-05
3.31964e-05
3.34259e-05
3.43438e-05
3.59605e-05
3.81998e-05
4.089e-05
4.37954e-05
4.67388e-05
4.96285e-05
4.89476e-05
4.44054e-05
5.00993e-05
5.81112e-05
5.9157e-05
6.0026e-05
6.08134e-05
6.15991e-05
6.24416e-05
6.33766e-05
6.44217e-05
6.55782e-05
6.68349e-05
6.81689e-05
6.95477e-05
7.09302e-05
7.22673e-05
7.3503e-05
7.45673e-05
7.53866e-05
7.59122e-05
7.61067e-05
7.59368e-05
7.53755e-05
7.44039e-05
7.30135e-05
7.12082e-05
6.90049e-05
6.64338e-05
6.35365e-05
6.0364e-05
5.6973e-05
5.3427e-05
4.97976e-05
4.61566e-05
4.25684e-05
3.90972e-05
3.58067e-05
3.27505e-05
2.99665e-05
2.74735e-05
2.52718e-05
2.33464e-05
2.16705e-05
2.02077e-05
1.89295e-05
1.78095e-05
1.68256e-05
1.59589e-05
1.51936e-05
1.4516e-05
1.39138e-05
1.33757e-05
1.28912e-05
1.2451e-05
1.20462e-05
1.16696e-05
1.13146e-05
1.09758e-05
1.06487e-05
1.03293e-05
1.0014e-05
9.69961e-06
9.38263e-06
9.05952e-06
8.72662e-06
8.38027e-06
8.01713e-06
7.63462e-06
7.23153e-06
6.80861e-06
6.36909e-06
5.91902e-06
5.46706e-06
5.02384e-06
4.60078e-06
4.20846e-06
3.85514e-06
3.54549e-06
3.28011e-06
3.05561e-06
2.86556e-06
2.70154e-06
4.76512e-05
4.46654e-05
4.19316e-05
3.95253e-05
3.74355e-05
3.56921e-05
3.43587e-05
3.35127e-05
3.32321e-05
3.35922e-05
3.46457e-05
3.63887e-05
3.87302e-05
4.14888e-05
4.44307e-05
4.74334e-05
5.03809e-05
5.22474e-05
4.74486e-05
4.93934e-05
5.88463e-05
5.99623e-05
6.09186e-05
6.18095e-05
6.27089e-05
6.36691e-05
6.47214e-05
6.58791e-05
6.71399e-05
6.84886e-05
6.98992e-05
7.13356e-05
7.27534e-05
7.41002e-05
7.53164e-05
7.63291e-05
7.7062e-05
7.74669e-05
7.75057e-05
7.71451e-05
7.6359e-05
7.51306e-05
7.34553e-05
7.1342e-05
6.88142e-05
6.5909e-05
6.2676e-05
5.91731e-05
5.54625e-05
5.16134e-05
4.77101e-05
4.38352e-05
4.0063e-05
3.64595e-05
3.30944e-05
3.00274e-05
2.72972e-05
2.49172e-05
2.28762e-05
2.11443e-05
1.96811e-05
1.84317e-05
1.73554e-05
1.6419e-05
1.5597e-05
1.48699e-05
1.42231e-05
1.3645e-05
1.31255e-05
1.26556e-05
1.22271e-05
1.18321e-05
1.14635e-05
1.11146e-05
1.07801e-05
1.04549e-05
1.01346e-05
9.81508e-06
9.49256e-06
9.16321e-06
8.82316e-06
8.46854e-06
8.09579e-06
7.70208e-06
7.28605e-06
6.84853e-06
6.39328e-06
5.92739e-06
5.46116e-06
5.00723e-06
4.57888e-06
4.18801e-06
3.84304e-06
3.54761e-06
3.30023e-06
3.095e-06
2.92293e-06
2.77359e-06
2.63693e-06
2.50463e-06
4.70189e-05
4.41104e-05
4.14556e-05
3.91062e-05
3.70842e-05
3.54264e-05
3.41931e-05
3.34591e-05
3.33037e-05
3.38001e-05
3.4992e-05
3.6861e-05
3.93017e-05
4.21257e-05
4.51079e-05
4.81793e-05
5.1178e-05
5.38416e-05
5.16089e-05
5.02519e-05
5.79851e-05
6.08489e-05
6.18954e-05
6.28924e-05
6.39069e-05
6.4985e-05
6.61532e-05
6.74201e-05
6.87796e-05
7.02129e-05
7.16903e-05
7.31725e-05
7.46116e-05
7.59519e-05
7.71304e-05
7.80711e-05
7.86963e-05
7.89577e-05
7.88167e-05
7.82403e-05
7.72038e-05
7.56933e-05
7.37081e-05
7.12631e-05
6.83883e-05
6.51281e-05
6.15398e-05
5.76888e-05
5.36414e-05
4.94672e-05
4.52724e-05
4.11565e-05
3.71955e-05
3.34729e-05
3.00545e-05
2.70071e-05
2.43705e-05
2.21486e-05
2.03134e-05
1.8815e-05
1.75931e-05
1.65877e-05
1.57337e-05
1.49935e-05
1.43402e-05
1.37554e-05
1.3227e-05
1.27462e-05
1.23065e-05
1.19015e-05
1.15252e-05
1.11715e-05
1.08344e-05
1.05082e-05
1.01881e-05
9.86923e-06
9.54736e-06
9.21826e-06
8.87789e-06
8.52238e-06
8.14817e-06
7.75239e-06
7.33353e-06
6.89229e-06
6.43246e-06
5.96148e-06
5.49049e-06
5.03333e-06
4.60459e-06
4.21714e-06
3.87975e-06
3.5955e-06
3.36162e-06
3.17047e-06
3.01134e-06
2.87257e-06
2.7435e-06
2.616e-06
2.48578e-06
2.35302e-06
4.63946e-05
4.35532e-05
4.09717e-05
3.86913e-05
3.67461e-05
3.51794e-05
3.40518e-05
3.34372e-05
3.34146e-05
3.40528e-05
3.53856e-05
3.73796e-05
3.99154e-05
4.27993e-05
4.58374e-05
4.89799e-05
5.20152e-05
5.46915e-05
5.55677e-05
5.32403e-05
5.74694e-05
6.18195e-05
6.29608e-05
6.40663e-05
6.51965e-05
6.63917e-05
6.76727e-05
6.9044e-05
7.04954e-05
7.20042e-05
7.35373e-05
7.50521e-05
7.64974e-05
7.78144e-05
7.89364e-05
7.97843e-05
8.0281e-05
8.03764e-05
8.00324e-05
7.92166e-05
7.79061e-05
7.60903e-05
7.37735e-05
7.0976e-05
6.77346e-05
6.41007e-05
6.01388e-05
5.59027e-05
5.02834e-05
4.61675e-05
4.24907e-05
3.8135e-05
3.39909e-05
3.0161e-05
2.67265e-05
2.37454e-05
2.12572e-05
1.9249e-05
1.76682e-05
1.64395e-05
1.54831e-05
1.47262e-05
1.41063e-05
1.35663e-05
1.30812e-05
1.2635e-05
1.2219e-05
1.18286e-05
1.14608e-05
1.11129e-05
1.07813e-05
1.04615e-05
1.01486e-05
9.83738e-06
9.5233e-06
9.20201e-06
8.86937e-06
8.52145e-06
8.15475e-06
7.76648e-06
7.35518e-06
6.92142e-06
6.46874e-06
6.00429e-06
5.53905e-06
5.08704e-06
4.66338e-06
4.28163e-06
3.9511e-06
3.67509e-06
3.45062e-06
3.2694e-06
3.11993e-06
2.98982e-06
2.86802e-06
2.74663e-06
2.62202e-06
2.49542e-06
2.37292e-06
2.26445e-06
4.5778e-05
4.29978e-05
4.04874e-05
3.82828e-05
3.64222e-05
3.49536e-05
3.39386e-05
3.34513e-05
3.35688e-05
3.43544e-05
3.58303e-05
3.79477e-05
4.05733e-05
4.35089e-05
4.5856e-05
4.98374e-05
5.29064e-05
5.5597e-05
5.78969e-05
5.72461e-05
5.87781e-05
6.28735e-05
6.41172e-05
6.53342e-05
6.65804e-05
6.78904e-05
6.92801e-05
7.07494e-05
7.22841e-05
7.3858e-05
7.54346e-05
7.69679e-05
7.84037e-05
7.96798e-05
8.07265e-05
8.1462e-05
8.18091e-05
8.17175e-05
8.11489e-05
8.00724e-05
7.84674e-05
7.63268e-05
7.36601e-05
7.04934e-05
6.68695e-05
6.28455e-05
5.84915e-05
5.34006e-05
4.77222e-05
4.33319e-05
3.9413e-05
3.48128e-05
3.05003e-05
2.65995e-05
2.32045e-05
2.03632e-05
1.81017e-05
1.63744e-05
1.50924e-05
1.41534e-05
1.34625e-05
1.29417e-05
1.25311e-05
1.21814e-05
1.1853e-05
1.15338e-05
1.12181e-05
1.0905e-05
1.05961e-05
1.02925e-05
9.99375e-06
9.69718e-06
9.39859e-06
9.09323e-06
8.77658e-06
8.44472e-06
8.09436e-06
7.72293e-06
7.32912e-06
6.9135e-06
6.47925e-06
6.03291e-06
5.58458e-06
5.14746e-06
4.73614e-06
4.36422e-06
4.04158e-06
3.77238e-06
3.55446e-06
3.3801e-06
3.23798e-06
3.11564e-06
3.00189e-06
2.88875e-06
2.77282e-06
2.6561e-06
2.54546e-06
2.45156e-06
2.38645e-06
2.35973e-06
4.51691e-05
4.24472e-05
4.0008e-05
3.7884e-05
3.61151e-05
3.47518e-05
3.38574e-05
3.35057e-05
3.37712e-05
3.47099e-05
3.63312e-05
3.85701e-05
4.12795e-05
4.42583e-05
4.59422e-05
5.00318e-05
5.38606e-05
5.65604e-05
5.88768e-05
6.04535e-05
6.13546e-05
6.4014e-05
6.53677e-05
6.66989e-05
6.80603e-05
6.94816e-05
7.09742e-05
7.25337e-05
7.4142e-05
7.57695e-05
7.73762e-05
7.89132e-05
8.03233e-05
8.15412e-05
8.24941e-05
8.30982e-05
8.32763e-05
8.29783e-05
8.21665e-05
8.08114e-05
7.88952e-05
7.64151e-05
7.33855e-05
6.9838e-05
6.58205e-05
6.1394e-05
5.66307e-05
5.14427e-05
4.60986e-05
4.11991e-05
3.61124e-05
3.12706e-05
2.6831e-05
2.29344e-05
1.96781e-05
1.70941e-05
1.51647e-05
1.37866e-05
1.28271e-05
1.2164e-05
1.17014e-05
1.13693e-05
1.11177e-05
1.091e-05
1.07092e-05
1.04935e-05
1.02574e-05
1.00017e-05
9.73109e-06
9.45205e-06
9.16832e-06
8.87977e-06
8.58311e-06
8.27375e-06
7.94751e-06
7.60152e-06
7.23448e-06
6.84688e-06
6.4416e-06
6.0244e-06
5.60415e-06
5.19244e-06
4.80247e-06
4.44702e-06
4.13606e-06
3.87475e-06
3.66246e-06
3.49309e-06
3.3566e-06
3.24122e-06
3.13592e-06
3.03272e-06
2.92805e-06
2.82387e-06
2.72714e-06
2.64927e-06
2.60332e-06
2.60039e-06
2.64704e-06
2.7441e-06
4.45689e-05
4.19045e-05
3.95375e-05
3.74986e-05
3.58282e-05
3.45782e-05
3.38131e-05
3.36059e-05
3.40275e-05
3.51251e-05
3.68939e-05
3.92524e-05
4.20406e-05
4.506e-05
4.63545e-05
4.99418e-05
5.48775e-05
5.75878e-05
5.99266e-05
6.1938e-05
6.36883e-05
6.52504e-05
6.67163e-05
6.81625e-05
6.96368e-05
7.11646e-05
7.27531e-05
7.43937e-05
7.60647e-05
7.77332e-05
7.93561e-05
8.08817e-05
8.225e-05
8.33927e-05
8.42343e-05
8.46894e-05
8.46814e-05
8.41607e-05
8.30904e-05
8.14432e-05
7.92046e-05
7.63762e-05
7.29772e-05
6.9044e-05
6.46285e-05
5.9795e-05
5.46194e-05
4.91898e-05
4.36169e-05
3.80567e-05
3.26722e-05
2.76475e-05
2.3178e-05
1.94238e-05
1.64678e-05
1.42966e-05
1.28008e-05
1.18055e-05
1.11486e-05
1.07093e-05
1.04076e-05
1.01916e-05
1.00267e-05
9.88786e-06
9.75438e-06
9.59578e-06
9.40177e-06
9.16977e-06
8.90611e-06
8.6221e-06
8.32765e-06
8.02703e-06
7.71869e-06
7.39835e-06
7.0624e-06
6.70968e-06
6.34184e-06
5.9633e-06
5.58111e-06
5.20477e-06
4.84539e-06
4.51431e-06
4.22102e-06
3.97134e-06
3.76623e-06
3.60167e-06