/*--------------------------------*- C++ -*----------------------------------*\
  =========                 |
  \\      /  F ield         | OpenFOAM: The Open Source CFD Toolbox
   \\    /   O peration     | Website:  https://openfoam.org
    \\  /    A nd           | Version:  10
     \\/     M anipulation  |
\*---------------------------------------------------------------------------*/
FoamFile
{
    format      ascii;
    class       volScalarField;
    location    "40000";
    object      nut;
}
// * * * * * * * * * * * * * * * * * * * * * * * * * * * * * * * * * * * * * //

dimensions      [0 2 -1 0 0 0 0];

internalField   nonuniform List<scalar> 
17981
(
0.00103212
0.00103105
0.0010322
0.00103559
0.00104117
0.00104885
0.00105849
0.00106991
0.00108292
0.00109729
0.00111282
0.00112929
0.00114651
0.00116428
0.00118243
0.00120082
0.00121931
0.00123779
0.00125615
0.00127431
0.00129221
0.00130978
0.001327
0.0013438
0.00136019
0.00137612
0.0013916
0.00140661
0.00142115
0.00143522
0.00144884
0.00146199
0.0014747
0.00148698
0.00149883
0.00151026
0.00152128
0.00153191
0.00154216
0.00155204
0.00156156
0.00157074
0.00157959
0.00158811
0.00159633
0.00160425
0.00161188
0.00161924
0.000999419
0.000999703
0.0010022
0.00100694
0.00101386
0.00102287
0.00103383
0.00104653
0.00106079
0.00107637
0.00109305
0.00111061
0.00112885
0.00114757
0.0011666
0.00118579
0.00120501
0.00122414
0.00124308
0.00126176
0.00128011
0.00129808
0.00131562
0.00133271
0.00134932
0.00136543
0.00138105
0.00139616
0.00141076
0.00142486
0.00143847
0.0014516
0.00146426
0.00147646
0.00148821
0.00149953
0.00151043
0.00152092
0.00153102
0.00154073
0.00155009
0.00155909
0.00156775
0.00157609
0.00158412
0.00159185
0.00159929
0.00160646
0.00096683
0.000968761
0.000972893
0.000979239
0.000987748
0.000998314
0.00101078
0.00102494
0.00104059
0.0010575
0.00107542
0.00109414
0.00111345
0.00113315
0.00115308
0.00117307
0.001193
0.00121276
0.00123225
0.0012514
0.00127015
0.00128844
0.00130625
0.00132355
0.00134032
0.00135654
0.00137222
0.00138735
0.00140194
0.00141599
0.00142952
0.00144255
0.00145508
0.00146713
0.00147872
0.00148986
0.00150056
0.00151085
0.00152073
0.00153023
0.00153935
0.00154812
0.00155655
0.00156465
0.00157243
0.00157992
0.00158712
0.00159404
0.00096311
0.000975428
0.000989578
0.00100535
0.00102252
0.00104084
0.00106008
0.00108001
0.00110042
0.0011211
0.0011419
0.00116267
0.00118327
0.00120361
0.00122358
0.00124314
0.00126221
0.00128076
0.00129876
0.00131618
0.00133301
0.00134926
0.00136491
0.00137998
0.00139447
0.00140839
0.00142176
0.0014346
0.00144693
0.00145876
0.0014701
0.00148098
0.00149142
0.00150143
0.00151103
0.00152023
0.00152906
0.00153754
0.00154567
0.00155347
0.00156096
0.00156815
0.00157506
0.00158169
0.000940177
0.000954432
0.000970422
0.000987927
0.00100671
0.00102652
0.00104711
0.00106826
0.00108976
0.00111141
0.00113305
0.00115453
0.00117574
0.00119658
0.00121696
0.00123683
0.00125613
0.00127484
0.00129292
0.00131037
0.00132718
0.00134334
0.00135887
0.00137378
0.00138807
0.00140177
0.00141489
0.00142745
0.00143948
0.001451
0.00146202
0.00147257
0.00148266
0.00149232
0.00150156
0.00151041
0.00151888
0.00152699
0.00153476
0.00154221
0.00154935
0.00155619
0.00156275
0.00156904
0.000919205
0.000935544
0.000953492
0.000972817
0.000993268
0.00101459
0.00103655
0.0010589
0.00108145
0.00110401
0.00112641
0.00114853
0.00117026
0.0011915
0.00121218
0.00123226
0.00125168
0.00127043
0.00128849
0.00130585
0.00132251
0.00133849
0.00135378
0.00136842
0.00138241
0.00139578
0.00140854
0.00142074
0.00143238
0.00144349
0.0014541
0.00146423
0.0014739
0.00148313
0.00149194
0.00150036
0.00150841
0.0015161
0.00152345
0.00153048
0.00153721
0.00154365
0.00154982
0.00155572
0.000918961
0.000938944
0.000960132
0.000982269
0.0010051
0.00102838
0.00105188
0.0010754
0.00109878
0.00112185
0.0011445
0.00116662
0.00118814
0.00120899
0.00122915
0.00124856
0.00126722
0.00128513
0.00130228
0.00131867
0.00133434
0.00134928
0.00136353
0.00137711
0.00139004
0.00140235
0.00141407
0.00142523
0.00143586
0.00144597
0.00145559
0.00146476
0.00147348
0.0014818
0.00148972
0.00149727
0.00150448
0.00151135
0.00151791
0.00152418
0.00153017
0.0015359
0.00154138
0.000949901
0.000973689
0.000997965
0.00102249
0.00104704
0.00107143
0.0010955
0.0011191
0.00114214
0.00116452
0.00118618
0.00120706
0.00122715
0.00124641
0.00126485
0.00128246
0.00129926
0.00131526
0.00133049
0.00134496
0.0013587
0.00137175
0.00138414
0.00139589
0.00140705
0.00141763
0.00142767
0.0014372
0.00144624
0.00145482
0.00146298
0.00147072
0.00147808
0.00148508
0.00149174
0.00149808
0.00150412
0.00150988
0.00151538
0.00152062
0.00152562
0.000967388
0.00099301
0.00101866
0.00104413
0.00106924
0.00109386
0.00111784
0.00114111
0.00116358
0.00118522
0.00120597
0.00122583
0.0012448
0.00126286
0.00128004
0.00129635
0.00131182
0.00132648
0.00134035
0.00135348
0.00136589
0.00137763
0.00138872
0.00139921
0.00140912
0.0014185
0.00142736
0.00143574
0.00144368
0.00145119
0.0014583
0.00146504
0.00147143
0.00147749
0.00148325
0.00148873
0.00149393
0.00149889
0.00150361
0.00150811
0.00101656
0.00104279
0.00106846
0.00109344
0.00111763
0.00114095
0.00116335
0.00118478
0.00120525
0.00122472
0.00124323
0.00126077
0.00127737
0.00129305
0.00130786
0.00132183
0.00133499
0.00134738
0.00135905
0.00137003
0.00138038
0.00139011
0.00139927
0.0014079
0.00141602
0.00142368
0.0014309
0.0014377
0.00144413
0.00145019
0.00145593
0.00146135
0.00146649
0.00147136
0.00147597
0.00148036
0.00148453
0.0014885
0.00111798
0.00114116
0.0011633
0.00118437
0.00120437
0.0012233
0.00124118
0.00125805
0.00127393
0.00128886
0.00130289
0.00131604
0.00132837
0.00133993
0.00135076
0.0013609
0.0013704
0.0013793
0.00138764
0.00139546
0.00140278
0.00140965
0.0014161
0.00142215
0.00142784
0.0014332
0.00143824
0.00144299
0.00144747
0.00145171
0.00145571
0.00145951
0.00146311
0.00146653
0.00111836
0.00114122
0.00116291
0.00118343
0.0012028
0.00122102
0.00123814
0.0012542
0.00126923
0.00128328
0.00129639
0.00130863
0.00132003
0.00133066
0.00134056
0.00134979
0.00135838
0.00136638
0.00137384
0.00138079
0.00138727
0.00139331
0.00139895
0.00140421
0.00140914
0.00141375
0.00141807
0.00142213
0.00142594
0.00142952
0.00143291
0.0014361
0.00143912
0.00144198
0.00111823
0.00114056
0.00116162
0.00118143
0.00119999
0.00121736
0.00123358
0.00124869
0.00126274
0.0012758
0.00128791
0.00129913
0.00130952
0.00131915
0.00132805
0.0013363
0.00134393
0.00135098
0.00135751
0.00136355
0.00136915
0.00137433
0.00137914
0.0013836
0.00138774
0.0013916
0.00139519
0.00139855
0.00140169
0.00140462
0.00140738
0.00140998
0.00141243
0.00141474
0.00111702
0.00113863
0.00115889
0.0011778
0.00119542
0.0012118
0.00122698
0.00124103
0.00125401
0.00126597
0.00127699
0.00128712
0.00129644
0.001305
0.00131287
0.00132009
0.00132672
0.0013328
0.00133838
0.0013435
0.0013482
0.00135251
0.00135648
0.00136013
0.0013635
0.00136661
0.00136948
0.00137214
0.00137461
0.00137692
0.00137907
0.00138109
0.00138298
0.00138477
0.00113487
0.00115416
0.00117204
0.00118859
0.00120385
0.0012179
0.0012308
0.00124261
0.00125341
0.00126327
0.00127227
0.00128047
0.00128795
0.00129474
0.00130092
0.00130653
0.00131163
0.00131625
0.00132045
0.00132426
0.00132772
0.00133086
0.00133372
0.00133632
0.0013387
0.00134088
0.00134287
0.00134471
0.00134641
0.00134799
0.00134945
0.00135083
0.00135212
0.00112875
0.00114694
0.00116368
0.00117904
0.00119311
0.00120595
0.00121763
0.00122822
0.00123782
0.00124649
0.00125433
0.00126141
0.00126778
0.0012735
0.00127864
0.00128325
0.00128737
0.00129106
0.00129435
0.0012973
0.00129992
0.00130227
0.00130437
0.00130625
0.00130794
0.00130946
0.00131083
0.00131207
0.0013132
0.00131425
0.00131521
0.00131611
0.00131695
0.00111982
0.00113681
0.00115232
0.00116645
0.00117927
0.00119085
0.00120128
0.00121063
0.00121901
0.0012265
0.00123319
0.00123914
0.00124443
0.0012491
0.00125323
0.00125685
0.00126004
0.00126283
0.00126526
0.00126738
0.00126923
0.00127083
0.00127221
0.00127342
0.00127447
0.00127538
0.00127618
0.00127688
0.00127751
0.00127807
0.00127858
0.00127906
0.0012795
0.00112343
0.00113768
0.00115055
0.0011621
0.00117243
0.00118162
0.00118975
0.00119694
0.00120328
0.00120884
0.00121371
0.00121794
0.00122161
0.00122476
0.00122746
0.00122976
0.0012317
0.00123333
0.00123469
0.00123581
0.00123672
0.00123747
0.00123806
0.00123853
0.0012389
0.00123919
0.00123942
0.0012396
0.00123975
0.00123987
0.00123999
0.0012401
0.00108994
0.001101
0.0011117
0.00112229
0.00113301
0.00114417
0.00115577
0.00116731
0.00117686
0.00118135
0.00118519
0.00118843
0.00119115
0.0011934
0.00119524
0.00119672
0.00119789
0.00119879
0.00119945
0.00119992
0.00120023
0.0012004
0.00120045
0.00120042
0.00120033
0.00120018
0.00120001
0.00119982
0.00119962
0.00119943
0.00119925
0.0011991
0.00105142
0.00105932
0.00106707
0.00107495
0.00108316
0.00109183
0.00110085
0.00111002
0.00111907
0.00112777
0.00113618
0.00114455
0.00115272
0.00115918
0.00116037
0.00116112
0.00116161
0.00116187
0.00116193
0.00116184
0.00116162
0.00116131
0.00116092
0.00116047
0.00115999
0.0011595
0.001159
0.00115851
0.00115804
0.00115761
0.00115722
0.00115687
0.00101757
0.00102236
0.00102725
0.00103266
0.00103889
0.00104598
0.00105364
0.00106147
0.00106917
0.00107659
0.00108374
0.00109077
0.0010978
0.00110478
0.00111148
0.00111753
0.00112201
0.00112296
0.00112252
0.00112197
0.00112132
0.00112061
0.00111986
0.00111908
0.0011183
0.00111754
0.0011168
0.00111609
0.00111544
0.00111484
0.0011143
0.00111383
0.000989811
0.000991063
0.000992523
0.000994803
0.000998312
0.00100317
0.00100909
0.00101564
0.00102253
0.00102951
0.00103642
0.00104319
0.00104973
0.00105597
0.0010619
0.00106751
0.00107272
0.0010772
0.0010803
0.00108085
0.00107985
0.00107883
0.0010778
0.00107677
0.00107577
0.00107481
0.0010739
0.00107305
0.00107228
0.00107158
0.00107096
0.00107043
0.000966129
0.000963856
0.000961701
0.000960557
0.000961038
0.000963397
0.000967353
0.000972385
0.000978131
0.000984315
0.000990726
0.0009972
0.00100361
0.00100983
0.00101575
0.00102129
0.00102632
0.00103076
0.00103442
0.00103696
0.00103778
0.00103651
0.00103527
0.00103406
0.0010329
0.00103181
0.00103079
0.00102986
0.00102902
0.00102828
0.00102764
0.0010271
0.000945391
0.000939775
0.000933984
0.000929186
0.000926285
0.00092574
0.00092741
0.000930807
0.000935451
0.000940944
0.000946958
0.000953225
0.00095953
0.000965702
0.000971611
0.000977147
0.000982205
0.000986667
0.000990381
0.000993129
0.000994564
0.000994099
0.000992698
0.000991362
0.000990104
0.000988935
0.000987864
0.0009869
0.000986049
0.000985314
0.0009847
0.000984209
0.000928905
0.000919652
0.000909961
0.000901206
0.000894518
0.000890599
0.000889583
0.000891043
0.000894388
0.000899099
0.00090472
0.000910862
0.0009172
0.000923475
0.00092949
0.000935096
0.000940176
0.000944621
0.000948295
0.000950998
0.000952402
0.000951934
0.000950428
0.000949014
0.000947701
0.000946501
0.000945421
0.000944468
0.000943647
0.000942962
0.000942414
0.000942005
0.000915628
0.000904417
0.00089075
0.000877515
0.000866412
0.000858515
0.00085427
0.000853367
0.00085512
0.000858879
0.000864038
0.000870059
0.000876486
0.00088295
0.000889168
0.000894933
0.000900092
0.00090452
0.000908085
0.000910584
0.000911607
0.000910276
0.000908709
0.000907256
0.000905929
0.000904737
0.000903686
0.000902781
0.000902027
0.000901425
0.000900978
0.000900684
0.000893484
0.00089013
0.000875858
0.000858715
0.000842828
0.000830282
0.000822009
0.000818043
0.000817746
0.000820267
0.000824812
0.000830665
0.000837206
0.000843929
0.000850442
0.000856458
0.00086177
0.000866209
0.000869572
0.000871475
0.000871042
0.000869322
0.000867729
0.000866275
0.000864968
0.000863816
0.000862826
0.000862
0.000861343
0.000860854
0.000860536
0.000860385
0.000862743
0.000864439
0.000860271
0.000843442
0.000823844
0.000806444
0.000793476
0.000785653
0.000782609
0.000783406
0.000787041
0.000792583
0.000799207
0.000806227
0.000813106
0.000819443
0.000824941
0.000829337
0.000832253
0.000832843
0.000830967
0.000829229
0.000827642
0.000826216
0.000824959
0.000823877
0.000822975
0.000822255
0.000821719
0.000821368
0.000821201
0.000821215
0.000831888
0.0008327
0.000832718
0.000826804
0.000807916
0.000786935
0.000769159
0.000756749
0.000750115
0.000748535
0.000750813
0.000755782
0.000762376
0.000769684
0.000776966
0.000783659
0.00078934
0.000793595
0.000795658
0.000793741
0.000791851
0.000790124
0.000788571
0.000787201
0.000786019
0.000785032
0.000784241
0.000783649
0.000783257
0.000783063
0.000783065
0.000783262
0.00080115
0.000800398
0.000799021
0.000790587
0.000770219
0.000748907
0.00073182
0.000720845
0.000716026
0.000716322
0.000720315
0.000726669
0.000734205
0.00074193
0.000749033
0.000754792
0.000758281
0.000757726
0.000755674
0.000753797
0.000752108
0.000750615
0.000749325
0.000748243
0.000747371
0.000746713
0.000746268
0.000746036
0.000746015
0.000746203
0.000746595
0.000770041
0.000768551
0.000766505
0.000763994
0.000752567
0.000731354
0.000710702
0.000695255
0.000686451
0.000683938
0.000686373
0.000692125
0.000699699
0.000707773
0.000715191
0.000720806
0.000723005
0.000720773
0.000718732
0.000716892
0.000715264
0.000713853
0.000712665
0.000711702
0.000710966
0.000710458
0.000710176
0.000710119
0.000710285
0.000710669
0.000711267
0.0007396
0.000737391
0.000734697
0.000731605
0.000728201
0.000713613
0.000692248
0.000673199
0.000660229
0.000654164
0.00065425
0.000658873
0.000666195
0.000674499
0.000682132
0.000687249
0.000687215
0.000684986
0.000682976
0.000681194
0.000679647
0.000678338
0.000677271
0.000676445
0.000675861
0.000675518
0.000675413
0.000675544
0.000675907
0.000676497
0.00067731
0.000710011
0.000707103
0.000703774
0.000700115
0.000696206
0.000692127
0.000674511
0.000653829
0.000637258
0.000627396
0.000624392
0.000627108
0.000633648
0.000641873
0.000649631
0.000654407
0.000652623
0.000650411
0.000648449
0.000646741
0.000645291
0.0006441
0.000643168
0.000642495
0.000642077
0.000641911
0.000641995
0.000642324
0.000642893
0.000643698
0.000644732
0.000669685
0.000665267
0.000660741
0.000654649
0.000635926
0.000617088
0.000603658
0.000597206
0.000597272
0.000602308
0.000610002
0.00061758
0.000621718
0.000619257
0.000617073
0.00061517
0.000613548
0.000612208
0.000611148
0.000610365
0.000609855
0.000609613
0.000609636
0.000609918
0.000610453
0.000611236
0.000612261
0.000613521
0.000640452
0.000635511
0.000630522
0.000625554
0.000616378
0.000598587
0.00058263
0.000572778
0.000569788
0.000572593
0.000579083
0.00058615
0.000589597
0.000587133
0.000584982
0.000583144
0.000581617
0.000580396
0.000579476
0.00057885
0.000578512
0.000578456
0.000578674
0.000579161
0.000579908
0.00058091
0.000582159
0.000583649
0.000612543
0.00060706
0.000601587
0.000596192
0.000590935
0.000579347
0.000563257
0.000550754
0.000544669
0.000544872
0.000549535
0.000555638
0.000558732
0.000556258
0.000554138
0.000552366
0.000550936
0.000549838
0.000549062
0.000548599
0.00054844
0.000548574
0.000548993
0.000549688
0.000550651
0.000551874
0.00055335
0.000555071
0.00058608
0.000580028
0.00057404
0.000568187
0.000562528
0.000557119
0.000544115
0.000530432
0.000521666
0.000519123
0.000521641
0.000526424
0.000529083
0.00052662
0.000524522
0.000522814
0.000521479
0.000520504
0.000519875
0.000519577
0.000519598
0.000519926
0.000520547
0.000521453
0.000522634
0.000524079
0.000525782
0.000527734
0.000561154
0.000554505
0.00054797
0.00054162
0.00053552
0.000529725
0.000523867
0.00051105
0.00050044
0.000495296
0.000495463
0.00049862
0.000500551
0.000498145
0.000496116
0.000494467
0.000493219
0.000492361
0.000491875
0.000491741
0.000491943
0.000492463
0.000493289
0.000494406
0.000495803
0.000497471
0.000499399
0.00050158
0.000537839
0.000530569
0.000523452
0.000516565
0.000509977
0.000503748
0.000497929
0.000490854
0.000480418
0.000473276
0.000471079
0.000472342
0.000473153
0.000470765
0.000468808
0.000467262
0.000466109
0.000465361
0.000465014
0.000465041
0.000465422
0.000466135
0.000467163
0.00046849
0.000470104
0.000471991
0.000474143
0.000476551
0.000516219
0.000508295
0.000500559
0.000493089
0.000485963
0.000479245
0.000472992
0.000467248
0.000460129
0.000452422
0.000448306
0.000447605
0.000446895
0.000444486
0.000442567
0.000441109
0.000440083
0.00043946
0.000439244
0.000439429
0.000439985
0.000440888
0.000442117
0.000443652
0.000445479
0.000447585
0.000449957
0.000452587
0.000496344
0.00048774
0.000479348
0.000471253
0.000463536
0.000456271
0.000449524
0.000443344
0.000437768
0.000431799
0.000426752
0.000424345
0.000421777
0.000419307
0.00041739
0.000415991
0.000415073
0.000414595
0.000414525
0.000414859
0.000415587
0.000416676
0.000418101
0.000419841
0.000421878
0.000424196
0.000426785
0.000429632
0.000478254
0.000468946
0.000459867
0.000451105
0.000442747
0.000434877
0.000427569
0.000420883
0.000414865
0.000409542
0.000404927
0.000401017
0.000397792
0.000395222
0.000393273
0.000391902
0.000391065
0.000390713
0.0003908
0.000391293
0.000392183
0.000393452
0.000395068
0.000397008
0.000399249
0.000401775
0.000404574
0.000407634
0.000461998
0.000451953
0.000442155
0.000432687
0.00042364
0.000415107
0.000407172
0.000399908
0.000393372
0.0003876
0.00038261
0.000378401
0.000374955
0.000372242
0.00037022
0.000368841
0.000368053
0.000367799
0.000368026
0.000368679
0.000369732
0.000371172
0.000372972
0.000375104
0.000377544
0.000380272
0.000383275
0.000386542
0.000447609
0.000436786
0.000426236
0.000416027
0.000406248
0.000396999
0.000388376
0.000380465
0.000373336
0.000367039
0.000361599
0.000357022
0.000353294
0.00035038
0.000348236
0.000346806
0.000346029
0.000345841
0.000346179
0.000346982
0.000348192
0.000349794
0.000351771
0.000354088
0.000356719
0.000359642
0.000362843
0.000366309
0.000435118
0.000423461
0.000412121
0.000401139
0.000390593
0.000380584
0.000371216
0.000362592
0.000354797
0.000347897
0.000341929
0.000336909
0.000332825
0.000329646
0.000327322
0.00032579
0.000324981
0.000324821
0.000325238
0.000326163
0.000327529
0.000329292
0.000331431
0.000333922
0.000336735
0.000339845
0.000343235
0.000346894
0.000424591
0.000412005
0.000399819
0.000388029
0.000376685
0.000365878
0.000355717
0.000346319
0.000337788
0.000330205
0.000323627
0.00031808
0.000313562
0.000310043
0.000307473
0.000305783
0.000304894
0.000304723
0.000305187
0.000306205
0.000307703
0.000309614
0.000311909
0.000314565
0.000317551
0.00032084
0.000324412
0.000328257
0.000416147
0.000402475
0.000389346
0.000376695
0.000364521
0.000352885
0.000341893
0.000331668
0.000322332
0.00031399
0.000306716
0.000300555
0.000295517
0.000291578
0.000288688
0.000286775
0.000285753
0.000285526
0.000285999
0.00028708
0.000288683
0.000290733
0.000293174
0.000295983
0.000299133
0.000302591
0.000306338
0.00031036
0.000409951
0.000394968
0.000380735
0.000367133
0.000354085
0.000341594
0.000329741
0.000318647
0.00030845
0.000299275
0.000291222
0.000284356
0.000278706
0.000274259
0.000270969
0.000268762
0.000267545
0.000267211
0.000267653
0.000268764
0.000270447
0.000272614
0.000275188
0.00027814
0.000281444
0.000285064
0.000288977
0.000293169
0.000406244
0.000389662
0.000374078
0.000359363
0.000345358
0.000331979
0.000319243
0.000307254
0.00029615
0.00028608
0.000277169
0.000269509
0.000263152
0.000258102
0.000254323
0.000251743
0.000250262
0.000249766
0.00025013
0.000251235
0.000252968
0.000255228
0.000257928
0.000261013
0.000264456
0.000268228
0.000272298
0.000276653
0.000405307
0.000386831
0.000369564
0.000353467
0.000338347
0.00032401
0.000310369
0.000297467
0.000285429
0.000274415
0.000264578
0.000256039
0.00024888
0.000243129
0.000238765
0.000235724
0.000233904
0.000233181
0.000233417
0.000234475
0.000236227
0.000238555
0.000241361
0.000244566
0.000248139
0.000252053
0.000256273
0.000260783
0.000407025
0.000386806
0.000367492
0.000349637
0.000333118
0.000317675
0.000303077
0.00028925
0.000276267
0.00026428
0.000253463
0.000243971
0.000235918
0.000229366
0.000224317
0.00022072
0.000218475
0.000217453
0.000217502
0.000218468
0.000220203
0.000222573
0.000225463
0.000228779
0.000232472
0.000236514
0.000240875
0.000245532
0.000409892
0.000389415
0.000368248
0.000348197
0.000329863
0.000313022
0.000297336
0.000282553
0.000268623
0.000255655
0.000243826
0.000233322
0.000224295
0.000216844
0.000211006
0.00020675
0.000203987
0.000202584
0.000202381
0.000203203
0.000204882
0.000207265
0.000210216
0.000213628
0.00021743
0.000221589
0.000226078
0.000230874
0.000412521
0.000392966
0.000371617
0.000349602
0.000328928
0.000310235
0.000293174
0.000277328
0.00026244
0.000248499
0.000235651
0.000224098
0.000214031
0.000205594
0.000198863
0.000193841
0.000190458
0.000188585
0.000188054
0.000188673
0.000190252
0.000192613
0.000195601
0.00019909
0.000202987
0.000207253
0.00021186
0.000216786
0.000396055
0.000375732
0.000353597
0.000330841
0.000309677
0.000290754
0.000273575
0.000257654
0.00024275
0.0002289
0.00021629
0.00020514
0.000195641
0.000187921
0.000182025
0.000177913
0.000175471
0.000174527
0.000174875
0.000176302
0.000178604
0.000181601
0.000185147
0.000189126
0.00019349
0.000198204
0.000203245
0.000398388
0.000379169
0.000358157
0.000335326
0.000311953
0.000290451
0.000271433
0.000254238
0.00023833
0.000223505
0.000209859
0.000197615
0.000187004
0.000178211
0.000171336
0.000166384
0.000163264
0.000161812
0.000161812
0.000163028
0.000165227
0.000168203
0.000171783
0.000175833
0.000180279
0.000185087
0.000190234
0.000361828
0.000340218
0.000316793
0.000292944
0.000271272
0.000252296
0.000235186
0.000219382
0.000204743
0.000191425
0.000179683
0.000169756
0.000161809
0.000155904
0.000151993
0.000149929
0.000149493
0.000150429
0.000152476
0.000155394
0.000158982
0.000163084
0.000167599
0.00017249
0.000177733
0.000364334
0.000344015
0.000321911
0.000298004
0.000273836
0.000252176
0.000233376
0.00021645
0.000200847
0.00018651
0.000173656
0.000162565
0.000153472
0.00014651
0.00014169
0.0001389
0.00013793
0.000138508
0.000140344
0.000143164
0.000146732
0.000150864
0.000155434
0.000160397
0.000165724
0.00034644
0.000325732
0.000303248
0.00027898
0.00025467
0.000233212
0.000214718
0.000198071
0.000182773
0.000168866
0.000156623
0.000146341
0.000138234
0.000132392
0.000128757
0.000127143
0.000127274
0.000128832
0.000131506
0.000135022
0.000139161
0.00014377
0.000148791
0.00015419
0.00034725
0.000327976
0.000306999
0.000284261
0.000259759
0.000235501
0.000214441
0.000196372
0.000180097
0.000165218
0.000151882
0.00014041
0.000131101
0.000124134
0.000119532
0.000117156
0.000116739
0.000117943
0.000120416
0.000123842
0.000127965
0.000132599
0.00013766
0.000143117
0.000346216
0.000328392
0.00030897
0.000287857
0.000264996
0.000240398
0.000216402
0.000195931
0.000178393
0.000162587
0.000148253
0.000135643
0.000125113
0.000116946
0.000111263
0.000108001
0.000106924
0.000107683
0.000109893
0.000113186
0.000117262
0.000121901
0.000126987
0.000132488
0.000326754
0.000308906
0.000289474
0.000268364
0.000245518
0.00022097
0.00019746
0.000177756
0.000160844
0.000145608
0.000131961
0.000120248
0.000110841
0.000103983
9.97108e-05
9.78512e-05
9.80659e-05
9.99366e-05
0.000103047
0.000107043
0.000111663
0.000116756
0.000122286
0.000322866
0.000306585
0.000288856
0.000269558
0.000248594
0.000225907
0.000201569
0.000178779
0.000159995
0.000143792
0.00012924
0.00011644
0.00010581
9.77132e-05
9.23197e-05
8.95512e-05
8.91078e-05
9.05537e-05
9.34222e-05
9.72997e-05
0.000101873
0.000106954
0.000112496
0.000301826
0.000285787
0.000268323
0.000249307
0.000228634
0.000206247
0.000182308
0.000160471
0.000142726
0.000127313
0.000113578
0.000101808
9.24606e-05
8.58579e-05
8.20563e-05
8.08318e-05
8.17544e-05
8.43119e-05
8.80256e-05
9.25225e-05
9.75691e-05
0.000103102
0.000294503
0.000280111
0.00026446
0.000247409
0.000228818
0.000208574
0.000186619
0.000163315
0.000142664
0.000126036
0.000111498
9.87402e-05
8.82001e-05
8.03441e-05
7.53997e-05
7.3266e-05
7.35539e-05
7.572e-05
7.92172e-05
8.36025e-05
8.85886e-05
9.40904e-05
0.000284556
0.000271736
0.000257842
0.000242725
0.000226228
0.000208197
0.000188508
0.000167098
0.000144732
0.000125489
0.000110017
9.64594e-05
8.48638e-05
7.5775e-05
6.96098e-05
6.6442e-05
6.59731e-05
6.76546e-05
7.08738e-05
7.51081e-05
8.00076e-05
8.54478e-05
0.000260655
0.000248425
0.00023517
0.000220726
0.000204919
0.000187578
0.000168557
0.000147789
0.000126709
0.000109072
9.47701e-05
8.23278e-05
7.21105e-05
6.47009e-05
6.0392e-05
5.90383e-05
6.01287e-05
6.29969e-05
6.70328e-05
7.18119e-05
7.71614e-05
0.000246943
0.000236258
0.000224752
0.000212272
0.00019864
0.000183661
0.000167139
0.000148907
0.000128893
0.00010941
9.35125e-05
8.04067e-05
6.92575e-05
6.06597e-05
5.51421e-05
5.27801e-05
5.31618e-05
5.55941e-05
5.93763e-05
6.39949e-05
6.92222e-05
0.000230764
0.000221482
0.000211581
0.000200927
0.000189357
0.000176677
0.00016267
0.000147114
0.000129827
0.000110738
9.30146e-05
7.88807e-05
6.70521e-05
5.74266e-05
5.07012e-05
4.72294e-05
4.67799e-05
4.86801e-05
5.21447e-05
5.65578e-05
6.16259e-05
0.000204335
0.000195871
0.000186867
0.000177186
0.000166654
0.000155061
0.000142169
0.000127737
0.000111571
9.36557e-05
7.76889e-05
6.52503e-05
5.48726e-05
4.70447e-05
4.24107e-05
4.10134e-05
4.22755e-05
4.53503e-05
4.95075e-05
5.43734e-05
0.000185142
0.000177939
0.000170387
0.00016238
0.000153775
0.000144389
0.000133992
0.000122316
0.000109086
9.40845e-05
7.77073e-05
6.3611e-05
5.27906e-05
4.40972e-05
3.83311e-05
3.58932e-05
3.64072e-05
3.90117e-05
4.28576e-05
4.7472e-05
0.000164306
0.000158197
0.000151897
0.000145333
0.000138401
0.000130955
0.000122793
0.000113659
0.000103235
9.1177e-05
7.71959e-05
6.28346e-05
5.09642e-05
4.17243e-05
3.49642e-05
3.1443e-05
3.11051e-05
3.31537e-05
3.6629e-05
4.0936e-05
0.000142283
0.000137125
0.000131898
0.000126559
0.000121042
0.000115244
0.000109016
0.000102146
9.43467e-05
8.52562e-05
7.44776e-05
6.1709e-05
4.94068e-05
3.96949e-05
3.22173e-05
2.76616e-05
2.6396e-05
2.7805e-05
3.08501e-05
3.47877e-05
0.000119566
0.00011525
0.000110949
0.000106646
0.000102307
9.78722e-05
9.32458e-05
8.82801e-05
8.27566e-05
7.63692e-05
6.87256e-05
5.94061e-05
4.81632e-05
3.7662e-05
2.9886e-05
2.45001e-05
2.22937e-05
2.29937e-05
2.55541e-05
2.90596e-05
9.6671e-05
9.3122e-05
8.96429e-05
8.62321e-05
8.28777e-05
7.95532e-05
7.62084e-05
7.27569e-05
6.90565e-05
6.48825e-05
5.98979e-05
5.364e-05
4.55816e-05
3.61186e-05
2.77024e-05
2.18534e-05
1.87881e-05
1.87391e-05
2.07743e-05
2.37995e-05
7.41395e-05
7.13172e-05
6.85948e-05
6.59786e-05
6.34693e-05
6.10601e-05
5.87322e-05
5.64462e-05
5.41284e-05
5.16462e-05
4.87711e-05
4.51294e-05
4.01674e-05
3.32407e-05
2.56023e-05
1.9558e-05
1.58319e-05
1.50403e-05
1.6531e-05
1.90536e-05
5.25811e-05
5.04679e-05
4.84665e-05
4.65845e-05
4.48266e-05
4.31948e-05
4.16862e-05
4.02897e-05
3.89788e-05
3.76968e-05
3.63313e-05
3.46697e-05
3.23371e-05
2.8755e-05
2.3297e-05
1.7261e-05
1.32937e-05
1.1862e-05
1.28199e-05
1.48756e-05
3.27773e-05
3.13631e-05
3.00561e-05
2.88607e-05
2.77804e-05
2.68184e-05
2.59773e-05
2.52581e-05
2.46575e-05
2.41609e-05
2.37291e-05
2.32774e-05
2.26239e-05
2.14107e-05
1.90046e-05
1.50252e-05
1.09344e-05
9.11013e-06
9.57302e-06
1.0783e-05
1.59479e-05
1.5198e-05
1.45289e-05
1.39409e-05
1.34345e-05
1.30114e-05
1.26751e-05
1.24299e-05
1.22809e-05
1.22272e-05
1.22491e-05
1.23213e-05
1.23539e-05
1.22364e-05
1.18008e-05
1.05752e-05
8.28471e-06
6.56049e-06
6.72665e-06
7.01016e-06
4.29519e-06
4.07047e-06
3.87696e-06
3.71348e-06
3.57968e-06
3.47632e-06
3.40542e-06
3.37062e-06
3.37702e-06
3.42125e-06
3.44387e-06
3.45704e-06
3.49436e-06
3.57784e-06
3.70191e-06
3.85561e-06
4.03929e-06
4.17285e-06
4.3047e-06
4.51129e-06
1.21389e-07
1.09924e-07
1.00078e-07
9.16979e-08
8.46436e-08
7.88029e-08
7.40949e-08
7.04749e-08
6.7945e-08
6.69201e-08
7.07433e-08
7.71265e-08
8.61438e-08
9.88609e-08
1.16527e-07
1.4156e-07
1.86134e-07
2.93289e-07
8.55538e-07
2.26681e-06
0.00264655
0.00261527
0.00258294
0.00254944
0.00251461
0.00247831
0.00244041
0.00240078
0.00235931
0.00231589
0.00227044
0.0022229
0.00217321
0.00212135
0.00206734
0.00201119
0.00195296
0.00189275
0.00183066
0.00176683
0.00170143
0.00163466
0.00156673
0.00149788
0.00142836
0.00135843
0.00128838
0.00121849
0.00114904
0.00108033
0.00101263
0.000946206
0.000881324
0.000818219
0.000757108
0.000698185
0.000641613
0.000587527
0.000536026
0.000487172
0.000440985
0.000397444
0.000356478
0.000317967
0.000281735
0.000247551
0.000215126
0.000184119
0.000154153
0.000124847
9.59143e-05
6.73972e-05
4.03018e-05
1.80464e-05
6.08959e-06
0.0026444
0.00261271
0.00257996
0.002546
0.00251068
0.00247387
0.00243545
0.00239528
0.00235326
0.00230929
0.00226329
0.00221521
0.002165
0.00211266
0.00205819
0.00200164
0.00194306
0.00188255
0.00182022
0.00175623
0.00169075
0.00162397
0.0015561
0.0014874
0.0014181
0.00134847
0.00127879
0.00120933
0.00114038
0.00107221
0.00100509
0.00093929
0.000875048
0.000812594
0.000752134
0.00069385
0.000637894
0.000584389
0.000533424
0.000485048
0.000439274
0.000396069
0.000355356
0.000317005
0.000280838
0.00024662
0.000214066
0.000182843
0.000152595
0.000122989
9.38445e-05
6.54262e-05
3.91246e-05
1.84123e-05
7.48659e-06
0.00264211
0.00261001
0.00257682
0.00254238
0.00250657
0.00246925
0.00243029
0.00238957
0.002347
0.00230247
0.00225593
0.00220732
0.00215661
0.00210378
0.00204888
0.00199193
0.00193301
0.00187221
0.00180967
0.00174554
0.00167999
0.00161322
0.00154544
0.0014769
0.00140784
0.00133852
0.00126922
0.00120021
0.00113176
0.00106414
0.000997613
0.00093243
0.000868825
0.000807017
0.0007472
0.000689544
0.000634191
0.000581253
0.000530806
0.000482892
0.000437513
0.000394626
0.000354147
0.000315943
0.000279831
0.000245577
0.000212905
0.000181501
0.000151046
0.000121287
9.21815e-05
6.42147e-05
3.89575e-05
2.00505e-05
9.8689e-06
0.00263969
0.00260717
0.00257352
0.0025386
0.00250229
0.00246444
0.00242494
0.00238367
0.00234054
0.00229546
0.00224837
0.00219923
0.00214802
0.00209473
0.00203939
0.00198206
0.00192282
0.00186176
0.00179903
0.00173477
0.00166916
0.00160242
0.00153475
0.00146639
0.00139758
0.0013286
0.00125969
0.00119113
0.00112319
0.00105613
0.000990193
0.000925628
0.000862657
0.000801488
0.000742305
0.000685266
0.000630503
0.000578117
0.000528173
0.000480704
0.000435701
0.000393117
0.000352859
0.000314791
0.000278729
0.000244448
0.000211683
0.000180151