/*--------------------------------*- C++ -*----------------------------------*\
  =========                 |
  \\      /  F ield         | OpenFOAM: The Open Source CFD Toolbox
   \\    /   O peration     | Website:  https://openfoam.org
    \\  /    A nd           | Version:  10
     \\/     M anipulation  |
\*---------------------------------------------------------------------------*/
FoamFile
{
    format      ascii;
    class       volScalarField;
    location    "40000";
    object      p;
}
// * * * * * * * * * * * * * * * * * * * * * * * * * * * * * * * * * * * * * //

dimensions      [0 2 -2 0 0 0 0];

internalField   nonuniform List<scalar> 
17981
(
2.32712e-05
0.0585556
0.1154
0.17061
0.224229
0.276299
0.326856
0.375942
0.423593
0.469848
0.514745
0.558321
0.600611
0.641652
0.681478
0.720125
0.757626
0.794013
0.829319
0.863576
0.896813
0.929062
0.960351
0.990708
1.02016
1.04874
1.07647
1.10337
1.12947
1.15479
1.17936
1.2032
1.22634
1.24878
1.27056
1.2917
1.3122
1.3321
1.35141
1.37015
1.38834
1.40599
1.42311
1.43974
1.45587
1.47153
1.48672
1.50147
-0.0117467
0.0472298
0.104524
0.160175
0.214226
0.266714
0.317679
0.367159
0.415194
0.461821
0.507077
0.551001
0.593627
0.634992
0.675132
0.714081
0.751872
0.788539
0.824115
0.858631
0.892117
0.924605
0.956124
0.986702
1.01637
1.04515
1.07307
1.10015
1.12643
1.15193
1.17666
1.20066
1.22394
1.24653
1.26845
1.28971
1.31035
1.33037
1.34979
1.36864
1.38693
1.40468
1.4219
1.43862
1.45484
1.47058
1.48585
1.50068
-0.0242104
0.0352728
0.0930613
0.149196
0.203715
0.25666
0.308068
0.357979
0.40643
0.453461
0.499107
0.543408
0.586398
0.628115
0.668594
0.707869
0.745975
0.782945
0.818812
0.853608
0.887363
0.920109
0.951875
0.982691
1.01258
1.04158
1.06971
1.097
1.12347
1.14915
1.17406
1.19822
1.22166
1.24441
1.26647
1.28787
1.30864
1.32879
1.34834
1.3673
1.3857
1.40356
1.42088
1.4377
1.45401
1.46984
1.4852
1.50011
0.192693
0.246126
0.298007
0.348376
0.397271
0.44473
0.490791
0.535491
0.578868
0.620957
0.661793
0.701413
0.739851
0.77714
0.813313
0.848402
0.88244
0.915456
0.947482
0.978545
1.00868
1.0379
1.06625
1.09374
1.12041
1.14628
1.17137
1.19571
1.21932
1.24222
1.26444
1.28599
1.30689
1.32717
1.34685
1.36593
1.38445
1.40241
1.41984
1.43675
1.45316
1.46908
1.48453
1.49952
0.181232
0.235188
0.287576
0.338435
0.387804
0.435721
0.482224
0.527351
0.571139
0.613624
0.654842
0.694829
0.733619
0.771246
0.807744
0.843145
0.877482
0.910784
0.943084
0.97441
1.00479
1.03426
1.06283
1.09055
1.11743
1.1435
1.16878
1.1933
1.21709
1.24015
1.26253
1.28423
1.30528
1.32569
1.3455
1.36471
1.38334
1.40142
1.41896
1.43598
1.45248
1.4685
1.48404
1.49911
0.169351
0.223861
0.276786
0.328164
0.378034
0.426435
0.473405
0.518982
0.563202
0.606104
0.647723
0.688094
0.727254
0.765236
0.802074
0.837801
0.872449
0.906051
0.938636
0.970235
1.00088
1.03059
1.05941
1.08735
1.11445
1.14072
1.1662
1.19091
1.21487
1.23811
1.26065
1.2825
1.3037
1.32426
1.3442
1.36354
1.38229
1.40049
1.41814
1.43526
1.45186
1.46797
1.4836
1.49877
0.212194
0.265686
0.317612
0.368012
0.416923
0.464386
0.510437
0.555114
0.598454
0.640495
0.681271
0.720819
0.759173
0.796368
0.832436
0.867411
0.901324
0.934208
0.966092
0.997007
1.02698
1.05604
1.08422
1.11154
1.13803
1.16372
1.18862
1.21277
1.23618
1.25889
1.2809
1.30225
1.32295
1.34303
1.3625
1.38138
1.39969
1.41746
1.43468
1.45139
1.4676
1.48332
1.49857
0.306789
0.357745
0.407193
0.455172
0.501721
0.546876
0.590676
0.633158
0.674357
0.71431
0.753052
0.790617
0.82704
0.862354
0.896591
0.929783
0.961961
0.993157
1.0234
1.05271
1.08114
1.10869
1.1354
1.16129
1.18639
1.21073
1.23432
1.25719
1.27937
1.30087
1.32172
1.34194
1.36154
1.38055
1.39898
1.41685
1.43419
1.451
1.4673
1.48312
1.49845
0.347247
0.397258
0.445779
0.492849
0.538505
0.582785
0.625727
0.667367
0.707742
0.746887
0.784838
0.821628
0.857293
0.891864
0.925375
0.957857
0.989341
1.01986
1.04943
1.07811
1.10591
1.13285
1.15896
1.18427
1.20879
1.23257
1.25562
1.27796
1.29962
1.32061
1.34097
1.3607
1.37984
1.39839
1.41638
1.43382
1.45073
1.46713
1.48304
1.49846
0.436209
0.483826
0.530007
0.574791
0.618215
0.660317
0.701133
0.740699
0.779052
0.816226
0.852256
0.887175
0.921018
0.953816
0.9856
1.0164
1.04624
1.07514
1.10316
1.13032
1.15664
1.18215
1.20688
1.23084
1.25406
1.27657
1.29839
1.31954
1.34003
1.3599
1.37916
1.39783
1.41593
1.43348
1.4505
1.467
1.48299
1.49851
0.610604
0.653182
0.694453
0.734452
0.773217
0.810783
0.847186
0.882459
0.916637
0.949752
0.981838
1.01293
1.04306
1.07226
1.10054
1.12793
1.15447
1.18019
1.20511
1.22926
1.25265
1.27533
1.2973
1.31859
1.33923
1.35923
1.37861
1.3974
1.41561
1.43326
1.45038
1.46697
1.48305
1.49865
0.602938
0.646011
0.687752
0.7282
0.76739
0.805361
0.842148
0.877786
0.912309
0.945752
0.978148
1.00953
1.03993
1.06937
1.0979
1.12553
1.15229
1.17822
1.20334
1.22767
1.25124
1.27408
1.29621
1.31765
1.33842
1.35856
1.37806
1.39697
1.41529
1.43305
1.45026
1.46694
1.48311
1.49879
0.595222
0.638803
0.681028
0.721935
0.761562
0.799946
0.837126
0.873135
0.908011
0.941787
0.974499
1.00618
1.03686
1.06657
1.09534
1.12321
1.1502
1.17633
1.20165
1.22616
1.24991
1.27292
1.2952
1.31678
1.33769
1.35795
1.37758
1.3966
1.41503
1.43288
1.45019
1.46696
1.48321
1.49896
0.587483
0.631584
0.674303
0.715678
0.75575
0.794555
0.832133
0.868519
0.903751
0.937863
0.970892
1.00287
1.03383
1.06381
1.09283
1.12093
1.14814
1.17449
1.2
1.2247
1.24862
1.27178
1.29422
1.31595
1.33699
1.35737
1.37712
1.39625
1.41478
1.43273
1.45012
1.46698
1.48331
1.49913
0.624383
0.667604
0.709456
0.749978
0.78921
0.82719
0.863957
0.899548
0.934
0.967347
0.999626
1.03087
1.06111
1.09039
1.11872
1.14615
1.1727
1.19841
1.22329
1.24738
1.2707
1.29329
1.31516
1.33633
1.35684
1.3767
1.39593
1.41456
1.4326
1.45008
1.46702
1.48343
1.49932
0.617216
0.660946
0.703281
0.744261
0.783926
0.822315
0.859467
0.89542
0.930212
0.963878
0.996456
1.02798
1.05849
1.08801
1.11657
1.14422
1.17097
1.19687
1.22193
1.24618
1.26966
1.29239
1.31439
1.3357
1.35632
1.37629
1.39562
1.41435
1.43248
1.45004
1.46706
1.48353
1.4995
0.610137
0.654381
0.697202
0.738641
0.778738
0.817534
0.855068
0.891381
0.926509
0.960493
0.993368
1.02517
1.05594
1.0857
1.1145
1.14235
1.16931
1.19538
1.22062
1.24503
1.26866
1.29153
1.31367
1.33509
1.35582
1.3759
1.39533
1.41415
1.43236
1.45
1.46709
1.48363
1.49966
0.647809
0.691157
0.733106
0.773691
0.812949
0.850912
0.88761
0.923076
0.957351
0.990489
1.02254
1.05354
1.08353
1.11253
1.14058
1.16772
1.19397
1.21936
1.24393
1.2677
1.2907
1.31295
1.33449
1.35533
1.3755
1.39502
1.41392
1.43222
1.44993
1.46708
1.48369
1.49977
0.641296
0.68514
0.727562
0.768597
0.808277
0.846636
0.883708
0.919538
0.954182
0.987684
1.02006
1.05135
1.08156
1.11075
1.13897
1.16626
1.19266
1.2182
1.2429
1.26679
1.28991
1.31227
1.33391
1.35484
1.3751
1.39471
1.41368
1.43205
1.44982
1.46703
1.48369
1.49983
0.634884
0.679142
0.721956
0.763365
0.803407
0.842119
0.879547
0.915736
0.950726
0.98454
1.01721
1.04876
1.07924
1.10869
1.13716
1.16466
1.19123
1.2169
1.24173
1.26575
1.28898
1.31145
1.33319
1.35422
1.37456
1.39425
1.4133
1.43173
1.44957
1.46684
1.48356
1.49974
0.628753
0.673408
0.7166
0.758366
0.798741
0.837764
0.875477
0.911924
0.947149
0.981191
1.01409
1.04588
1.07661
1.10631
1.135
1.16271
1.18948
1.21534
1.24033
1.26448
1.28783
1.31042
1.33226
1.35339
1.37382
1.39359
1.41272
1.43123
1.44913
1.46646
1.48323
1.49946
0.622899
0.667914
0.711454
0.753553
0.794248
0.833578
0.871581
0.9083
0.943776
0.978048
1.01116
1.04314
1.07404
1.10389
1.13274
1.16062
1.18756
1.2136
1.23874
1.26303
1.28651
1.30921
1.33116
1.35238
1.37291
1.39276
1.41196
1.43054
1.44851
1.4659
1.48272
1.499
0.617334
0.662673
0.706525
0.748925
0.789911
0.829518
0.867785
0.904754
0.940464
0.974956
1.00827
1.04045
1.07152
1.10154
1.13053
1.15855
1.18561
1.21177
1.23704
1.26146
1.28506
1.30787
1.32992
1.35124
1.37185
1.39178
1.41106
1.4297
1.44774
1.46518
1.48206
1.49838
0.612048
0.657666
0.701793
0.744464
0.785715
0.825579
0.864095
0.901299
0.937231
0.971929
1.00544
1.03779
1.06903
1.0992
1.12833
1.15648
1.18366
1.20993
1.23531
1.25983
1.28354
1.30645
1.32859
1.35
1.3707
1.3907
1.41005
1.42876
1.44685
1.46435
1.48127
1.49764
0.607045
0.652896
0.697253
0.740156
0.78164
0.821736
0.860478
0.8979
0.93404
0.968934
1.00262
1.03515
1.06654
1.09686
1.12613
1.1544
1.1817
1.20807
1.23355
1.25817
1.28196
1.30497
1.32721
1.3487
1.36947
1.38955
1.40896
1.42773
1.44588
1.46343
1.4804
1.49681
0.602272
0.648364
0.692922
0.736018
0.7777
0.817997
0.856942
0.894564
0.930896
0.965974
0.999836
1.03252
1.06407
1.09452
1.12392
1.15231
1.17972
1.20619
1.23177
1.25648
1.28037
1.30347
1.32579
1.34737
1.36822
1.38836
1.40784
1.42666
1.44486
1.46245
1.47946
1.49591
0.597635
0.643999
0.68878
0.732053
0.7739
0.814369
0.853489
0.89129
0.9278
0.96305
0.997076
1.02992
1.06161
1.09219
1.12172
1.15022
1.17773
1.20431
1.22998
1.25479
1.27878
1.30197
1.32438
1.34603
1.36695
1.38716
1.40669
1.42557
1.44381
1.46145
1.4785
1.49498
0.593108
0.639725
0.684761
0.728242
0.770247
0.810862
0.850132
0.888089
0.92476
0.96017
0.994351
1.02734
1.05917
1.08989
1.11953
1.14814
1.17576
1.20244
1.22821
1.25313
1.27722
1.3005
1.32299
1.34471
1.36569
1.38596
1.40555
1.42448
1.44277
1.46044
1.47753
1.49405
0.588742
0.635545
0.680805
0.724522
0.766718
0.807476
0.846878
0.884971
0.921784
0.957341
0.991669
1.0248
1.05676
1.08761
1.11737
1.14609
1.17381
1.20059
1.22648
1.25151
1.27571
1.29907
1.32163
1.34342
1.36447
1.3848
1.40444
1.42341
1.44174
1.45946
1.47658
1.49312
0.631507
0.676927
0.720848
0.763262
0.804193
0.843728
0.881944
0.918884
0.954575
0.989041
1.02231
1.0544
1.08537
1.11525
1.14408
1.17191
1.19881
1.22482
1.24996
1.27424
1.29768
1.32032
1.34218
1.36329
1.38368
1.40337
1.42239
1.44076
1.45851
1.47566
1.49224
0.627618
0.673171
0.717237
0.759842
0.800974
0.840665
0.879006
0.916066
0.95188
0.986474
1.01987
1.0521
1.08319
1.11318
1.14213
1.17007
1.1971
1.22323
1.24847
1.27283
1.29636
1.31907
1.341
1.36217
1.38261
1.40235
1.42142
1.43983
1.45762
1.4748
1.49141
0.623866
0.669541
0.713727
0.75647
0.797787
0.837665
0.876146
0.913326
0.949259
0.983974
1.0175
1.04985
1.08107
1.11118
1.14024
1.16831
1.19546
1.2217
1.24704
1.2715
1.2951
1.31789
1.33989
1.36112
1.38162
1.40142
1.42053
1.43899
1.45681
1.47402
1.49065
0.620237
0.666021
0.71032
0.753175
0.794628
0.83469
0.87335
0.910663
0.946713
0.981546
1.01519
1.04767
1.07901
1.10925
1.13843
1.16663
1.1939
1.22025
1.24568
1.27023
1.29392
1.31679
1.33886
1.36016
1.38072
1.40057
1.41973
1.43823
1.45609
1.47334
1.49
0.749966
0.791527
0.83173
0.870574
0.908055
0.944235
0.979187
1.01295
1.04555
1.07701
1.10738
1.13669
1.16502
1.19241
1.21887
1.2444
1.26904
1.29282
1.31577
1.33791
1.35928
1.3799
1.39981
1.41902
1.43756
1.45547
1.47275
1.48944
0.746839
0.788505
0.828814
0.867803
0.905463
0.941799
0.976882
1.01077
1.04349
1.07508
1.10557
1.13501
1.16347
1.19098
1.21755
1.24318
1.26792
1.29179
1.31482
1.33704
1.35848
1.37917
1.39913
1.4184
1.43699
1.45493
1.47226
1.48898
0.74378
0.78555
0.825966
0.865064
0.902872
0.93938
0.974611
1.00863
1.04149
1.0732
1.10382
1.13339
1.16198
1.18961
1.21629
1.24203
1.26686
1.29083
1.31394
1.33625
1.35776
1.37852
1.39854
1.41786
1.4365
1.45449
1.47185
1.48861
0.740777
0.782645
0.823164
0.86237
0.900297
0.936963
0.972362
1.00653
1.03952
1.07137
1.10212
1.13182
1.16053
1.18828
1.21508
1.24093
1.26587
1.28993
1.31314
1.33552
1.35711
1.37794
1.39803
1.4174
1.4361
1.45413
1.47153
1.48832
0.737821
0.779781
0.8204
0.859711
0.897748
0.934543
0.970106
1.00444
1.03757
1.06957
1.10045
1.13029
1.15913
1.187
1.21392
1.23988
1.26493
1.28909
1.31239
1.33486
1.35653
1.37743
1.39759
1.41702
1.43577
1.45385
1.47129
1.48812
0.734906
0.776952
0.817667
0.857082
0.895227
0.932135
0.967838
1.00234
1.03564
1.06777
1.0988
1.12877
1.15775
1.18576
1.21279
1.23888
1.26403
1.2883
1.31169
1.33426
1.35601
1.37699
1.39721
1.41671
1.43551
1.45364
1.47113
1.488
0.732027
0.774155
0.814961
0.854476
0.892729
0.92975
0.96557
1.00021
1.03368
1.06598
1.09716
1.12727
1.15639
1.18453
1.21169
1.2379
1.26317
1.28754
1.31104
1.33369
1.35553
1.37659
1.39688
1.41645
1.43531
1.45349
1.47103
1.48793
0.729179
0.771383
0.812274
0.851884
0.890241
0.927373
0.963309
0.998074
1.03169
1.06415
1.0955
1.12578
1.15505
1.18332
1.21061
1.23694
1.26233
1.28681
1.31041
1.33316
1.3551
1.37623
1.3966
1.41624
1.43516
1.4534
1.47098
1.48792
0.726362
0.768636
0.809607
0.849307
0.887764
0.925003
0.961053
0.995938
1.02968
1.0623
1.09382
1.12427
1.15369
1.1821
1.20952
1.23597
1.26148
1.28608
1.3098
1.33265
1.35468
1.3759
1.39635
1.41606
1.43504
1.45334
1.47097
1.48796
0.723578
0.765915
0.806962
0.846748
0.8853
0.922646
0.958809
0.993816
1.02769
1.06045
1.09212
1.12273
1.1523
1.18084
1.2084
1.23498
1.26062
1.28534
1.30917
1.33214
1.35426
1.37558
1.39611
1.41589
1.43495
1.4533
1.47099
1.48803
0.720827
0.763221
0.804337
0.844203
0.882846
0.920293
0.956567
0.991694
1.02569
1.05859
1.0904
1.12115
1.15086
1.17956
1.20725
1.23397
1.25975
1.28459
1.30854
1.33162
1.35385
1.37526
1.39588
1.41574
1.43487
1.45329
1.47103
1.48812
0.71811
0.760554
0.801731
0.841671
0.880398
0.91794
0.95432
0.98956
1.02368
1.05671
1.08866
1.11955
1.1494
1.17824
1.20608
1.23294
1.25885
1.28383
1.3079
1.33109
1.35343
1.37495
1.39566
1.4156
1.43481
1.45329
1.47109
1.48823
0.715431
0.757917
0.799149
0.839154
0.877958
0.915587
0.952065
0.987414
1.02165
1.05481
1.08689
1.11792
1.14791
1.17689
1.20487
1.23188
1.25792
1.28304
1.30724
1.33055
1.35301
1.37462
1.39544
1.41547
1.43475
1.4533
1.47116
1.48836
0.712797
0.755316
0.796593
0.836656
0.875529
0.913238
0.949807
0.985256
1.01961
1.05288
1.08509
1.11625
1.14639
1.17551
1.20364
1.23078
1.25697
1.28222
1.30656
1.33
1.35257
1.37429
1.39521
1.41533
1.43469
1.45332
1.47124
1.48849
0.710214
0.752756
0.794071
0.834183
0.873117
0.910897
0.947548
0.983091
1.01755
1.05093
1.08326
1.11456
1.14483
1.17409
1.20236
1.22966
1.25599
1.28138
1.30585
1.32942
1.35211
1.37395
1.39497
1.41518
1.43463
1.45334
1.47133
1.48864
0.707691
0.750247
0.791588
0.83174
0.870727
0.908571
0.945296
0.980923
1.01547
1.04896
1.08141
1.11283
1.14324
1.17264
1.20105
1.22849
1.25497
1.2805
1.30511
1.32881
1.35163
1.37359
1.39471
1.41503
1.43457
1.45335
1.47141
1.48878
0.705235
0.747795
0.789153
0.829336
0.868366
0.906265
0.943056
0.978759
1.0134
1.04699
1.07954
1.11108
1.14161
1.17115
1.1997
1.22729
1.25391
1.27959
1.30434
1.32817
1.35112
1.3732
1.39444
1.41486
1.43449
1.45336
1.4715
1.48893
0.702849
0.745409
0.786775
0.826978
0.866041
0.903987
0.940835
0.976606
1.01132
1.045
1.07766
1.1093
1.13996
1.16962
1.19832
1.22604
1.25281
1.27863
1.30353
1.32751
1.35059
1.3728
1.39415
1.41468
1.43441
1.45336
1.47157
1.48907
0.700524
0.743092
0.784462
0.824674
0.863761
0.901742
0.938639
0.97447
1.00926
1.04301
1.07576
1.10751
1.13828
1.16807
1.19689
1.22476
1.25167
1.27764
1.30268
1.3268
1.35002
1.37236
1.39384
1.41448
1.43431
1.45335
1.47164
1.48921
0.698253
0.740833
0.782213
0.822434
0.861533
0.89954
0.936476
0.972358
1.0072
1.04103
1.07386
1.10571
1.13658
1.16649
1.19544
1.22344
1.2505
1.27661
1.3018
1.32607
1.34943
1.3719
1.3935
1.41426
1.43419
1.45333
1.4717
1.48934
0.738623
0.780021
0.820255
0.859364
0.897387
0.934352
0.970276
1.00518
1.03907
1.07197
1.1039
1.13487
1.16489
1.19396
1.22209
1.24929
1.27555
1.30088
1.32529
1.3488
1.37141
1.39314
1.41402
1.43406
1.4533
1.47176
1.48947
0.736459
0.777874
0.818129
0.857255
0.895291
0.932274
0.968229
1.00317
1.03712
1.07009
1.1021
1.13316
1.16327
1.19246
1.22071
1.24804
1.27444
1.29992
1.32449
1.34814
1.37089
1.39275
1.41375
1.43391
1.45325
1.4718
1.48959
0.816044
0.855194
0.89325
0.930248
0.966225
1.0012
1.0352
1.06823
1.1003
1.13144
1.16165
1.19093
1.21931
1.24676
1.27331
1.29893
1.32364
1.34744
1.37034
1.39234
1.41347
1.43374
1.45319
1.47183
1.4897
0.813997
0.853171
0.891253
0.928274
0.964268
0.999271
1.03331
1.06638
1.09852
1.12973
1.16002
1.1894
1.21788
1.24546
1.27213
1.2979
1.32276
1.34671
1.36975
1.3919
1.41316
1.43356
1.45312
1.47186
1.48981
0.851181
0.889289
0.926339
0.962358
0.997382
1.03144
1.06456
1.09675
1.12802
1.15839
1.18786
1.21644
1.24413
1.27094
1.29684
1.32185
1.34595
1.36914
1.39143
1.41283
1.43336
1.45303
1.47188
1.48992
0.849221
0.887355
0.924433
0.960483
0.995534
1.02962
1.06277
1.095
1.12633
1.15676
1.18631
1.21499
1.24279
1.26971
1.29575
1.3209
1.34515
1.36849
1.39094
1.41248
1.43314
1.45294
1.47189
1.49002
0.847289
0.885446
0.922551
0.958632
0.993715
1.02783
1.06101
1.09328
1.12465
1.15515
1.18477
1.21352
1.24142
1.26846
1.29463
1.31992
1.34432
1.36782
1.39041
1.4121
1.4329
1.45282
1.47188
1.49011
0.883561
0.920691
0.956801
0.991917
1.02607
1.05927
1.09157
1.12299
1.15354
1.18322
1.21206
1.24004
1.26719
1.29348
1.3189
1.34345
1.3671
1.38985
1.4117
1.43264
1.45269
1.47187
1.4902
0.881695
0.91885
0.954988
0.990135
1.02432
1.05756
1.0899
1.12135
1.15194
1.18168
1.21058
1.23865
1.26589
1.2923
1.31785
1.34254
1.36635
1.38926
1.41126
1.43235
1.45254
1.47184
1.49028
0.917025
0.953189
0.988365
1.02258
1.05586
1.08823
1.11972
1.15035
1.18014
1.2091
1.23725
1.26458
1.29109
1.31676
1.34159
1.36555
1.38862
1.41078
1.43203
1.45237
1.4718
1.49035
0.915213
0.951402
0.986606
1.02085
1.05416
1.08657
1.11809
1.14876
1.1786
1.20762
1.23583
1.26324
1.28985
1.31564
1.3406
1.36471
1.38794
1.41027
1.43167
1.45216
1.47173
1.4904
0.913412
0.949624
0.984854
1.01913
1.05247
1.08491
1.11647
1.14718
1.17706
1.20613
1.2344
1.26189
1.28858
1.31448
1.33957
1.36382
1.38721
1.4097
1.43127
1.45192
1.47164
1.49043
0.947853
0.983108
1.01741
1.05078
1.08326
1.11485
1.1456
1.17552
1.20463
1.23296
1.26051
1.28728
1.31328
1.33849
1.36288
1.38642
1.40908
1.43082
1.45164
1.47151
1.49044
0.946088
0.981366
1.01569
1.0491
1.0816
1.11323
1.144
1.17396
1.20312
1.23149
1.2591
1.28595
1.31204
1.33736
1.36188
1.38557
1.4084
1.43032
1.4513
1.47134
1.49042
0.944325
0.979625
1.01398
1.04741
1.07994
1.1116
1.14241
1.1724
1.20159
1.23001
1.25767
1.28459
1.31076
1.33618
1.36082
1.38466
1.40765
1.42974
1.45091
1.47111
1.49035
0.977884
1.01226
1.04572
1.07828
1.10997
1.14081
1.17083
1.20005
1.2285
1.25621
1.28319
1.30943
1.33494
1.3597
1.38367
1.40682
1.42909
1.45044
1.47083
1.49024
0.976138
1.01054
1.04402
1.07661
1.10832
1.13919
1.16924
1.1985
1.22698
1.25472
1.28175
1.30805
1.33364
1.35851
1.38262
1.40592
1.42836
1.4499
1.47048
1.49007
0.974387
1.00881
1.04231
1.07493
1.10667
1.13757
1.16765
1.19693
1.22544
1.25321
1.28027
1.30663
1.33229
1.35725
1.38148
1.40493
1.42754
1.44927
1.47005
1.48983
0.972628
1.00707
1.04059
1.07323
1.105
1.13593
1.16604
1.19535
1.22389
1.25168
1.27877
1.30517
1.33088
1.35592
1.38026
1.40385
1.42663
1.44854
1.46952
1.48952
0.97086
1.00531
1.03886
1.07152
1.10332
1.13428
1.16442
1.19376
1.22232
1.25014
1.27724
1.30366
1.32942
1.35452
1.37895
1.40267
1.42561
1.4477
1.46889
1.4891
0.969085
1.00355
1.03712
1.0698
1.10162
1.13261
1.16277
1.19214
1.22074
1.24858
1.2757
1.30213
1.32791
1.35305
1.37755
1.40138
1.42447
1.44674
1.46813
1.48856
0.967304
1.00179
1.03536
1.06807
1.09991
1.13092
1.16111
1.19051
1.21913
1.247
1.27415
1.30059
1.32637
1.35152
1.37606
1.39998
1.4232
1.44564
1.46723
1.4879
0.965523
1.00001
1.03361
1.06632
1.09819
1.12922
1.15943
1.18886
1.21751
1.24541
1.27258
1.29905
1.32483
1.34998
1.37452
1.39847
1.42178
1.44437
1.46613
1.48707
0.963758
0.998257
1.03186
1.06459
1.09647
1.12752
1.15776
1.18721
1.21588
1.24381
1.27101
1.2975
1.3233
1.34844
1.37296
1.3969
1.42026
1.44295
1.46487
1.48604
0.962021
0.996536
1.03016
1.06291
1.09481
1.12588
1.15614
1.18562
1.21432
1.24228
1.2695
1.29601
1.32182
1.34697
1.37147
1.39536
1.41869
1.44146
1.46362
1.48511
0.960332
0.994852
1.02849
1.06125
1.09317
1.12427
1.15456
1.18406
1.21279
1.24078
1.26803
1.29458
1.32043
1.3456
1.37013
1.39402
1.4173
1.43998
1.46211
1.48369
0.959057
0.993656
1.02736
1.0602
1.09218
1.12332
1.15365
1.18319
1.21194
1.23993
1.26718
1.2937
1.3195
1.3446
1.36901
1.39272
1.41573
1.43804
1.45937
1.47964
2.75035
2.71665
2.68349
2.65085
2.61873
2.58713
2.55604
2.52544
2.49534
2.46573
2.43659
2.40794
2.37975
2.35202
2.32474
2.29791
2.27152
2.24557
2.22004
2.19493
2.17023
2.14593
2.12203
2.09851
2.07538
2.05261
2.03021
2.00816
1.98645
1.96508
1.94403
1.9233
1.90287
1.88274
1.8629
1.84333
1.82403
1.80499
1.78619
1.76763
1.7493
1.73119
1.71329
1.69559
1.67808
1.66077
1.64364
1.6267
1.60994
1.59337
1.57697
1.5606
1.5443
1.5302
1.50696
2.75071
2.71704
2.6839
2.65129
2.6192
2.58762
2.55656
2.52599
2.49593
2.46634
2.43724
2.40862
2.38046
2.35277
2.32553
2.29873
2.27238
2.24646
2.22097
2.19589
2.17122
2.14696
2.12309
2.0996
2.0765
2.05376
2.03139
2.00936
1.98768
1.96633
1.94531
1.9246
1.90419
1.88408
1.86425
1.8447
1.82542
1.80639
1.7876
1.76905
1.75072
1.7326
1.71469
1.69697
1.67943
1.66206
1.64486
1.62781
1.6109
1.5941
1.57738
1.56054
1.54317
1.52652
1.50757
2.75059
2.71693
2.68382
2.65123
2.61916
2.58761
2.55657
2.52603
2.49599
2.46643
2.43736
2.40876
2.38064
2.35297
2.32576
2.29899
2.27267
2.24678
2.22131
2.19627
2.17163
2.14739
2.12355
2.10009
2.07701
2.0543
2.03194
2.00994
1.98828
1.96695
1.94594
1.92524
1.90485
1.88475
1.86494
1.8454
1.82612
1.80709
1.78831
1.76975
1.75143
1.73331
1.71539
1.69767
1.68012
1.66275
1.64554
1.62847
1.61153
1.59468
1.57789
1.56101
1.54363
1.52579
1.50709
2.75044
2.7168
2.68371
2.65114
2.6191
2.58757
2.55656
2.52605
2.49603
2.46651
2.43746
2.4089
2.3808
2.35317
2.32599
2.29925
2.27296
2.2471
2.22166
2.19665
2.17204
2.14783
2.12401
2.10058
2.07752
2.05483
2.0325
2.01052
1.98887
1.96756
1.94657
1.92589
1.9055
1.88542
1.86561
1.84607
1.8268
1.80778
1.789
1.77045
1.75212
1.734
1.71609
1.69837
1.68083
1.66347
1.64628
1.62923
1.61232
1.5955
1.57871
1.56185
1.5446
1.52656
1.50739
2.75034
2.71672
2.68365
2.65111
2.61909
2.58759
2.5566
2.52612
2.49613
2.46663
2.43762
2.40908
2.38102
2.35341
2.32626
2.29956
2.27329
2.24746
2.22205
2.19706
2.17248
2.1483
2.12451
2.1011
2.07806
2.0554
2.03308
2.01112
1.98949
1.9682
1.94722
1.92655
1.90618
1.8861
1.86631
1.84678
1.82751
1.8085
1.78973
1.77119
1.75287
1.73477
1.71687
1.69917
1.68165
1.66431
1.64715
1.63013
1.61324
1.59645
1.57966
1.56274
1.54542
1.52731
1.50789
2.75025
2.71666
2.68361
2.65109
2.6191
2.58762
2.55666
2.5262
2.49624
2.46677
2.43779
2.40928
2.38124
2.35366
2.32654
2.29986
2.27363
2.24782
2.22244
2.19748
2.17292
2.14876
2.12499
2.10161
2.07859
2.05594
2.03365
2.0117
1.99009
1.96881
1.94784
1.92719
1.90683
1.88676
1.86697
1.84746
1.8282
1.8092
1.79043
1.77191
1.7536
1.73551
1.71763
1.69995
1.68246
1.66515
1.64801
1.63101
1.61414
1.59734
1.58051
1.56349
1.546
1.52774
1.50824
2.75018
2.71661
2.68358
2.65108
2.61912
2.58767
2.55673
2.5263
2.49636
2.46692
2.43796
2.40948
2.38147
2.35392
2.32682
2.30017
2.27396
2.24819
2.22283
2.19789
2.17335
2.14922
2.12547
2.1021
2.07911
2.05648
2.0342
2.01227
1.99067
1.9694
1.94845
1.9278
1.90745
1.8874
1.86762
1.84811
1.82886
1.80987
1.79112
1.7726
1.75431
1.73624
1.71838
1.70072
1.68325
1.66596
1.64883
1.63184
1.61496
1.59812
1.58123
1.56407
1.54641
1.528
1.50856
2.75013
2.71658
2.68357
2.6511
2.61915
2.58773
2.55681
2.52641
2.4965
2.46708
2.43815
2.4097
2.38171
2.35419
2.32712
2.30049
2.27431
2.24855
2.22322
2.1983
2.17379
2.14967
2.12594
2.10259
2.07962
2.057
2.03474
2.01282
1.99123
1.96998
1.94903
1.9284
1.90806
1.88801
1.86824
1.84874
1.82951
1.81052
1.79179
1.77328
1.75501
1.73695
1.7191
1.70145
1.684
1.66671
1.64959
1.63259
1.61568
1.59879
1.58178
1.56446
1.54665
1.52815
1.50882
2.75009
2.71656
2.68357
2.65112
2.6192
2.5878
2.55691
2.52653
2.49665
2.46726
2.43835
2.40992
2.38196
2.35446
2.32741
2.30081
2.27465
2.24892
2.22361
2.19871
2.17421
2.15012
2.12641
2.10307
2.08011
2.05751
2.03526
2.01335
1.99178
1.97053
1.9496
1.92897
1.90865
1.88861
1.86884
1.84935
1.83013
1.81115
1.79242
1.77393
1.75566
1.73762
1.71978
1.70214
1.68469
1.6674
1.65026
1.63324
1.61628
1.5993
1.58216
1.56468
1.54674
1.52819
1.50901
2.75006
2.71655
2.68359
2.65116
2.61926
2.58788
2.55702
2.52666
2.49681
2.46744
2.43856
2.41015
2.38221
2.35474
2.32771
2.30114
2.275
2.24928
2.22399
2.19911
2.17464
2.15056
2.12686
2.10355
2.0806
2.05801
2.03577
2.01387
1.99231
1.97107
1.95015
1.92953
1.90921
1.88917
1.86942
1.84994
1.83072
1.81175
1.79303
1.77454
1.75628
1.73824
1.72041
1.70277
1.68531
1.66801
1.65085
1.63378
1.61676
1.59967
1.58237
1.56475
1.54672
1.52817
1.50912
2.75005
2.71656
2.68362
2.65122
2.61934
2.58798
2.55714
2.52681
2.49697
2.46763
2.43877
2.41039
2.38247
2.35502
2.32802
2.30146
2.27534
2.24965
2.22437
2.19951
2.17505
2.15099
2.12731
2.104
2.08107
2.05849
2.03626
2.01438
1.99282
1.97159
1.95067
1.93006
1.90974
1.88972
1.86997
1.85049
1.83128
1.81231
1.79359
1.77511
1.75685
1.73881
1.72097
1.70333
1.68585
1.66853
1.65133
1.63422
1.6171
1.59988
1.58245
1.56472
1.54663
1.5281
1.50917
2.75005
2.71659
2.68367
2.65128
2.61943
2.58809
2.55728
2.52696
2.49715
2.46783
2.43899
2.41063
2.38274
2.35531
2.32832
2.30179
2.27568
2.25001
2.22475
2.19991
2.17546
2.15141
2.12774
2.10445
2.08153
2.05896
2.03674
2.01486
1.99331
1.97209
1.95117
1.93057
1.91026
1.89023
1.87049
1.85101
1.8318
1.81284
1.79412
1.77564
1.75738
1.73933
1.72148
1.70382
1.68632
1.66897
1.65173
1.63454
1.61732
1.59997
1.58242
1.56461
1.54648
1.52799
1.50918
2.75007
2.71662
2.68372
2.65136
2.61953
2.58822
2.55742
2.52713
2.49734
2.46804
2.43922
2.41088
2.38301
2.35559
2.32863
2.30211
2.27603
2.25037
2.22513
2.2003
2.17586
2.15182
2.12817
2.10489
2.08197
2.05941
2.0372
2.01532
1.99378
1.97256
1.95165
1.93105
1.91074
1.89072
1.87097
1.8515
1.83229
1.81332
1.7946
1.77611
1.75785
1.73979
1.72192
1.70424
1.68672
1.66933
1.65203
1.63475
1.61741
1.59995
1.5823
1.56443
1.54628
1.52784
1.50914
2.7501
2.71667
2.68379
2.65145
2.61964
2.58835
2.55757
2.5273
2.49753
2.46825
2.43946
2.41113
2.38328
2.35588
2.32894
2.30244
2.27637
2.25072
2.22549
2.20068
2.17626
2.15223
2.12858
2.10531
2.0824
2.05984
2.03764
2.01577
1.99423
1.97301
1.95211
1.9315
1.9112
1.89117
1.87143
1.85195
1.83274
1.81377
1.79504
1.77654
1.75826
1.74019
1.72231
1.7046
1.68704
1.6696
1.65223
1.63485
1.6174
1.59984
1.58213
1.56421
1.54606
1.52767
1.50907
2.75014
2.71674
2.68388
2.65155
2.61976
2.58849
2.55773
2.52748
2.49773
2.46847
2.43969
2.41139
2.38355
2.35618
2.32925
2.30276
2.2767
2.25107
2.22586
2.20105
2.17664
2.15262
2.12898
2.10571
2.08281
2.06026
2.03806
2.01619
1.99466
1.97344
1.95254
1.93193
1.91162
1.8916
1.87185
1.85237
1.83315
1.81417
1.79544
1.77693
1.75863
1.74054
1.72263
1.70489
1.6873
1.6698
1.65233
1.63486
1.61731
1.59967
1.5819
1.56395
1.54581
1.52747
1.50897
2.7502
2.71681
2.68397
2.65166
2.61989
2.58864
2.5579
2.52767
2.49794
2.4687
2.43994
2.41165
2.38383
2.35647
2.32955
2.30308
2.27703
2.25142
2.22621
2.20141
2.17701
2.153
2.12937
2.10611
2.08321
2.06066
2.03846
2.0166
1.99506
1.97385
1.95294
1.93234
1.91202
1.892
1.87224
1.85276
1.83352
1.81454
1.79579
1.77727
1.75895
1.74084
1.7229
1.70513
1.68748
1.6699
1.65235
1.63478
1.61716
1.59945
1.58163
1.56366
1.54554
1.52726
1.50884
2.75027
2.7169
2.68407
2.65179
2.62003
2.5888
2.55808
2.52787
2.49815
2.46893
2.44018
2.41191
2.38411
2.35676
2.32986
2.30339
2.27736
2.25175
2.22656
2.20177
2.17738
2.15337
2.12974
2.10648
2.08359
2.06105
2.03885
2.01699
1.99545
1.97423
1.95332
1.93271
1.9124
1.89236
1.8726
1.85311
1.83387
1.81487
1.7961
1.77756
1.75923
1.74109
1.72312
1.7053
1.68759
1.66994
1.6523
1.63465
1.61695
1.59919
1.58134
1.56336
1.54526
1.52703
1.5087
2.75035
2.71699
2.68419
2.65192
2.62018
2.58897
2.55827
2.52807
2.49837
2.46916
2.44043
2.41218
2.38438
2.35705
2.33016
2.30371
2.27769
2.25209
2.2269
2.20212
2.17773
2.15373
2.1301
2.10685
2.08396
2.06141
2.03922
2.01735
1.99581
1.97459
1.95368
1.93307
1.91274
1.8927
1.87293
1.85343
1.83417
1.81516
1.79638
1.77782
1.75946
1.74129
1.72329
1.70542
1.68763
1.6699
1.65218
1.63446
1.61671
1.59891
1.58102
1.56305
1.54497
1.5268
1.50855
2.75044
2.7171
2.68431
2.65206
2.62034
2.58914
2.55846
2.52828
2.49859
2.4694
2.44068
2.41244
2.38466
2.35734
2.33046
2.30402
2.278
2.25241
2.22723
2.20246
2.17807
2.15407
2.13045
2.1072
2.08431
2.06177
2.03957
2.0177
1.99616
1.97493
1.95401
1.93339
1.91306
1.89301
1.87323
1.85371
1.83445
1.81542
1.79662
1.77804
1.75966
1.74146
1.7234
1.70547
1.68761
1.6698
1.65201
1.63423
1.61644
1.5986
1.5807
1.56273
1.54468
1.52656
1.50839
2.75054
2.71722
2.68445
2.65222
2.62051
2.58933
2.55866
2.52849
2.49882
2.46964
2.44094
2.41271
2.38494
2.35763
2.33076
2.30432
2.27832
2.25273
2.22756
2.20279
2.17841
2.15441
2.13079
2.10754
2.08465
2.0621
2.0399
2.01803
1.99648
1.97525
1.95433
1.9337
1.91336
1.8933
1.87351
1.85398
1.83469
1.81565
1.79683
1.77822
1.75981
1.74157
1.72346
1.70546
1.68753
1.66965
1.65181
1.63398
1.61614
1.59827
1.58036
1.5624
1.54439
1.52632
1.50822
2.75066
2.71735
2.6846
2.65238
2.62069
2.58952
2.55886
2.52871
2.49906
2.46989
2.4412
2.41298
2.38522
2.35791
2.33105
2.30463
2.27863
2.25305
2.22788
2.20311
2.17873
2.15474
2.13112
2.10787
2.08497
2.06243
2.04022
2.01835
1.99679
1.97556
1.95462
1.93399
1.91364
1.89356
1.87376
1.85421
1.83491
1.81585
1.79701
1.77838
1.75993
1.74164
1.72347
1.7054
1.6874
1.66947
1.65157
1.63369
1.61582
1.59793
1.58002
1.56207
1.54409
1.52608
1.50805
2.75078
2.71749
2.68475
2.65255
2.62087
2.58972
2.55908
2.52894
2.49929
2.47014
2.44146
2.41325
2.3855
2.3582
2.33135
2.30493
2.27894
2.25336
2.22819
2.20343
2.17905
2.15506
2.13144
2.10818
2.08529
2.06274
2.04052
2.01864
1.99709
1.97584
1.9549
1.93425
1.91389
1.8938
1.87399
1.85442
1.83511
1.81602
1.79716
1.77849
1.76
1.74165
1.72342
1.70529
1.68724
1.66925
1.65131
1.63339
1.61549
1.59759
1.57967
1.56174
1.54379
1.52583
1.50787
2.75092
2.71765
2.68492
2.65273
2.62107
2.58992
2.5593
2.52917
2.49954
2.47039
2.44172
2.41352
2.38578
2.35849
2.33164
2.30523
2.27924
2.25367
2.2285
2.20374
2.17936
2.15537
2.13175
2.10849
2.08559
2.06303
2.04082
2.01893
1.99736
1.97611
1.95516
1.9345
1.91413
1.89403
1.87419
1.85461
1.83528
1.81617
1.79728
1.77857
1.76003
1.74163
1.72334
1.70515
1.68704
1.669
1.65102
1.63307
1.61515
1.59724
1.57932
1.56141
1.5435
1.52559
1.50769
2.75107
2.71781
2.6851
2.65292
2.62127
2.59014
2.55952
2.52941
2.49978
2.47065
2.44199
2.41379
2.38606
2.35878
2.33193
2.30553
2.27954
2.25397
2.22881
2.20404
2.17967
2.15567
2.13205
2.10879
2.08588
2.06332
2.0411
2.0192
1.99763
1.97636
1.9554
1.93473
1.91435
1.89423
1.87438
1.85479
1.83543
1.8163
1.79737