/*--------------------------------*- C++ -*----------------------------------*\
  =========                 |
  \\      /  F ield         | OpenFOAM: The Open Source CFD Toolbox
   \\    /   O peration     | Website:  https://openfoam.org
    \\  /    A nd           | Version:  10
     \\/     M anipulation  |
\*---------------------------------------------------------------------------*/
FoamFile
{
    format      ascii;
    class       volScalarField;
    location    "800";
    object      k;
}
// * * * * * * * * * * * * * * * * * * * * * * * * * * * * * * * * * * * * * //

dimensions      [0 2 -2 0 0 0 0];

internalField   nonuniform List<scalar> 
420
(
2.22045e-16
2.22045e-16
2.22045e-16
2.22045e-16
2.22045e-16
2.22045e-16
2.22045e-16
2.22045e-16
2.22045e-16
2.22045e-16
2.22045e-16
2.22045e-16
2.22045e-16
2.22045e-16
2.22045e-16
2.22045e-16
2.22045e-16
2.22045e-16
2.22045e-16
2.22045e-16
2.22045e-16
2.22045e-16
2.22045e-16
2.22045e-16
2.22045e-16
2.22045e-16
2.22045e-16
2.22045e-16
2.22045e-16
2.22045e-16
2.22045e-16
2.22045e-16
2.22045e-16
2.22045e-16
2.22045e-16
2.22045e-16
2.22045e-16
2.22045e-16
2.22045e-16
2.22045e-16
2.22045e-16
2.22045e-16
2.22045e-16
2.22045e-16
2.22045e-16
2.22045e-16
2.22045e-16
2.22045e-16
2.22045e-16
2.22045e-16
2.22045e-16
2.22045e-16
2.22045e-16
2.22045e-16
2.22045e-16
2.22045e-16
2.22045e-16
2.22045e-16
2.22045e-16
2.22045e-16
2.22045e-16
2.22045e-16
2.22045e-16
2.22045e-16
2.22045e-16
2.22045e-16
2.22045e-16
2.22045e-16
2.22045e-16
2.22045e-16
2.22045e-16
2.22045e-16
2.22045e-16
2.22045e-16
2.22045e-16
2.22045e-16
2.22045e-16
2.22045e-16
2.22045e-16
2.22045e-16
2.22045e-16
2.22045e-16
2.22045e-16
2.22045e-16
2.22045e-16
2.22045e-16
2.22045e-16
2.22045e-16
2.22045e-16
2.22045e-16
2.22045e-16
2.22045e-16
2.22045e-16
2.22045e-16
2.22045e-16
2.22045e-16
2.22045e-16
2.22045e-16
2.22045e-16
2.22045e-16
2.22045e-16
2.22045e-16
2.39998e-16
2.95353e-16
3.18018e-16
2.80296e-16
2.22045e-16
2.22045e-16
2.22045e-16
3.1284e-16
2.22045e-16
2.22045e-16
2.3461e-16
2.94656e-16
3.17229e-16
2.79071e-16
2.22045e-16
2.22045e-16
2.22045e-16
3.15655e-16
2.22045e-16
2.22045e-16
2.27989e-16
2.93319e-16
3.16365e-16
2.79106e-16
2.22045e-16
2.22045e-16
2.22045e-16
3.19887e-16
2.22045e-16
2.22045e-16
2.22045e-16
2.92165e-16
3.15682e-16
2.80006e-16
2.22045e-16
2.22045e-16
2.22045e-16
3.23535e-16
2.22045e-16
2.22045e-16
2.22045e-16
2.91393e-16
3.15358e-16
2.81803e-16
2.2235e-16
2.22045e-16
2.22045e-16
3.27561e-16
2.22045e-16
2.22045e-16
2.22045e-16
2.90866e-16
3.15749e-16
2.8422e-16
2.25283e-16
2.22045e-16
2.22946e-16
3.31378e-16
2.22045e-16
2.22045e-16
2.22045e-16
2.91217e-16
3.16712e-16
2.87051e-16
2.28939e-16
2.22045e-16
2.28214e-16
3.34447e-16
2.22045e-16
2.22045e-16
2.22045e-16
2.91982e-16
3.1762e-16
2.9048e-16
2.33285e-16
2.22045e-16
2.33362e-16
3.36481e-16
2.22045e-16
2.22045e-16
2.22045e-16
2.93362e-16
3.18495e-16
2.94411e-16
2.3822e-16
2.22045e-16
2.37814e-16
3.37275e-16
2.22045e-16
2.22045e-16
2.22045e-16
2.95092e-16
3.19067e-16
2.98355e-16
2.43383e-16
2.22045e-16
2.41898e-16
3.36799e-16
2.22045e-16
2.22045e-16
2.36301e-16
2.97019e-16
3.18433e-16
3.02301e-16
2.496e-16
2.22045e-16
2.43753e-16
3.34627e-16
2.22045e-16
2.22045e-16
2.47694e-16
2.94835e-16
3.16405e-16
3.04457e-16
2.54305e-16
2.22045e-16
2.43007e-16
3.33434e-16
2.22045e-16
2.22045e-16
2.55207e-16
2.91107e-16
3.14048e-16
3.05782e-16
2.57884e-16
2.22045e-16
2.43159e-16
3.31584e-16
2.22045e-16
2.28087e-16
2.56402e-16
2.86936e-16
3.12721e-16
3.07349e-16
2.61722e-16
2.22045e-16
2.40662e-16
3.26601e-16
2.22045e-16
2.33776e-16
2.53134e-16
2.84538e-16
3.13301e-16
3.09499e-16
2.65866e-16
2.22045e-16
2.36015e-16
3.19831e-16
2.2345e-16
2.31258e-16
2.49022e-16
2.82981e-16
3.14606e-16
3.10931e-16
2.68297e-16
2.22045e-16
2.31275e-16
3.1246e-16
2.23487e-16
2.29272e-16
2.46629e-16
2.83532e-16
3.17596e-16
3.11952e-16
2.68641e-16
2.22045e-16
2.25599e-16
3.04594e-16
2.23953e-16
2.29168e-16
2.46456e-16
2.86534e-16
3.22322e-16
3.13112e-16
2.67285e-16
2.22045e-16
2.22045e-16
2.97179e-16
2.25282e-16
2.30811e-16
2.48292e-16
2.92163e-16
3.29149e-16
3.14661e-16
2.64452e-16
2.22045e-16
2.22045e-16
2.91438e-16
2.27031e-16
2.32978e-16
2.507e-16
2.99203e-16
3.37112e-16
3.16007e-16
2.59736e-16
2.22045e-16
2.22045e-16
2.8804e-16
2.28692e-16
2.33489e-16
2.50903e-16
3.03403e-16
3.40976e-16
3.14214e-16
2.51723e-16
2.22045e-16
2.22045e-16
2.87457e-16
2.25775e-16
2.28418e-16
2.44039e-16
2.97889e-16
3.32929e-16
3.05229e-16
2.39928e-16
2.22045e-16
2.22045e-16
2.93305e-16
2.22045e-16
2.22045e-16
2.22045e-16
2.22045e-16
2.22045e-16
2.22045e-16
2.22045e-16
2.23359e-16
2.25944e-16
2.25205e-16
2.22045e-16
2.22045e-16
2.22045e-16
2.22045e-16
2.22045e-16
2.22045e-16
2.22045e-16
2.22045e-16
2.22416e-16
2.24145e-16
2.22045e-16
2.22045e-16
2.22045e-16
2.22045e-16
2.22045e-16
2.22045e-16
2.22045e-16
2.22045e-16
2.22045e-16
2.22045e-16
2.22045e-16
2.22045e-16
2.22045e-16
2.22045e-16
2.22045e-16
2.22045e-16
2.22045e-16
2.22045e-16
2.22045e-16
2.22045e-16
2.22045e-16
2.22045e-16
2.22045e-16
2.22045e-16
2.22045e-16
2.22045e-16
2.22045e-16
2.22045e-16
2.22045e-16
2.22045e-16
2.22045e-16
2.22045e-16
2.22045e-16
2.22045e-16
2.22045e-16
2.22045e-16
2.22045e-16
2.22045e-16
2.22045e-16
2.22045e-16
2.22045e-16
2.22045e-16
2.22045e-16
2.22045e-16
2.22045e-16
2.22045e-16
2.22045e-16
2.22045e-16
2.22045e-16
2.22045e-16
2.22045e-16
2.22045e-16
2.22045e-16
2.22045e-16
2.22045e-16
2.22045e-16
2.22045e-16
2.22045e-16
2.22045e-16
2.22045e-16
2.22045e-16
2.22045e-16
2.22045e-16
2.22045e-16
2.22045e-16
2.22045e-16
2.22045e-16
2.22045e-16
2.22045e-16
2.22045e-16
2.22045e-16
2.22045e-16
2.22045e-16
2.22045e-16
2.22045e-16
2.22045e-16
2.22045e-16
2.22045e-16
2.22045e-16
2.22045e-16
)
;

boundaryField
{
    right
    {
        type            cyclic;
    }
    left
    {
        type            cyclic;
    }
    outerWall
    {
        type            kqRWallFunction;
        value           nonuniform List<scalar> 
22
(
3.1284e-16
3.15655e-16
3.19887e-16
3.23535e-16
3.27561e-16
3.31378e-16
3.34447e-16
3.36481e-16
3.37275e-16
3.36799e-16
3.34627e-16
3.33434e-16
3.31584e-16
3.26601e-16
3.19831e-16
3.1246e-16
3.04594e-16
2.97179e-16
2.91438e-16
2.8804e-16
2.87457e-16
2.93305e-16
)
;
    }
    stirrerWall
    {
        type            kqRWallFunction;
        value           uniform 2.22045e-16;
    }
    top
    {
        type            empty;
    }
    bottom
    {
        type            empty;
    }
}


// ************************************************************************* //
