/*--------------------------------*- C++ -*----------------------------------*\
  =========                 |
  \\      /  F ield         | OpenFOAM: The Open Source CFD Toolbox
   \\    /   O peration     | Website:  https://openfoam.org
    \\  /    A nd           | Version:  10
     \\/     M anipulation  |
\*---------------------------------------------------------------------------*/
FoamFile
{
    format      ascii;
    class       volScalarField;
    location    "800";
    object      k;
}
// * * * * * * * * * * * * * * * * * * * * * * * * * * * * * * * * * * * * * //

dimensions      [0 2 -2 0 0 0 0];

internalField   nonuniform List<scalar> 
2000
(
8.51062e-06
0.000255327
0.00200927
0.00651462
0.0133715
0.0214831
0.029799
0.0375139
0.0443939
0.050903
0.0583133
0.0691253
0.0864809
0.114777
0.146522
0.154244
0.142067
0.118799
0.0939357
0.0737035
6.95323e-06
0.000198238
0.00154614
0.00516315
0.0108876
0.0177443
0.0247512
0.0312252
0.0370425
0.0427247
0.0495642
0.0600932
0.076565
0.0992241
0.122913
0.139225
0.143097
0.123506
0.0988123
0.0769456
5.37233e-06
0.000156053
0.00117194
0.00401747
0.00868615
0.0143648
0.0202007
0.0256172
0.0305334
0.0354466
0.0415669
0.0512573
0.0665724
0.0863336
0.105833
0.122634
0.135263
0.123286
0.102367
0.0814
3.94532e-06
0.000116805
0.000854561
0.00298948
0.00663532
0.0112073
0.0160186
0.0205849
0.0248069
0.0291036
0.0345684
0.0433408
0.057233
0.0750166
0.0923261
0.107381
0.122727
0.119397
0.104221
0.0857737
2.73346e-06
8.22531e-05
0.000596884
0.00211127
0.00480697
0.00833876
0.0122104
0.0160424
0.0197275
0.0235856
0.0285879
0.0366009
0.0491401
0.0651364
0.0806518
0.0941125
0.110065
0.113958
0.104619
0.0895288
1.80115e-06
5.48164e-05
0.000400229
0.00142006
0.0033038
0.00589667
0.00889517
0.0120424
0.0152554
0.0187836
0.0234718
0.030883
0.0422186
0.056529
0.0704151
0.0819373
0.0968604
0.107449
0.103745
0.0923348
1.15307e-06
3.46462e-05
0.000258003
0.000913073
0.00215964
0.00396404
0.00618175
0.00867773
0.0114296
0.0146696
0.0191179
0.0260035
0.0362064
0.0489583
0.0615653
0.0718067
0.0846095
0.0990722
0.101171
0.0938971
7.92919e-07
2.27649e-05
0.000162379
0.000565264
0.00135016
0.00254471
0.00411166
0.00601627
0.00831187
0.0112543
0.0154719
0.0218901
0.0310994
0.0424965
0.0540669
0.0637153
0.0752664
0.0912736
0.0982239
0.0946412
6.74082e-07
1.76588e-05
0.000107442
0.000349454
0.000825551
0.00158643
0.002655
0.00406644
0.00594136
0.00857898
0.0125537
0.0185576
0.0269835
0.0373252
0.0481042
0.0575349
0.0687944
0.0856198
0.0958797
0.094811
7.69085e-07
1.84032e-05
9.45266e-05
0.000248835
0.000537625
0.00101552
0.00173552
0.00277598
0.00430438
0.00666218
0.0104016
0.016071
0.0239289
0.0334658
0.0438071
0.053252
0.0644021
0.0815099
0.0935681
0.0940568
1.0877e-06
2.36572e-05
0.000114011
0.000258684
0.000460039
0.000771847
0.00127108
0.00206507
0.0033515
0.00550687
0.00909986
0.0146039
0.02214
0.0312937
0.0415295
0.0510383
0.0621599
0.0787167
0.0912698
0.0922236
1.62842e-06
3.2592e-05
0.000150269
0.000337298
0.000570314
0.00084069
0.00122203
0.00188848
0.00306811
0.0051789
0.00885207
0.0145701
0.0223329
0.0318056
0.04226
0.052065
0.0629104
0.0770293
0.0893421
0.089873
2.41898e-06
4.60246e-05
0.000193345
0.00044627
0.000791757
0.00120393
0.0016433
0.0023042
0.00355762
0.0059119
0.0101784
0.0169106
0.0259006
0.0364251
0.0476405
0.0584068
0.067436
0.0776542
0.0880663
0.0867241
3.38294e-06
6.19101e-05
0.0002462
0.000567181
0.0010738
0.00178881
0.00259739
0.00352664
0.00508533
0.00812034
0.01376
0.0222643
0.033068
0.0449308
0.057072
0.0682084
0.0744347
0.0793807
0.0837933
0.0799534
4.2254e-06
7.48981e-05
0.000289704
0.000698419
0.00141218
0.00252633
0.00403122
0.00581929
0.00803711
0.0120989
0.0192933
0.0291822
0.0408851
0.0525899
0.0631933
0.0709505
0.0720316
0.0707322
0.0688681
0.0686032
4.39158e-06
7.60192e-05
0.00029154
0.000755221
0.0016748
0.00328368
0.00570954
0.00892555
0.0127009
0.0180382
0.0260183
0.0352714
0.0424509
0.0461598
0.0482045
0.0485518
0.0467251
0.0438555
0.0417399
0.0454484
3.45221e-06
5.78182e-05
0.000220779
0.000619541
0.00151185
0.00324906
0.00611688
0.0101671
0.0149774
0.0203206
0.0263128
0.0318161
0.0352846
0.036471
0.0361196
0.0339721
0.0290954
0.0229204
0.0185575
0.0225261
1.71595e-06
2.62658e-05
9.76359e-05
0.000289804
0.000754544
0.00171896
0.00339836
0.0058538
0.00918736
0.0132647
0.0172074
0.0200851
0.021059
0.0211476
0.0211681
0.0193675
0.0153744
0.010101
0.00643453
0.00898813
4.07384e-07
4.50834e-06
1.63031e-05
4.88898e-05
0.000129329
0.000302131
0.000628946
0.00122276
0.0021989
0.00366629
0.00517404
0.00613884
0.0060024
0.00595973
0.0064362
0.00609007
0.00489218
0.00323417
0.00177198
0.00223089
1.60968e-08
1.67717e-07
5.21105e-07
1.52278e-06
4.00013e-06
9.41369e-06
2.01309e-05
4.32444e-05
8.78205e-05
0.000170295
0.000271739
0.000338164
0.000332843
0.000333376
0.000345171
0.000289207
0.000211924
0.000151749
9.17099e-05
0.000273543
0.0613445
0.0622768
0.091239
0.178911
0.370616
0.700493
1.15606
1.68475
2.22876
2.75046
3.25505
3.80892
4.56257
5.79632
8.27023
13.7
27.4232
65.6153
195.847
784.721
0.0616504
0.0584321
0.0822904
0.165414
0.355889
0.689144
1.1508
1.68618
2.23585
2.76047
3.26453
3.81393
4.56315
5.78893
8.25701
13.6779
27.407
65.6586
195.194
779.834
0.0647234
0.0585461
0.0787515
0.159527
0.351741
0.690663
1.15857
1.69889
2.25198
2.77777
3.28044
3.82503
4.57043
5.78879
8.25261
13.6641
27.3972
65.7111
194.722
775.514
0.0689078
0.0606385
0.0782011
0.158474
0.355341
0.702328
1.17678
1.72064
2.27506
2.79989
3.2995
3.83826
4.57985
5.79072
8.25181
13.6541
27.3925
65.7975
194.584
772.458
0.0734524
0.0640081
0.0801585
0.162312
0.36738
0.724828
1.20533
1.7502
2.30311
2.82482
3.32022
3.8526
4.59058
5.79409
8.25432
13.6481
27.3927
65.9089
194.754
771.035
0.0777283
0.0680736
0.0844541
0.171711
0.389222
0.758933
1.24362
1.78617
2.33482
2.85175
3.34219
3.86786
4.60258
5.79906
8.26016
13.6464
27.3964
66.0247
195.122
771.113
0.0813053
0.0723994
0.0911277
0.187764
0.422365
0.804782
1.2902
1.8265
2.36829
2.87912
3.36414
3.88308
4.61508
5.80512
8.26871
13.6484
27.4027
66.1296
195.575
772.357
0.0840512
0.0767428
0.10057
0.212091
0.468095
0.86121
1.34197
1.86764
2.40029
2.90421
3.38394
3.89671
4.62684
5.81133
8.27905
13.6531
27.4108
66.2109
195.981
774.198
0.085834
0.0811258
0.113796
0.246843
0.526642
0.924941
1.39423
1.90534
2.42753
2.92468
3.39999
3.90764
4.63686
5.8169
8.28995
13.6596
27.4197
66.2609
196.219
775.938
0.086468
0.0859726
0.132646
0.294092
0.595771
0.990154
1.44111
1.9353
2.44725
2.93879
3.41117
3.91517
4.6444
5.82122
8.30014
13.6669
27.429
66.2785
196.203
776.89
0.0860991
0.0924868
0.159682
0.353797
0.668693
1.048
1.47551
1.95277
2.45641
2.94467
3.41633
3.91867
4.64881
5.82395
8.30855
13.6744
27.4388
66.2701
195.896
776.517
0.0857226
0.102718
0.196268
0.419391
0.732719
1.08776
1.4906
1.9539
2.45298
2.94133
3.41489
3.9178
4.64965
5.82486
8.31409
13.6814
27.4477
66.2481
195.307
774.458
0.085847
0.118326
0.237501
0.475576
0.774533
1.10271
1.48415
1.93881
2.43788
2.92988
3.4076
3.91296
4.64694
5.82392
8.31576
13.6872
27.453
66.2269
194.465
770.158
0.0875728
0.137533
0.267313
0.506026
0.788579
1.09289
1.46296
1.91623
2.41718
2.91202
3.39578
3.90508
4.64103
5.82134
8.31283
13.6911
27.4516
66.221
193.416
762.237
0.085924
0.14169
0.276824
0.507616
0.77769
1.06942
1.43468
1.89046
2.39567
2.8935
3.38033
3.89504
4.63229
5.81734
8.30463
13.6926
27.439
66.2457
192.328
749.404
0.06443
0.121805
0.266169
0.499631
0.759281
1.03858
1.40249
1.86357
2.37459
2.87592
3.36396
3.88392
4.62111
5.81218
8.29069
13.6916
27.4087
66.3121
191.494
735.647
0.0403035
0.0978415
0.254426
0.488945
0.73684
1.00846
1.37076
1.83731
2.35464
2.86006
3.34891
3.87277
4.60825
5.80621
8.27073
13.6886
27.3541
66.4184
190.681
721.874
0.0223832
0.0778011
0.249042
0.482967
0.71512
0.980579
1.34337
1.81416
2.33722
2.8468
3.33598
3.86256
4.59431
5.79952
8.24397
13.6831
27.248
66.5759
189.536
708.205
0.00986064
0.0643517
0.255455
0.485614
0.699349
0.958052
1.32122
1.79636
2.32421
2.83755
3.32629
3.85466
4.58042
5.79256
8.21086
13.6744
27.0609
66.8065
187.994
694.795
0.00462211
0.0653682
0.282029
0.499312
0.69379
0.94679
1.30923
1.78845
2.32065
2.83609
3.32258
3.85245
4.56961
5.78714
8.17506
13.6252
26.826
66.6073
186.405
681.796
0.00445056
0.0909772
0.340994
0.526423
0.700888
0.950688
1.31903
1.80617
2.3432
2.85726
3.33791
3.86406
4.57102
5.78923
8.14998
13.5625
26.6002
65.9527
181.57
667.644
0.00451104
0.0954907
0.343818
0.521141
0.691564
0.94052
1.31094
1.8015
2.34237
2.8585
3.33889
3.86302
4.56563
5.7787
8.13209
13.5193
26.5294
65.6517
180.859
664.525
0.0046469
0.0976498
0.335729
0.504588
0.671674
0.920926
1.29542
1.79198
2.33948
2.85981
3.34082
3.86197
4.55792
5.76308
8.10773
13.4634
26.4509
65.2768
180.091
660.647
0.00484182
0.099262
0.325209
0.486496
0.651661
0.902383
1.28203
1.7851
2.33936
2.86389
3.34546
3.86339
4.55222
5.74929
8.08494
13.4093
26.3746
64.8896
179.412
657.012
0.00507468
0.100439
0.313953
0.468831
0.633757
0.887177
1.27284
1.78242
2.34293
2.87121
3.35315
3.86777
4.54934
5.73855
8.06505
13.3593
26.3014
64.4997
178.836
653.945
0.0053513
0.101269
0.302869
0.452674
0.619157
0.876502
1.26882
1.78456
2.35045
2.8818
3.36386
3.87519
4.54958
5.73131
8.04888
13.315
26.2323
64.1133
178.384
651.653
0.00569634
0.101914
0.292725
0.438942
0.608827
0.871273
1.27066
1.79193
2.36202
2.8956
3.3775
3.88563
4.55313
5.72778
8.03718
13.2774
26.1683
63.7347
178.076
650.281
0.00615321
0.102634
0.284312
0.428559
0.603661
0.872279
1.27887
1.80476
2.37762
2.91242
3.39387
3.89898
4.56005
5.72818
8.03055
13.2478
26.1106
63.3666
177.929
649.916
0.00678921
0.103803
0.278479
0.422478
0.604483
0.880181
1.29378
1.82311
2.39706
2.93195
3.41265
3.91503
4.57036
5.73271
8.02948
13.2269
26.0602
63.0106
177.953
650.586
0.00770518
0.10592
0.276139
0.421663
0.612016
0.895471
1.31555
1.84685
2.42
2.95375
3.4334
3.93347
4.58394
5.74147
8.03442
13.2154
26.0182
62.6677
178.149
652.254
0.00904998
0.109628
0.278254
0.427046
0.626827
0.918428
1.34409
1.87567
2.44594
2.97721
3.45559
3.95388
4.60062
5.75451
8.04569
13.2139
25.9858
62.3375
178.512
654.817
0.0110417
0.115731
0.285807
0.43947
0.64926
0.949104
1.37957
1.90943
2.47443
3.00163
3.47855
3.97574
4.62012
5.77177
8.06354
13.2231
25.9637
62.0192
179.025
658.114
0.0139973
0.125202
0.299761
0.459611
0.679386
0.987675
1.42146
1.94741
2.50481
3.02645
3.50151
3.99845
4.64207
5.7931
8.08807
13.2431
25.953
61.7113
179.667
661.941
0.0183743
0.139188
0.320984
0.487885
0.717465
1.03366
1.46899
1.98879
2.53629
3.05081
3.5237
4.02129
4.66601
5.81824
8.11925
13.2738
25.9542
61.4119
180.41
666.055
0.0248264
0.158979
0.350146
0.524322
0.763119
1.08622
1.52114
2.03259
2.56806
3.07402
3.5445
4.04352
4.69142
5.84681
8.15688
13.3138
25.9689
61.1193
181.226
670.194
0.0342797
0.18593
0.387573
0.568441
0.815484
1.14413
1.57655
2.07764
2.5993
3.09545
3.56316
4.0645
4.71766
5.87833
8.20061
13.362
25.9977
60.8322
182.086
674.092
0.0480315
0.221306
0.433052
0.619271
0.873215
1.2057
1.63353
2.1226
2.62917
3.11457
3.5792
4.08356
4.74406
5.9122
8.24987
13.4177
26.0409
60.5487
182.969
677.506
0.0678788
0.266013
0.485595
0.675676
0.934409
1.26882
1.69015
2.166
2.65684
3.13098
3.59228
4.10016
4.76993
5.94767
8.30386
13.4799
26.0985
60.2661
183.851
680.23
0.0962781
0.320167
0.543052
0.735307
0.996581
1.33094
1.74425
2.20634
2.68153
3.14443
3.60228
4.1139
4.79454
5.98385
8.3615
13.547
26.1702
59.9885
184.717
682.133
0.136531
0.382444
0.602313
0.795227
1.0567
1.38914
1.79335
2.24193
2.70249
3.15483
3.60926
4.12457
4.81708
6.01967
8.42131
13.6176
26.2573
59.7322
185.592
683.261
0.214157
0.472664
0.674228
0.863619
1.12027
1.44707
1.83945
2.27356
2.7198
3.16195
3.61312
4.13227
4.83828
6.05654
8.48509
13.6922
26.3595
59.4311
186.538
684.215
0.418717
0.54173
0.682403
0.867158
1.11992
1.44616
1.83564
2.26599
2.70966
3.14979
3.60088
4.12005
4.83868
6.06807
8.52941
13.7503
26.2817
58.9678
175.789
674.263
0.458407
0.55415
0.686344
0.870483
1.1224
1.44666
1.83329
2.26054
2.70115
3.13928
3.58942
4.10848
4.83696
6.07854
8.55987
13.8267
26.3634
58.86
168.529
661.445
0.447113
0.53974
0.670515
0.854936
1.10744
1.43203
1.81914
2.24637
2.68633
3.12434
3.57518
4.0969
4.83427
6.08754
8.58676
13.8896
26.4985
58.8105
164.22
648.72
0.427826
0.518694
0.648202
0.832278
1.08448
1.4096
1.79774
2.22559
2.66575
3.10433
3.55631
4.08108
4.82657
6.08988
8.60404
13.9393
26.6283
58.9202
161.795
636.556
0.404069
0.492275
0.61986
0.802588
1.05438
1.38076
1.77086
2.2004
2.64181
3.0817
3.53504
4.0639
4.81618
6.0878
8.61447
13.9796
26.7596
59.1745
160.435
625.117
0.378512
0.46278
0.587241
0.767418
1.01852
1.34621
1.73868
2.17073
2.61438
3.05621
3.51097
4.04513
4.803
6.08108
8.61723
14.0105
26.8899
59.5472
159.901
614.741
0.351652
0.431296
0.551621
0.728518
0.978418
1.30728
1.70246
2.13779
2.58444
3.02871
3.48613
4.02513
4.78768
6.07059
8.61331
14.0315
27.0157
60.0064
160.152
605.848
0.323906
0.398198
0.513578
0.687196
0.935242
1.26429
1.66261
2.10193
2.55221
2.99973
3.46128
4.00438
4.77048
6.0565
8.60325
14.0427
27.1324
60.5261
161.166
599.038
0.295478
0.364698
0.475377
0.645174
0.890823
1.21974
1.62032
2.06366
2.51879
2.97095
3.43648
3.98316
4.75181
6.03924
8.5874
14.044
27.2349
61.0808
162.827
595.545
0.267561
0.331579
0.437172
0.602489
0.84541
1.17425
1.57743
2.02522
2.48556
2.94248
3.41192
3.96182
4.73205
6.01932
8.56622
14.0349
27.3188
61.6506
165.143
597.159
0.240215
0.298891
0.398907
0.559217
0.799107
1.12791
1.53406
1.98677
2.45272
2.91465
3.38796
3.94058
4.71155
5.9972
8.54033
14.0156
27.3806
62.2089
168.049
603.79
0.213515
0.266656
0.360662
0.515561
0.752083
1.08083
1.49031
1.94848
2.42052
2.88784
3.36497
3.91974
4.69069
5.9734
8.51068
13.9876
27.4225
62.7643
171.488
616.982
0.18754
0.234973
0.322671
0.471731
0.704534
1.03326
1.44646
1.91068
2.38932
2.86238
3.34331
3.89972
4.66998
5.94865
8.47846
13.9524
27.4449
63.31
174.945
628.985
0.162446
0.204097
0.285177
0.427862
0.656603
0.985411
1.40283
1.87372
2.35957
2.83872
3.32339
3.88104
4.65012
5.92388
8.44514
13.9121
27.4486
63.8311
178.64
640.24
0.138509
0.174325
0.248322
0.384025
0.608341
0.937405
1.35963
1.83791
2.33167
2.81728
3.30568
3.86423
4.63177
5.90004
8.41241
13.8705
27.4408
64.327
182.955
656.419
0.116026
0.145855
0.21221
0.340249
0.559789
0.889346
1.31709
1.80361
2.30594
2.79837
3.29053
3.84965
4.61547
5.87802
8.38208
13.8317
27.4304
64.8151
188.932
703.825
0.0952682
0.118919
0.177081
0.296715
0.511167
0.84154
1.27558
1.77123
2.28283
2.78235
3.2782
3.8375
4.60156
5.85847
8.35554
13.7993
27.432
65.1863
193.807
752.184
0.0768577
0.0941635
0.143755
0.254276
0.463126
0.794533
1.23565
1.74136
2.26278
2.76942
3.26875
3.82794
4.59048
5.84199
8.33332
13.7741
27.4417
65.3517
196.608
789.556
0.0631922
0.0734822
0.114276
0.215393
0.41828
0.750997
1.19993
1.71624
2.24733
2.76038
3.2625
3.8206
4.58079
5.82639
8.31352
13.7557
27.4441
65.3719
195.823
787.031
0.0481925
0.278817
0.363936
0.364481
0.351695
0.335183
0.317695
0.299395
0.280427
0.260217
0.240114
0.219966
0.19968
0.179247
0.158753
0.138385
0.118383
0.0989958
0.0811443
0.069466
0.0206394
0.1889
0.287348
0.296732
0.289253
0.278961
0.268178
0.257137
0.245903
0.233535
0.220827
0.207671
0.193879
0.179241
0.163567
0.1468
0.129051
0.110623
0.0932584
0.0859139
0.00965142
0.12761
0.225982
0.243928
0.240032
0.233446
0.227079
0.221083
0.215381
0.20921
0.202829
0.196155
0.188946
0.180955
0.171853
0.161185
0.148353
0.132735
0.115246
0.111129
0.00441223
0.0851617
0.177923
0.203353
0.202059
0.197334
0.193238
0.190046
0.187635
0.185391
0.183509
0.18175
0.17998
0.178201
0.17635
0.173936
0.169578
0.160821
0.144637
0.139053
0.00213578
0.0554453
0.139976
0.172196
0.173743
0.169769
0.166252
0.163789
0.162544
0.162202
0.162589
0.163376
0.164538
0.166399
0.169459
0.174068
0.179248
0.182405
0.178939
0.168388
0.00126846
0.0350302
0.106976
0.146861
0.152674
0.149418
0.145584
0.142874
0.141542
0.14139
0.142105
0.143269
0.144781
0.146986
0.150624
0.156663
0.165313
0.17758
0.189853
0.175956
0.000805274
0.0223156
0.0796873
0.122557
0.1352
0.134606
0.13107
0.127977
0.126063
0.125199
0.125061
0.125196
0.125544
0.126267
0.127632
0.129876
0.133421
0.140751
0.14152
0.133384
0.000524106
0.014377
0.0581267
0.0998859
0.118881
0.122631
0.120709
0.117798
0.115386
0.113682
0.112464
0.111356
0.11032
0.109468
0.108838
0.108374
0.108761
0.109715
0.107361
0.0992336
0.000346593
0.00943806
0.0419497
0.0795685
0.102971
0.111881
0.112997
0.111263
0.109019
0.106999
0.105196
0.10341
0.101707
0.100199
0.0990711
0.0989058
0.101782
0.101014
0.0930478
0.0818592
0.0002307
0.00626813
0.0299043
0.0616926
0.0870013
0.100981
0.106408
0.107359
0.10652
0.105118
0.103491
0.101791
0.100468
0.0999894
0.100458
0.102117
0.101262
0.0941994
0.0837155
0.0714495
0.000153034
0.004175
0.0211407
0.046628
0.0708851
0.0881737
0.0981595
0.103033
0.104984
0.105509
0.105408
0.105142
0.104929
0.104752
0.104467
0.103042
0.0972752
0.0878644
0.0764621
0.0640599
9.99222e-05
0.00275065
0.0146901
0.0343028
0.0553558
0.0731672
0.086142
0.0947146
0.100073
0.103318
0.105157
0.106091
0.106182
0.105177
0.102937
0.0983343
0.0902261
0.0798981
0.0685529
0.0568377
6.33154e-05
0.0017648
0.00991139
0.0244456
0.0414456
0.0575002
0.070855
0.081122
0.0886636
0.0939586
0.0973782
0.0991423
0.0992294
0.0974953
0.09385
0.087464
0.0788197
0.0689192
0.0586351
0.048314
3.84094e-05
0.00108644
0.00639548
0.0166914
0.0296411
0.0428261
0.0547139
0.0646065
0.0723574
0.078036
0.0817664
0.0836015
0.0835096
0.0814751
0.0774714
0.0711971
0.0635701
0.0552651
0.0468361
0.0384219
2.19119e-05
0.000629577
0.00386881
0.0107138
0.0199659
0.029988
0.0395308
0.0478479
0.0545705
0.0595488
0.0627438
0.064159
0.0638101
0.0617565
0.0579499
0.0528459
0.0469227
0.0406048
0.0342118
0.0278566
1.13399e-05
0.000330878
0.00211813
0.00624424
0.0122776
0.0192241
0.026165
0.0324456
0.0376412
0.0415039
0.0439131
0.044834
0.0443099
0.0424504
0.0393165
0.0354611
0.0311234
0.026576
0.02204
0.0176598
4.88406e-06
0.00014457
0.000971796
0.0030805
0.00647957
0.0106893
0.0151211
0.0192785
0.0227919
0.0254088
0.0269814
0.0274531
0.0268509
0.0252902
0.0228941
0.0201284
0.0171682
0.0142024
0.0113988
0.00885518
1.45292e-06
4.33051e-05
0.000304905
0.00109281
0.00254815
0.00454796
0.00679475
0.00896513
0.010791
0.0120827
0.0127285
0.0126908
0.0119957
0.0107196
0.00921349
0.00769854
0.00624978
0.00492774
0.00378292
0.00282815
2.62379e-07
7.7948e-06
5.21647e-05
0.00019361
0.000543864
0.00109421
0.00174152
0.00236421
0.00285146
0.00312748
0.00315876
0.00295245
0.00255222
0.00206004
0.00165091
0.0013021
0.00100434
0.00075304
0.000546695
0.000384777
2.35862e-08
5.77093e-07
2.73512e-06
8.80608e-06
2.25389e-05
4.86053e-05
8.26494e-05
0.000114442
0.000135425
0.000141296
0.000132089
0.000111818
8.73069e-05
6.99838e-05
5.59608e-05
4.40591e-05
3.3907e-05
2.53654e-05
1.83789e-05
1.28432e-05
)
;

boundaryField
{
    right
    {
        type            cyclic;
    }
    left
    {
        type            cyclic;
    }
    outerWall
    {
        type            kqRWallFunction;
        value           nonuniform List<scalar> 
60
(
784.721
779.834
775.514
772.458
771.035
771.113
772.357
774.198
775.938
776.89
776.517
774.458
770.158
762.237
749.404
735.647
721.874
708.205
694.795
681.796
667.644
664.525
660.647
657.012
653.945
651.653
650.281
649.916
650.586
652.254
654.817
658.114
661.941
666.055
670.194
674.092
677.506
680.23
682.133
683.261
684.215
674.263
661.445
648.72
636.556
625.117
614.741
605.848
599.038
595.545
597.159
603.79
616.982
628.985
640.24
656.419
703.825
752.184
789.556
787.031
)
;
    }
    stirrerWall
    {
        type            kqRWallFunction;
        value           nonuniform List<scalar> 
100
(
8.51062e-06
6.95323e-06
5.37233e-06
3.94532e-06
2.73346e-06
1.80115e-06
1.15307e-06
7.92919e-07
6.74082e-07
7.69085e-07
1.0877e-06
1.62842e-06
2.41898e-06
3.38294e-06
4.2254e-06
4.39158e-06
3.45221e-06
1.71595e-06
4.07384e-07
1.60968e-08
1.60968e-08
1.67717e-07
5.21105e-07
1.52278e-06
4.00013e-06
9.41369e-06
2.01309e-05
4.32444e-05
8.78205e-05
0.000170295
0.000271739
0.000338164
0.000332843
0.000333376
0.000345171
0.000289207
0.000211924
0.000151749
9.17099e-05
0.000273543
0.00445056
0.00451104
0.0046469
0.00484182
0.00507468
0.0053513
0.00569634
0.00615321
0.00678921
0.00770518
0.00904998
0.0110417
0.0139973
0.0183743
0.0248264
0.0342797
0.0480315
0.0678788
0.0962781
0.136531
0.0481925
0.0206394
0.00965142
0.00441223
0.00213578
0.00126846
0.000805274
0.000524106
0.000346593
0.0002307
0.000153034
9.99222e-05
6.33154e-05
3.84094e-05
2.19119e-05
1.13399e-05
4.88406e-06
1.45292e-06
2.62379e-07
2.35862e-08
2.35862e-08
5.77093e-07
2.73512e-06
8.80608e-06
2.25389e-05
4.86053e-05
8.26494e-05
0.000114442
0.000135425
0.000141296
0.000132089
0.000111818
8.73069e-05
6.99838e-05
5.59608e-05
4.40591e-05
3.3907e-05
2.53654e-05
1.83789e-05
1.28432e-05
)
;
    }
    top
    {
        type            empty;
    }
    bottom
    {
        type            empty;
    }
}


// ************************************************************************* //
