/*--------------------------------*- C++ -*----------------------------------*\
  =========                 |
  \\      /  F ield         | OpenFOAM: The Open Source CFD Toolbox
   \\    /   O peration     | Website:  https://openfoam.org
    \\  /    A nd           | Version:  10
     \\/     M anipulation  |
\*---------------------------------------------------------------------------*/
FoamFile
{
    format      ascii;
    class       volScalarField;
    location    "800";
    object      nut;
}
// * * * * * * * * * * * * * * * * * * * * * * * * * * * * * * * * * * * * * //

dimensions      [0 2 -1 0 0 0 0];

internalField   nonuniform List<scalar> 
2000
(
9.8032e-11
1.07779e-08
2.09612e-07
1.24548e-06
3.89529e-06
8.38602e-06
1.43965e-05
2.13421e-05
2.85421e-05
3.5413e-05
4.20953e-05
5.0268e-05
6.34852e-05
8.50777e-05
0.000106874
0.000111864
0.000100316
8.20048e-05
6.48594e-05
5.15467e-05
8.00902e-11
9.12664e-09
1.66909e-07
9.86017e-07
3.09034e-06
6.64682e-06
1.13735e-05
1.6821e-05
2.25725e-05
2.83835e-05
3.45814e-05
4.27663e-05
5.55933e-05
7.40897e-05
9.25566e-05
0.000102269
9.86383e-05
8.31664e-05
6.66474e-05
5.25944e-05
6.18792e-11
7.67386e-09
1.27908e-07
7.54369e-07
2.38469e-06
5.15976e-06
8.85812e-06
1.31447e-05
1.77609e-05
2.26534e-05
2.82527e-05
3.60548e-05
4.8123e-05
6.43438e-05
8.0296e-05
9.1317e-05
9.34071e-05
8.2232e-05
6.80752e-05
5.46347e-05
4.54419e-11
5.97188e-09
9.2929e-08
5.42569e-07
1.73608e-06
3.82197e-06
6.66455e-06
1.00274e-05
1.37443e-05
1.78566e-05
2.2841e-05
3.00662e-05
4.11405e-05
5.56382e-05
6.98919e-05
8.06031e-05
8.62854e-05
7.99775e-05
6.89088e-05
5.67759e-05
3.14835e-11
4.33585e-09
6.51331e-08
3.71237e-07
1.19471e-06
2.68537e-06
4.79767e-06
7.39272e-06
1.03741e-05
1.3827e-05
1.82445e-05
2.48425e-05
3.48844e-05
4.78843e-05
6.07035e-05
7.08307e-05
7.84928e-05
7.6862e-05
6.904e-05
5.8568e-05
2.07453e-11
3.00265e-09
4.47944e-08
2.46455e-07
7.88021e-07
1.79906e-06
3.30017e-06
5.24291e-06
7.59813e-06
1.04828e-05
1.43822e-05
2.03437e-05
2.93629e-05
4.09656e-05
5.25127e-05
6.17692e-05
7.02919e-05
7.31063e-05
6.84241e-05
5.96947e-05
1.32809e-11
1.98918e-09
3.04125e-08
1.60941e-07
5.05618e-07
1.16254e-06
2.1833e-06
3.58504e-06
5.4023e-06
7.78993e-06
1.12105e-05
1.65314e-05
2.45175e-05
3.47862e-05
4.52622e-05
5.38623e-05
6.23014e-05
6.83166e-05
6.67724e-05
5.98579e-05
9.13283e-12
1.3729e-09
2.0705e-08
1.04723e-07
3.20447e-07
7.36284e-07
1.40909e-06
2.39075e-06
3.76382e-06
5.72044e-06
8.70123e-06
1.34101e-05
2.04228e-05
2.94579e-05
3.89594e-05
4.71064e-05
5.53338e-05
6.32062e-05
6.43491e-05
5.89629e-05
7.76421e-12
1.11836e-09
1.52093e-08
7.06887e-08
2.06619e-07
4.69289e-07
9.09586e-07
1.59185e-06
2.62617e-06
4.23276e-06
6.83059e-06
1.09967e-05
1.71763e-05
2.51531e-05
3.37863e-05
4.15555e-05
4.96913e-05
5.85307e-05
6.13855e-05
5.68202e-05
8.85871e-12
1.21551e-09
1.49196e-08
5.68849e-08
1.47801e-07
3.19706e-07
6.16369e-07
1.10449e-06
1.90572e-06
3.25453e-06
5.55602e-06
9.29769e-06
1.48228e-05
2.19178e-05
2.98622e-05
3.72751e-05
4.51549e-05
5.41067e-05
5.74424e-05
5.29822e-05
1.25291e-11
1.58778e-09
1.96094e-08
6.67246e-08
1.42277e-07
2.66681e-07
4.83161e-07
8.60211e-07
1.52562e-06
2.72553e-06
4.86097e-06
8.35486e-06
1.34414e-05
1.99359e-05
2.73344e-05
3.43071e-05
4.16229e-05
4.95495e-05
5.20659e-05
4.71654e-05
1.87584e-11
2.2085e-09
2.72986e-08
9.35003e-08
1.91094e-07
3.1588e-07
5.00399e-07
8.35156e-07
1.4608e-06
2.64203e-06
4.79772e-06
8.31801e-06
1.33186e-05
1.95991e-05
2.51837e-05
3.26943e-05
3.85725e-05
4.31425e-05
4.4864e-05
3.97348e-05
2.78665e-11
3.16809e-09
3.52504e-08
1.23596e-07
2.64091e-07
4.58785e-07
6.9833e-07
1.06652e-06
1.76737e-06
3.1117e-06
5.58219e-06
8.86449e-06
1.27375e-05
1.70985e-05
2.13689e-05
2.70181e-05
3.05133e-05
3.24759e-05
3.64066e-05
3.15874e-05
3.89733e-11
4.31993e-09
4.36695e-08
1.43613e-07
3.25818e-07
6.36788e-07
1.06754e-06
1.64181e-06
2.59056e-06
4.35715e-06
6.71478e-06
9.31051e-06
1.28134e-05
1.6797e-05
2.0497e-05
2.44185e-05
2.58019e-05
2.58742e-05
2.7214e-05
2.35254e-05
4.8682e-11
5.23838e-09
4.71829e-08
1.51013e-07
3.63191e-07
7.74821e-07
1.46404e-06
2.48247e-06
3.96944e-06
6.37971e-06
1.0205e-05
1.39472e-05
1.61448e-05
1.83415e-05
2.06924e-05
2.21211e-05
2.15751e-05
2.05302e-05
1.80182e-05
1.66046e-05
5.06001e-11
5.17607e-09
3.98297e-08
1.27831e-07
3.37813e-07
8.09302e-07
1.70089e-06
3.13088e-06
5.25439e-06
8.15102e-06
1.04191e-05
1.31093e-05
1.73216e-05
1.88261e-05
1.78903e-05
1.58514e-05
1.33284e-05
1.09618e-05
9.1231e-06
8.64276e-06
3.97796e-11
3.56424e-09
2.19778e-08
7.20309e-08
2.08591e-07
5.56956e-07
1.31029e-06
2.62268e-06
4.44458e-06
6.7927e-06
9.3506e-06
1.15029e-05
1.26197e-05
1.2577e-05
1.17018e-05
1.00585e-05
7.65292e-06
5.14446e-06
3.33882e-06
3.32828e-06
1.97744e-11
1.19412e-09
5.60986e-09
1.87245e-08
5.64874e-08
1.55168e-07
3.72765e-07
7.41752e-07
1.33596e-06
2.22821e-06
3.2044e-06
3.96461e-06
4.24504e-06
4.33711e-06
4.45329e-06
4.07988e-06
3.06476e-06
1.72933e-06
8.02895e-07
9.40217e-07
4.69506e-12
8.7062e-11
3.58997e-10
1.20865e-09
3.60883e-09
9.63029e-09
2.28633e-08
4.94367e-08
9.90846e-08
1.86286e-07
2.91789e-07
3.75042e-07
3.86413e-07
4.06742e-07
4.73198e-07
4.74418e-07
3.96275e-07
2.6316e-07
1.17688e-07
1.36304e-07
4.76122e-14
5.704e-13
2.01929e-12
6.66976e-12
1.96643e-11
5.1613e-11
1.22407e-10
2.9014e-10
6.47147e-10
1.3725e-09
2.38618e-09
3.22393e-09
3.43396e-09
3.71095e-09
4.13402e-09
3.71717e-09
2.91612e-09
2.23045e-09
1.43685e-09
4.55924e-09
4.31943e-05
4.33743e-05
6.24399e-05
0.000124518
0.000284897
0.000662566
0.00144318
0.00273373
0.0043991
0.00620574
0.0079508
0.00941389
0.0103633
0.010825
0.0113779
0.012608
0.0154598
0.0207867
0.031387
0.0500225
4.24087e-05
3.96399e-05
5.45532e-05
0.000110935
0.000263276
0.000629713
0.00139772
0.00268041
0.00434567
0.00616014
0.00791938
0.0093971
0.0103612
0.0108251
0.0113778
0.0126005
0.0154548
0.0208215
0.0313532
0.04975
4.35378e-05
3.86458e-05
5.05033e-05
0.00010309
0.000251065
0.000612984
0.00137768
0.00265838
0.0043218
0.00613882
0.00790675
0.00939336
0.0103681
0.0108314
0.0113829
0.0125962
0.0154482
0.0208493
0.0313383
0.0494426
4.53721e-05
3.88969e-05
4.8429e-05
9.86497e-05
0.000245367
0.000608852
0.00137872
0.00266227
0.00432146
0.00613549
0.00790634
0.00939606
0.0103773
0.0108376
0.0113886
0.0125923
0.0154401
0.0208759
0.031361
0.0492523
4.73216e-05
3.97995e-05
4.78034e-05
9.72619e-05
0.000246237
0.000618118
0.00140201
0.00269178
0.0043424
0.00614754
0.00791625
0.00940403
0.0103877
0.0108431
0.0113947
0.0125888
0.0154308
0.0208988
0.0314139
0.0491842
4.88832e-05
4.08531e-05
4.83007e-05
9.89616e-05
0.000254417
0.000642501
0.00144917
0.00274625
0.00438245
0.00617337
0.00793572
0.00941701
0.0103996
0.0108482
0.011401
0.0125862
0.0154203
0.0209146
0.0314823
0.0492234
4.96502e-05
4.16399e-05
4.9692e-05
0.000104015
0.00027111
0.000684218
0.0015213
0.00282315
0.00443754
0.00620973
0.00796244
0.00943344
0.0104118
0.0108525
0.0114074
0.0125842
0.0154089
0.0209214
0.0315505
0.0493477
4.93165e-05
4.18435e-05
5.18974e-05
0.000112985
0.000298019
0.000745652
0.00161765
0.00291674
0.00450133
0.00625113
0.00799249
0.0094508
0.0104228
0.0108552
0.0114133
0.0125826
0.0153972
0.0209187
0.0316032
0.0495187
4.75869e-05
4.13044e-05
5.50865e-05
0.000126828
0.000337278
0.000828513
0.00173401
0.00301804
0.00456618
0.00629199
0.00802232
0.00946695
0.0104313
0.0108557
0.011418
0.0125812
0.0153855
0.0209071
0.0316282
0.0496905
4.4227e-05
4.00922e-05
5.97156e-05
0.000146804
0.000390888
0.000932064
0.0018612
0.00311574
0.00462494
0.00632851
0.00804845
0.00948008
0.0104363
0.0108536
0.0114208
0.01258
0.0153741
0.0208883
0.0316178
0.0498195
3.93646e-05
3.86462e-05
6.64547e-05
0.000173909
0.000459033
0.00104985
0.00198383
0.00319729
0.00467058
0.00635642
0.00806707
0.00948839
0.010437
0.010849
0.0114214
0.0125788
0.0153634
0.0208649
0.0315697
0.0498752
3.37873e-05
3.77203e-05
7.55413e-05
0.000206927
0.000536548
0.0011668
0.00199948
0.00296589
0.00441351
0.00637316
0.00807619
0.00949049
0.0104327
0.010842
0.0114194
0.0125778
0.0153534
0.0208399
0.0314863
0.0498372
2.83688e-05
3.78121e-05
8.5045e-05
0.00023946
0.000610702
0.00110925
0.00167671
0.00258223
0.00388946
0.00579243
0.00807748
0.00948589
0.0104234
0.0108329
0.0114144
0.0125767
0.0153435
0.020817
0.0313731
0.0496641
2.40688e-05
3.80641e-05
8.89296e-05
0.000259817
0.000624759
0.000985251
0.00157219
0.00244459
0.0036596
0.0054031
0.00787902
0.00947514
0.0104096
0.0108221
0.0114061
0.0125756
0.0153331
0.0208012
0.0312425
0.0492517
1.9514e-05
3.31944e-05
8.49841e-05
0.00026021
0.000599045
0.00101116
0.00160846
0.00247697
0.00364354
0.00529311
0.00752983
0.00945914
0.0103918
0.0108101
0.0113943
0.0125741
0.0153208
0.0207963
0.0311233
0.0485185
1.12829e-05
2.33357e-05
7.35374e-05
0.000252779
0.000674109
0.00111279
0.00172959
0.00261595
0.0037608
0.00536843
0.00743597
0.00944046
0.0103708
0.0107973
0.0113787
0.0125723
0.015304
0.0207967
0.0310288
0.0477328
5.25242e-06
1.46961e-05
6.13722e-05
0.000238778
0.000680809
0.00129274
0.00192446
0.00283314
0.00396703
0.00556842
0.00752546
0.00942007
0.0103475
0.010784
0.0113593
0.0125705
0.0152816
0.0208021
0.0309306
0.0469536
2.02552e-06
8.86676e-06
5.17497e-05
0.000225927
0.000664187
0.00128538
0.0020753
0.00314622
0.00428174
0.00590616
0.00780288
0.00939936
0.0103225
0.0107702
0.0113356
0.0125682
0.0152472
0.0208131
0.0307967
0.0461969
5.53446e-07
5.42352e-06
4.58212e-05
0.0002193
0.000652188
0.00125503
0.00203506
0.00314274
0.00460709
0.00630022
0.00798537
0.00938052
0.0102973
0.0107563
0.0113082
0.0125651
0.0151947
0.020831
0.0306301
0.0454792
1.3297e-07
3.96167e-06
4.4652e-05
0.000222435
0.000651935
0.00123444
0.00200156
0.00311377
0.00459063
0.00629232
0.00797537
0.00936889
0.0102754
0.0107435
0.0112799
0.0125478
0.0151326
0.0207752
0.0304635
0.0443456
5.19303e-08
4.14923e-06
5.38827e-05
0.000253314
0.000689262
0.00124246
0.00200143
0.00312433
0.00461516
0.00632137
0.00799587
0.00937674
0.0102675
0.0107357
0.0112569
0.0125229
0.0150754
0.0206431
0.0300351
0.0430398
5.2675e-08
4.28115e-06
5.41244e-05
0.000251378
0.000679791
0.00122757
0.00198774
0.00311693
0.00461524
0.00632472
0.00799629
0.00937016
0.010254
0.010719
0.0112369
0.0124984
0.0150531
0.0205912
0.0299529
0.0426468
5.42974e-08
4.37308e-06
5.23268e-05
0.000241192
0.000656223
0.00119995
0.00196553
0.00310701
0.00461903
0.00633518
0.00800241
0.00936323
0.0102322
0.0106899
0.0112038
0.0124597
0.0150233
0.0205225
0.0298386
0.04218
5.66076e-08
4.46221e-06
5.02952e-05
0.00023079
0.000633379
0.00117472
0.00194822
0.00310449
0.00463195
0.00635515
0.00801684
0.00936196
0.0102127
0.0106607
0.01117
0.0124199
0.014993
0.02045
0.0297265
0.0417859
5.93594e-08
4.53639e-06
4.83774e-05
0.000221813
0.000614422
0.00115534
0.00193921
0.00311224
0.00465608
0.0063861
0.00804092
0.00936808
0.0101976
0.0106337
0.0111375
0.0123809
0.014963
0.0203755
0.0296207
0.0414617
6.2621e-08
4.59505e-06
4.67515e-05
0.000214991
0.000600797
0.00114357
0.00194023
0.0031317
0.00469232
0.0064285
0.00807502
0.00938211
0.0101878
0.01061
0.0111074
0.0123439
0.0149341
0.0203003
0.0295249
0.0412019
6.66806e-08
4.64675e-06
4.55669e-05
0.000210865
0.000593543
0.00114073
0.00189219
0.00303206
0.00459196
0.00648242
0.00811911
0.00940423
0.0101839
0.0105903
0.0110806
0.0123099
0.0149067
0.0202256
0.0294427
0.041012
7.20464e-08
4.70771e-06
4.49882e-05
0.000210012
0.000593629
0.00111185
0.00168947
0.00276058
0.00421587
0.00610615
0.00817282
0.00943435
0.0101863
0.0105752
0.0110578
0.01228
0.0148817
0.0201525
0.029377
0.0408958
7.95064e-08
4.80139e-06
4.52178e-05
0.000213139
0.000602038
0.000989785
0.00153191
0.00253397
0.0038886
0.00567286
0.00812873
0.00947208
0.010195
0.0105654
0.0110398
0.012255
0.0148598
0.0200819
0.0293301
0.040852
9.02404e-08
4.95967e-06
4.65221e-05
0.000221147
0.000535301
0.000897801
0.00140933
0.00234408
0.00360088
0.005284
0.00758386
0.00951681
0.0102102
0.0105612
0.0110272
0.0122357
0.0148417
0.0200145
0.029303
0.0408631
1.0599e-07
5.22569e-06
4.92686e-05
0.000235195
0.000480676
0.000830202
0.0013167
0.00218921
0.00335097
0.00492667
0.00710002
0.0092639
0.0102315
0.0105629
0.0110207
0.0122229
0.014828
0.0199506
0.0292958
0.0409266
1.29305e-07
5.65892e-06
5.39829e-05
0.000256744
0.00044313
0.00078339
0.00125308
0.00207311
0.00314782
0.00460559
0.00666705
0.00878475
0.0102585
0.0105706
0.0110207
0.012217
0.0148194
0.0198906
0.0293071
0.0410406
1.63891e-07
6.34396e-06
6.14371e-05
0.000287585
0.00041919
0.000755794
0.00121381
0.00199061
0.00299019
0.00434207
0.00627047
0.00836088
0.0102905
0.0105843
0.0110275
0.0122186
0.0148165
0.0198346
0.0293345
0.0411805
2.15087e-07
7.40685e-06
7.27918e-05
0.000292933
0.000407166
0.000744745
0.00119447
0.00193522
0.00286909
0.00413191
0.00592284
0.00797913
0.0103267
0.0106037
0.0110413
0.0122277
0.0148199
0.0197825
0.0293747
0.041323
2.90519e-07
9.04317e-06
8.98117e-05
0.000286183
0.000405565
0.000747857
0.00119323
0.00190488
0.00278182
0.00396225
0.00564746
0.00763571
0.0103662
0.0106283
0.011062
0.012244
0.01483
0.0197345
0.0294243
0.0414466
4.00976e-07
1.15738e-05
0.00011519
0.000287598
0.000413286
0.000763902
0.00120784
0.00189645
0.00272658
0.00383413
0.00543379
0.00735088
0.0104076
0.0106576
0.0110894
0.0122671
0.0148474
0.0196905
0.0294795
0.0415277
5.61555e-07
1.5563e-05
0.000150833
0.000296393
0.000428889
0.000791469
0.00123705
0.00190843
0.00270024
0.00375044
0.00527094
0.00713989
0.0104496
0.0106908
0.011123
0.0122967
0.0148721
0.0196505
0.0295372
0.04154
7.9314e-07
2.20989e-05
0.000156539
0.000302188
0.000449075
0.000828557
0.00128283
0.001947
0.00271142
0.00371878
0.00517626
0.00700417
0.010491
0.0107269
0.0111621
0.0123321
0.0149045
0.0196144
0.0295944
0.041484
1.12423e-06
3.3578e-05
0.000153483
0.000309322
0.000472079
0.000869506
0.00133389
0.00200801
0.00277546
0.00376579
0.00517317
0.00694317
0.0105302
0.0107647
0.0112055
0.0123724
0.0149443
0.0195834
0.029649
0.0415322
1.59308e-06
5.64798e-05
0.000181325
0.000354666
0.000535446
0.000904149
0.00139035
0.00210013
0.00296891
0.0040365
0.00546435
0.0072194
0.0105657
0.0108025
0.0112517
0.0124165
0.0149919
0.0195608
0.029702
0.0428193
1.25651e-05
0.000163535
0.000338112
0.000615906
0.000957293
0.00144349
0.0021078
0.00293912
0.00404271
0.00535158
0.00703596
0.00912897
0.0105993
0.010843
0.0113032
0.0124664
0.0150498
0.0195379
0.0297559
0.0440226
0.000145754
0.000305536
0.000503258
0.000870598
0.00135996
0.00201498
0.00277834
0.00371274
0.00488727
0.00632841
0.00810512
0.0100793
0.0105953
0.0108477
0.0113314
0.0124936
0.0150459
0.0195289
0.0285874
0.0429248
0.000206244
0.000306798
0.000466133
0.000731465
0.00115166
0.00176463
0.0026048
0.00368191
0.00500729
0.00658525
0.00846544
0.0100644
0.0105905
0.010855
0.0113522
0.0125277
0.0150826
0.0195785
0.0278673
0.0421641
0.000261538
0.00035269
0.000514042
0.000783335
0.0011987
0.00180271
0.00263142
0.00369017
0.00499321
0.00656159
0.00847182
0.0100467
0.0105859
0.0108636
0.0113717
0.0125586
0.0151282
0.0196339
0.0274976
0.041383
0.000270558
0.00036781
0.00053273
0.0008081
0.00123894
0.00187523
0.00274696
0.00385869
0.00521535
0.0068378
0.00885366
0.0100232
0.0105782
0.0108696
0.0113878
0.012585
0.0151696
0.0197093
0.0273576
0.040595
0.00028573
0.000382883
0.00054964
0.00082847
0.00126972
0.00192185
0.00281502
0.00395414
0.00534485
0.00702743
0.009017
0.00999721
0.0105698
0.0108746
0.0114019
0.0126082
0.0152084
0.0198009
0.0273632
0.0398416
0.000289315
0.000389498
0.000561631
0.000850605
0.00131107
0.00199114
0.00292171
0.00410587
0.00555372
0.00734038
0.00896459
0.00996823
0.0105601
0.0108782
0.0114131
0.0126284
0.0152445
0.019902
0.0274898
0.0391483
0.000292806
0.00039809
0.000574036
0.000833774
0.00127307
0.00199139
0.00305844
0.00430637
0.00584845
0.00754504
0.00890689
0.00993608
0.0105496
0.0108808
0.0114219
0.0126452
0.0152774
0.0200044
0.0277323
0.0385334
0.000295328
0.000379389
0.000521728
0.000766016
0.00118647
0.00188678
0.00294929
0.0043401
0.00590301
0.00745894
0.00884495
0.00990197
0.0105384
0.0108823
0.0114285
0.0126588
0.0153065
0.0201006
0.028085
0.0380492
0.000264234
0.000339477
0.00046988
0.000698014
0.00109797
0.00177741
0.00282702
0.00421819
0.00579231
0.00736691
0.00877798
0.00986607
0.0105266
0.0108828
0.0114328
0.0126691
0.0153314
0.0201828
0.0285311
0.0378666
0.000233831
0.000300443
0.000418821
0.000630151
0.00100835
0.00166499
0.00269964
0.00408989
0.00567498
0.0072685
0.0087058
0.00982863
0.0105144
0.0108824
0.0114349
0.0126759
0.0153519
0.0202454
0.0290506
0.0380075
0.000204677
0.000262981
0.000369394
0.000563525
0.000918719
0.00155025
0.00256751
0.00395544
0.0055511
0.00716429
0.00863052
0.00978987
0.0105017
0.0108811
0.011435
0.0126791
0.0153686
0.0202863
0.0296158
0.0384438
0.000177254
0.000227651
0.000322394
0.000499403
0.000830861
0.00143511
0.00243204
0.0038158
0.00542168
0.00705569
0.00855366
0.00974999
0.0104886
0.0108789
0.0114332
0.0126791
0.0153832
0.0203115
0.0301752
0.0394049
0.000151762
0.000194687
0.000278263
0.000438552
0.000746107
0.00132164
0.00229563
0.00367322
0.00528885
0.00694454
0.008476
0.00970934
0.0104752
0.010876
0.01143
0.0126762
0.0153972
0.0203445
0.030716
0.0402203
0.000128282
0.000164231
0.000237223
0.000381346
0.000665275
0.00121137
0.00216046
0.00353008
0.00515509
0.00683351
0.00839824
0.00966846
0.0104619
0.0108728
0.0114259
0.0126706
0.0154106
0.0203899
0.0312147
0.0407042
0.000106898
0.00013637
0.000199315
0.000327932
0.000588827
0.00110534
0.00202819
0.00338836
0.00502225
0.00672392
0.00832132
0.00962786
0.0104489
0.0108695
0.0114214
0.0126634
0.0154238
0.0204518
0.0315879
0.0415573
8.76801e-05
0.000111087
0.00016448
0.00027831
0.000517032
0.00100431
0.00190019
0.00324993
0.00489243
0.00661682
0.00824614
0.00958799
0.0104366
0.0108664
0.0114173
0.0126558
0.0154366
0.0205341
0.0316246
0.0446892
7.06622e-05
8.83491e-05
0.000132675
0.000232478
0.000450156
0.000909062
0.00177779
0.00311648
0.00476724
0.00651352
0.00817355
0.00954907
0.0104247
0.0108635
0.0114139
0.0126488
0.015449
0.0206107
0.0315452
0.0479599
5.6071e-05
6.83586e-05
0.000104203
0.000190847
0.000388686
0.000820365
0.0016623
0.00298985
0.00464829
0.00641518
0.00810423
0.00951134
0.0104132
0.0108604
0.0114108
0.0126423
0.0154594
0.0206656
0.0314209
0.0504178
4.51649e-05
5.20922e-05
8.0153e-05
0.000154849
0.000334362
0.000740593
0.00155703
0.00287355
0.00453843
0.00632361
0.00803903
0.00947436
0.0104001
0.0108546
0.0114063
0.0126362
0.0154633
0.0206962
0.031327
0.0501718
8.03242e-07
4.69706e-05
0.000148677
0.000190742
0.000208829
0.000223501
0.000228809
0.000232126
0.000247583
0.000225838
0.000204068
0.000182555
0.000161686
0.000141671
0.000122627
0.000104662
8.78968e-05
7.24432e-05
5.87603e-05
4.93556e-05
3.23365e-07
2.50183e-05
0.000124906
0.000152079
0.000171263
0.00018295
0.000188777
0.000192499
0.00020736
0.000198894
0.000184431
0.000169466
0.000154289
0.000139066
0.00012385
0.000108715
9.38309e-05
7.94833e-05
6.67334e-05
6.04065e-05
1.4186e-07
1.42465e-05
0.000101986
0.000133637
0.000149352
0.00015748
0.000162295
0.000165841
0.000176492
0.000177072
0.00016859
0.000159404
0.000149626
0.000139406
0.000128766
0.000117637
0.000105932
9.36487e-05
8.16833e-05
7.80881e-05
6.0713e-08
8.19994e-06
6.84375e-05
0.000126283
0.000138399
0.000142992
0.000145898
0.000147852
0.000153324
0.00015795
0.000153848
0.000149337
0.000144286
0.00013889
0.000133274
0.000127322
0.000120579
0.000112317
0.000101966
9.92903e-05
2.74511e-08
4.59528e-06
4.50726e-05
0.000116718
0.000137771
0.000139729
0.000139872
0.000138711
0.000138912
0.000140915
0.000139295
0.000137821
0.000136103
0.000134311
0.00013278
0.00013169
0.000130637
0.000128659
0.000124523
0.000120742
1.5192e-08
2.40441e-06
2.64972e-05
8.78965e-05
0.000127066
0.000135204
0.000133841
0.000130953
0.000128483
0.000126794
0.000125949
0.0001257
0.000125584
0.000125544
0.000125956
0.000127243
0.000129368
0.000132201
0.000133861
0.000124555
8.96385e-09
1.30542e-06
1.49084e-05
5.70459e-05
0.000102802
0.000121236
0.00012337
0.000121207
0.000118684
0.000116742
0.000115609
0.000115194
0.000115218
0.000115393
0.000115693
0.00011622
0.000116778
0.000117144
0.000111192
0.000100321
5.40723e-09
7.39646e-07
8.56623e-06
3.49013e-05
7.51442e-05
0.000103632
0.000113525
0.000114368
0.000112552
0.000110405
0.000108657
0.000107447
0.000106718
0.00010619
0.000105518
0.000104496
0.000102466
9.71709e-05
8.79626e-05
7.61736e-05
3.30428e-09
4.38977e-07
5.1214e-06
2.12903e-05
5.1058e-05
8.21182e-05
0.000100797
0.000107598
0.000108443
0.000107142
0.000105327
0.000103601
0.000102206
0.000100987
9.96318e-05
9.78785e-05
9.52282e-05
8.76215e-05
7.61109e-05
6.30327e-05
2.02581e-09
2.66883e-07
3.12665e-06
1.30191e-05
3.31333e-05
6.00259e-05
8.37096e-05
9.79647e-05
0.000104068
0.000105564
0.000104974
0.000103652
0.000102314
0.000101117
9.96488e-05
9.75456e-05
9.20888e-05
8.18208e-05
6.90432e-05
5.52815e-05
1.23339e-09
1.64654e-07
1.95977e-06
8.10021e-06
2.10051e-05
4.07045e-05
6.30397e-05
8.20109e-05
9.44504e-05
0.000100979
0.000103663
0.000104302
0.000103867
9.87676e-05
9.39259e-05
8.93398e-05
8.7464e-05
7.53636e-05
6.1841e-05
4.82198e-05
7.36323e-10
1.00968e-07
1.23658e-06
5.09736e-06
1.31644e-05
2.60748e-05
4.28059e-05
6.05e-05
7.58796e-05
8.7088e-05
9.40247e-05
9.75998e-05
9.86314e-05
9.74732e-05
9.41754e-05
8.77438e-05
7.72071e-05
6.45783e-05
5.17621e-05
3.96765e-05
4.24802e-10
6.04472e-08
7.74134e-07
3.22233e-06
8.24179e-06
1.62555e-05
2.70724e-05
3.96937e-05
5.25038e-05
6.37979e-05
7.23988e-05
7.78749e-05
8.02672e-05
7.9754e-05
7.63817e-05
6.92639e-05
5.96622e-05
4.91659e-05
3.90184e-05
2.97567e-05
2.3355e-10
3.47561e-08
4.73064e-07
2.02417e-06
5.16266e-06
1.00669e-05
1.66417e-05
2.44601e-05
3.27863e-05
4.0699e-05
4.73198e-05
5.19883e-05
5.43411e-05
5.42786e-05
5.17889e-05
4.65622e-05
3.99797e-05
3.29362e-05
2.61267e-05
1.99418e-05
1.20138e-10
1.87297e-08
2.74998e-07
1.23662e-06
3.19295e-06
6.19023e-06
1.01115e-05
1.46952e-05
1.95501e-05
2.41952e-05
2.81384e-05
3.0961e-05
3.23853e-05
3.22903e-05
3.05493e-05
2.75176e-05
2.36672e-05
1.94389e-05
1.52849e-05
1.15852e-05
5.57458e-11
9.03331e-09
1.44457e-07
7.00893e-07
1.87544e-06
3.66971e-06
5.97016e-06
8.59305e-06
1.13002e-05
1.38238e-05
1.59011e-05
1.73133e-05
1.79212e-05
1.7668e-05
1.64629e-05
1.45679e-05
1.21966e-05
9.67387e-06
7.33541e-06
5.42899e-06
2.13921e-11
3.53604e-09
6.15619e-08
3.31187e-07
9.51412e-07
1.92924e-06
3.17742e-06
4.56578e-06
5.94433e-06
7.16015e-06
8.07578e-06
8.5874e-06
8.63651e-06
8.20162e-06
7.21254e-06
5.94068e-06
4.61016e-06
3.41286e-06
2.4545e-06
1.76318e-06
5.63008e-12
9.23952e-10
1.65154e-08
1.00507e-07
3.18204e-07
6.83908e-07
1.15058e-06
1.64343e-06
2.0867e-06
2.41717e-06
2.59132e-06
2.58907e-06
2.41037e-06
2.05446e-06
1.61231e-06
1.20707e-06
8.74128e-07
6.18404e-07
4.32531e-07
3.04889e-07
8.92344e-13
1.443e-10
1.98459e-09
9.82528e-09
3.32557e-08
7.3699e-08
1.22228e-07
1.68975e-07
2.04898e-07
2.23964e-07
2.23891e-07
2.05877e-07
1.73577e-07
1.32828e-07
1.00316e-07
7.45397e-08
5.42637e-08
3.84031e-08
2.62888e-08
1.74547e-08
6.97649e-14
6.65093e-12
3.15192e-11
1.01472e-10
2.59694e-10
5.59995e-10
9.52167e-10
1.31836e-09
1.56001e-09
1.62758e-09
1.52147e-09
1.28795e-09
1.0056e-09
8.06062e-10
6.44546e-10
5.07466e-10
3.90539e-10
2.92162e-10
2.11696e-10
1.47939e-10
)
;

boundaryField
{
    right
    {
        type            cyclic;
    }
    left
    {
        type            cyclic;
    }
    outerWall
    {
        type            nutkWallFunction;
        Cmu             0.09;
        kappa           0.41;
        E               9.8;
        value           nonuniform List<scalar> 
60
(
4.50022e-05
2.03673e-05
0
0
0
0
0
0
5.79992e-07
5.32811e-06
3.32464e-06
0
0
0
0
0
0
0
0
0
0
0
0
0
0
0
0
0
0
0
0
0
0
0
0
0
0
0
0
0
0
0
0
0
0
0
0
0
0
0
0
0
0
0
0
0
0
0
6.94462e-05
5.66523e-05
)
;
    }
    stirrerWall
    {
        type            nutkWallFunction;
        Cmu             0.09;
        kappa           0.41;
        E               9.8;
        value           uniform 0;
    }
    top
    {
        type            empty;
    }
    bottom
    {
        type            empty;
    }
}


// ************************************************************************* //
