/*--------------------------------*- C++ -*----------------------------------*\
  =========                 |
  \\      /  F ield         | OpenFOAM: The Open Source CFD Toolbox
   \\    /   O peration     | Website:  https://openfoam.org
    \\  /    A nd           | Version:  10
     \\/     M anipulation  |
\*---------------------------------------------------------------------------*/
FoamFile
{
    format      ascii;
    class       volScalarField;
    location    "800";
    object      nut;
}
// * * * * * * * * * * * * * * * * * * * * * * * * * * * * * * * * * * * * * //

dimensions      [0 2 -1 0 0 0 0];

internalField   nonuniform List<scalar> 
420
(
1.04478e-20
6.43717e-20
1.80233e-19
3.29785e-19
4.91822e-19
6.45685e-19
7.38484e-19
7.13638e-19
6.17595e-19
5.25022e-19
1.04473e-20
6.47073e-20
1.84509e-19
3.43489e-19
5.1673e-19
6.77843e-19
7.52172e-19
6.94715e-19
5.82937e-19
4.85754e-19
1.04471e-20
6.47626e-20
1.89077e-19
3.59034e-19
5.4293e-19
7.06894e-19
7.61092e-19
6.79967e-19
5.51464e-19
4.44944e-19
1.04472e-20
6.46091e-20
1.90469e-19
3.66966e-19
5.53168e-19
7.10992e-19
7.55776e-19
6.63088e-19
5.19566e-19
4.01231e-19
1.04476e-20
6.43792e-20
1.871e-19
3.5595e-19
5.25511e-19
6.65017e-19
7.13356e-19
6.3213e-19
4.83126e-19
3.53123e-19
1.04483e-20
6.3739e-20
1.74107e-19
3.07614e-19
4.33067e-19
5.38508e-19
5.90482e-19
5.52062e-19
4.31361e-19
2.98082e-19
1.04493e-20
6.05028e-20
1.39165e-19
2.12729e-19
2.79773e-19
3.41989e-19
3.87277e-19
3.92916e-19
3.39327e-19
2.32776e-19
1.04506e-20
4.77551e-20
8.00907e-20
1.05818e-19
1.31696e-19
1.5876e-19
1.84618e-19
2.03305e-19
2.01567e-19
1.54544e-19
1.04522e-20
2.14823e-20
2.79762e-20
3.47402e-20
4.21761e-20
5.03079e-20
5.89936e-20
6.77757e-20
7.46849e-20
7.18006e-20
2.82342e-21
3.6643e-21
4.61494e-21
5.67535e-21
6.84552e-21
8.12545e-21
9.51514e-21
1.10146e-20
1.26238e-20
1.43428e-20
4.68776e-19
4.62502e-19
5.77096e-19
9.12995e-19
1.16762e-18
1.03793e-18
6.84014e-19
4.50776e-19
2.19212e-19
8.53381e-20
4.28311e-19
4.2475e-19
5.36342e-19
9.0151e-19
1.16591e-18
1.03604e-18
6.89074e-19
4.53152e-19
2.16986e-19
8.68816e-20
3.83127e-19
3.81128e-19
4.88394e-19
8.83917e-19
1.1623e-18
1.03816e-18
6.94219e-19
4.56362e-19
2.16668e-19
8.67867e-20
3.33934e-19
3.33721e-19
4.39961e-19
8.64368e-19
1.15854e-18
1.04482e-18
7.01103e-19
4.63167e-19
2.17543e-19
8.71991e-20
2.81146e-19
2.84238e-19
4.02043e-19
8.44488e-19
1.1071e-18
1.05488e-18
7.09709e-19
4.7277e-19
2.1899e-19
8.74029e-20
2.25476e-19
2.34768e-19
3.63848e-19
8.25633e-19
1.05342e-18
1.06694e-18
7.26915e-19
4.84357e-19
2.22049e-19
8.74335e-20
1.68519e-19
1.87576e-19
3.27566e-19
8.11704e-19
1.04611e-18
1.07995e-18
7.46217e-19
4.97855e-19
2.30702e-19
8.73704e-20
1.13593e-19
1.44732e-19
2.95497e-19
8.03829e-19
1.05783e-18
1.07699e-18
7.66895e-19
5.12336e-19
2.40023e-19
8.72183e-20
6.58033e-20
1.07902e-19
2.70443e-19
8.05521e-19
1.08939e-18
1.10387e-18
7.87924e-19
5.26694e-19
2.48693e-19
8.70094e-20
3.01591e-20
7.87919e-20
2.59873e-19
8.20588e-19
1.1187e-18
1.11985e-18
8.07067e-19
5.3938e-19
2.54588e-19
8.63884e-20
1.03958e-20
6.30979e-20
3.1354e-19
8.58552e-19
1.02901e-18
1.09405e-18
7.7858e-19
5.47311e-19
2.55951e-19
8.62967e-20
1.03958e-20
7.74475e-20
4.06356e-19
7.60322e-19
9.08316e-19
9.06988e-19
6.54938e-19
5.55612e-19
2.7136e-19
8.67324e-20
5.2622e-20
2.06682e-19
6.08228e-19
7.82856e-19
9.4501e-19
9.2808e-19
6.72327e-19
5.60373e-19
2.62622e-19
8.6168e-20
2.48978e-19
5.04978e-19
6.8756e-19
8.27597e-19
1.02067e-18
1.01864e-18
6.99584e-19
5.58302e-19
2.50322e-19
8.48011e-20
5.68413e-19
6.60299e-19
6.8054e-19
8.07244e-19
1.01154e-18
9.99873e-19
6.68631e-19
5.55064e-19
2.56956e-19
8.37852e-20
7.0915e-19
7.01305e-19
6.82636e-19
8.09431e-19
1.03211e-18
1.01185e-18
6.49984e-19
5.48916e-19
2.5371e-19
8.22131e-20
7.13593e-19
6.75982e-19
6.78174e-19
8.15494e-19
1.07157e-18
1.05283e-18
6.53189e-19
5.3927e-19
2.57065e-19
8.05986e-20
6.80014e-19
6.38681e-19
6.7285e-19
8.53629e-19
1.11356e-18
1.08732e-18
6.72434e-19
5.26463e-19
2.65634e-19
7.94288e-20
6.37821e-19
6.0371e-19
6.59137e-19
8.74751e-19
1.13854e-18
1.11939e-18
6.81351e-19
5.10801e-19
2.60995e-19
7.90466e-20
5.95039e-19
5.72193e-19
6.44741e-19
8.94531e-19
1.17313e-18
1.06145e-18
6.52172e-19
4.92501e-19
2.52774e-19
8.01087e-20
5.54943e-19
5.41784e-19
6.3097e-19
9.16216e-19
1.15172e-18
8.46895e-19
5.15719e-19
4.72404e-19
2.39855e-19
8.02692e-20
5.12297e-19
5.06914e-19
6.07747e-19
9.18183e-19
1.20272e-18
9.30365e-19
6.22249e-19
4.5342e-19
2.25345e-19
8.18996e-20
1.43428e-20
1.12124e-19
4.08046e-19
6.82374e-19
7.61473e-19
7.50309e-19
7.09662e-19
6.63565e-19
6.19035e-19
5.7113e-19
1.26238e-20
8.54426e-20
2.97851e-19
5.91909e-19
7.56676e-19
7.98971e-19
7.8706e-19
7.52353e-19
7.0739e-19
6.61354e-19
1.10146e-20
6.92979e-20
2.1985e-19
4.4964e-19
6.56237e-19
7.59636e-19
7.94214e-19
7.93054e-19
7.71461e-19
7.40906e-19
9.51514e-21
5.38492e-20
1.52793e-19
3.10492e-19
4.97078e-19
6.35298e-19
7.09334e-19
7.3986e-19
7.43223e-19
7.347e-19
8.12545e-21
4.52128e-20
1.20129e-19
2.27788e-19
3.54447e-19
4.7834e-19
5.71027e-19
6.20429e-19
6.35931e-19
6.3407e-19
6.84552e-21
3.87311e-20
1.01881e-19
1.8597e-19
2.78684e-19
3.6659e-19
4.37021e-19
4.76578e-19
4.89004e-19
4.85793e-19
5.67535e-21
3.278e-20
8.74482e-20
1.5652e-19
2.24393e-19
2.79616e-19
3.16161e-19
3.31581e-19
3.32983e-19
3.27907e-19
4.61494e-21
2.68296e-20
7.08822e-20
1.18532e-19
1.53201e-19
1.72493e-19
1.80457e-19
1.81694e-19
1.80442e-19
1.78746e-19
3.6643e-21
2.07094e-20
4.36002e-20
5.60589e-20
6.12249e-20
6.31795e-20
6.37519e-20
6.40568e-20
6.44104e-20
6.44907e-20
2.82342e-21
1.04522e-20
1.04506e-20
1.04493e-20
1.04483e-20
1.04476e-20
1.04472e-20
1.04471e-20
1.04473e-20
1.04478e-20
)
;

boundaryField
{
    right
    {
        type            cyclic;
    }
    left
    {
        type            cyclic;
    }
    outerWall
    {
        type            nutkWallFunction;
        Cmu             0.09;
        kappa           0.41;
        E               9.8;
        value           uniform 0;
    }
    stirrerWall
    {
        type            nutkWallFunction;
        Cmu             0.09;
        kappa           0.41;
        E               9.8;
        value           uniform 0;
    }
    top
    {
        type            empty;
    }
    bottom
    {
        type            empty;
    }
}


// ************************************************************************* //
