/*--------------------------------*- C++ -*----------------------------------*\
  =========                 |
  \\      /  F ield         | OpenFOAM: The Open Source CFD Toolbox
   \\    /   O peration     | Website:  https://openfoam.org
    \\  /    A nd           | Version:  10
     \\/     M anipulation  |
\*---------------------------------------------------------------------------*/
FoamFile
{
    format      ascii;
    class       volScalarField;
    location    "800";
    object      omega;
}
// * * * * * * * * * * * * * * * * * * * * * * * * * * * * * * * * * * * * * //

dimensions      [0 0 -1 0 0 0 0];

internalField   nonuniform List<scalar> 
2000
(
86814.7
23689.9
9585.64
5230.62
3432.72
2561.78
2069.88
1757.75
1555.38
1437.41
1385.27
1375.14
1362.22
1349.09
1370.99
1378.85
1416.19
1448.68
1448.3
1429.84
86817.5
21720.8
9263.36
5236.36
3523.12
2669.6
2176.22
1856.32
1641.05
1505.27
1433.26
1405.15
1377.23
1339.24
1327.97
1361.37
1450.73
1485.04
1482.61
1463
86819.6
20335.6
9162.42
5325.61
3642.46
2784.01
2280.48
1948.87
1719.14
1564.74
1471.25
1421.65
1383.38
1341.76
1318.03
1342.95
1448.1
1499.24
1503.74
1489.9
86821.1
19559.2
9195.85
5509.87
3822.01
2932.33
2403.55
2052.86
1804.89
1629.85
1513.44
1441.51
1391.16
1348.29
1320.98
1332.22
1422.33
1492.88
1512.45
1510.74
86821.9
18970.5
9164.06
5687.12
4023.56
3105.25
2545.06
2170.03
1901.61
1705.77
1566.94
1473.32
1408.66
1360.29
1328.62
1328.7
1402.22
1482.63
1515.33
1528.63
86822.2
18256
8934.8
5761.92
4192.52
3277.63
2695.37
2296.89
2007.78
1791.86
1632.01
1518.06
1437.82
1379.92
1340.92
1326.51
1377.97
1469.76
1516.2
1546.79
86821.8
17417.4
8483.43
5673.34
4271.3
3409.8
2831.37
2420.54
2115.69
1883.15
1705.35
1572.97
1476.76
1407.41
1360.19
1333.15
1358.07
1450.19
1515.17
1568.67
86820.7
16581.6
7842.48
5397.73
4213.36
3456.15
2917.96
2516.48
2208.36
1967.38
1778.13
1632.36
1522.78
1442.62
1387.78
1352.58
1360.23
1444.06
1526.42
1605.1
86819.1
15789.9
7064.28
4943.56
3995.53
3380.5
2918.91
2554.53
2262.37
2026.81
1837.87
1687.56
1570.97
1483.92
1423.78
1384.53
1384.44
1462.82
1561.93
1668.62
86816.8
15140.3
6335.75
4374.37
3637.48
3176.4
2815.72
2513.36
2258.66
2047.05
1872.12
1728.5
1614.33
1526.88
1466.97
1428.62
1426.25
1506.47
1628.9
1775.25
86813.9
14899.5
5814.11
3876.88
3233.39
2894.27
2630.77
2400.65
2196.82
2020.47
1872.03
1747.95
1647.14
1569.72
1519.32
1487.69
1493.41
1588.65
1752.97
1955.32
86810.3
14757.6
5504.64
3607.45
2984.47
2661.42
2442.11
2261.23
2100.3
1960.2
1845.06
1751.63
1676.82
1622.81
1592.38
1580.01
1617.26
1758.43
1991.4
2261.82
86806.2
14527.6
5484.9
3610.71
2998.04
2624.17
2353.19
2160.49
2012.95
1899.89
1823.36
1774.22
1742.34
1727.84
1738.24
1775.09
1877.1
2099.39
2418.97
2745.53
86801.4
14331.3
5637.81
3949.36
3295.7
2809.11
2433.06
2148.03
1963.03
1863.68
1837.02
1856.51
1896.74
1951.86
2043.79
2189.64
2391.67
2694.9
3079.05
3398.6
86796
14297.9
6140.02
4624.9
3888.25
3260.54
2753.49
2344.15
2024.74
1896.47
1890.58
1958.76
2090.39
2257.4
2480.05
2774.08
3090.33
3445.28
3822.14
4131.58
86790.1
14686.6
7319.67
5907.97
4957.79
4057.42
3356.8
2850.82
2417.21
2213
2185.75
2250.17
2333.84
2451.9
2694.44
3062.93
3505.67
4000.77
4575.18
5258.55
86783.5
16221.7
10045.5
8601.04
7247.91
5833.6
4668.32
3876.61
3369.81
2991.54
2814.03
2765.91
2795.99
2899.81
3086.68
3377.45
3801.87
4455.35
5558.09
6768.09
86776.4
21995.9
17404.4
15477.3
13357.7
11078.1
9116.63
7891.86
6876.98
5953.06
5369.93
5066.1
4960.86
4875.96
4753.37
4747.08
5016.5
5841.02
8014.16
9559.64
86768.7
51783.1
45412.9
40450
35836.9
31373
27509
24733.8
22192.1
19681
17732.1
16368.4
15533.6
14652.3
13601.5
12836.9
12345.4
12289.8
15056.6
16367
338081
294034
258064
228311
203421
182390
164459
149047
135704
124076
113880
104892
96926.8
89835.7
83495.2
77802.9
72673.5
68035.1
63826.9
59997.5
1420.2
1435.8
1461.23
1436.83
1300.88
1057.24
801.048
616.283
506.639
443.212
409.399
404.607
440.262
535.459
726.867
1086.62
1773.84
3156.61
6239.76
14006
1453.72
1474.07
1508.44
1491.09
1351.77
1094.38
823.34
629.077
514.501
448.118
412.22
405.863
440.407
534.769
725.715
1085.5
1773.37
3153.41
6225.64
14005.7
1486.6
1514.94
1559.33
1547.46
1401
1126.72
840.952
639.071
521.073
452.492
414.891
407.205
440.815
534.446
724.998
1084.77
1773.48
3151.71
6213.54
14005.5
1518.73
1558.96
1614.76
1606.43
1448.2
1153.53
853.53
646.307
526.457
456.343
417.323
408.497
441.335
534.32
724.566
1084.33
1774.11
3151.85
6204.65
14005.4
1552.2
1608.26
1676.84
1668.82
1491.98
1172.64
859.714
650.202
530.377
459.504
419.419
409.675
441.923
534.358
724.404
1084.15
1775.2
3153.72
6199.61
14005.3
1590.08
1666.3
1748.5
1735.13
1529.85
1181.22
858.159
650.406
532.767
461.944
421.157
410.731
442.574
534.563
724.51
1084.24
1776.65
3156.88
6197.83
14005.3
1637.56
1738.71
1833.85
1805.16
1557.91
1176.21
848.087
646.971
533.694
463.646
422.501
411.63
443.256
534.911
724.855
1084.57
1778.37
3160.86
6198.78
14005.4
1704.32
1834.04
1937.86
1877.16
1570.69
1154.98
829.584
640.318
533.24
464.59
423.39
412.316
443.916
535.351
725.389
1085.08
1780.24
3165.15
6201.29
14005.6
1803.73
1964.1
2065.76
1946.28
1561.45
1116.39
804.045
631.316
531.632
464.826
423.816
412.767
444.514
535.839
726.045
1085.71
1782.18
3169.3
6203.93
14005.8
1955.1
2144.37
2221.3
2003.29
1524.15
1062.32
774.289
621.137
529.141
464.373
423.829
412.989
445.023
536.338
726.755
1086.4
1784.1
3172.99
6205.47
14006.1
2187.22
2393.17
2402.87
2034.39
1456.74
998.233
743.768
610.757
525.932
463.26
423.491
412.996
445.418
536.817
727.452
1087.1
1785.98
3176.15
6205.19
14006.5
2537.12
2723.15
2598.16
2026.75
1365.62
932.258
715.37
600.655
522.06
461.518
422.835
412.813
445.682
537.247
728.065
1087.75
1787.73
3178.91
6202.9
14006.9
3026.11
3129.32
2792.65
1986.03
1268.27
872.769
690.985
591.267
517.79
459.311
421.864
412.504
445.819
537.613
728.533
1088.3
1789.22
3181.38
6198.46
14007.5
3638.43
3613.19
3005.89
1947.62
1185.13
825.075
672.055
583.311
513.661
456.962
420.707
412.139
445.841
537.91
728.807
1088.7
1790.35
3183.52
6190.8
14008.1
4403.19
4268.49
3257.36
1950.79
1128.51
792.821
659.048
577.191
510.078
454.77
419.52
411.776
445.762
538.137
728.844
1088.95
1790.97
3185.46
6179.57
14008.7
5710.44
5219.68
3619.5
1976.55
1096.96
775.68
651.414
573.12
507.344
452.959
418.443
411.413
445.587
538.3
728.616
1089.03
1790.95
3188.58
6171.51
14009.5
7673.32
6657.65
4145.62
2047.69
1082.3
766.214
647.918
571.014
505.52
451.609
417.562
411.119
445.35
538.412
728.103
1088.95
1790
3192.87
6164.79
14010.3
11050.6
8774.46
4812.44
2137.72
1076.68
762.869
647.314
570.608
504.584
450.747
416.915
410.939
445.078
538.479
727.264
1088.71
1787.08
3198.74
6154.44
14011.1
17816.8
11865.3
5575.04
2214.38
1072.31
763.368
649.227
571.589
504.487
450.389
416.548
410.922
444.819
538.527
726.098
1088.28
1780.94
3207.07
6137.55
14012.1
34760.5
16500.1
6316.16
2244.75
1064.2
766.977
654.103
574.369
505.52
450.723
416.605
411.197
444.712
538.663
724.748
1085.86
1772.72
3206.11
6118.97
14013.1
85702.6
21926.3
6328.45
2078.14
1016.87
765.168
659.045
578.098
507.718
452
417.454
412.09
445.192
539.251
723.996
1083.02
1764.48
3194.9
6045.27
14005.5
85639
22304.9
6352.37
2073.14
1017.32
766.164
659.513
577.973
507.53
451.957
417.554
412.268
445.255
539.105
723.693
1081.68
1762.39
3188.34
6038.12
13999.8
85582.4
22329.8
6415.99
2092.06
1023.55
767.468
659.069
576.753
506.488
451.418
417.476
412.461
445.45
539.117
723.662
1080.56
1760.66
3180.75
6035.52
13994.6
85533
22245
6466.02
2107.95
1028.86
768.168
658.05
575.008
505.049
450.641
417.305
412.669
445.741
539.297
723.81
1079.66
1759.12
3173.08
6035.44
13990.2
85490.7
22140.8
6489.66
2113.63
1031.47
767.893
656.368
572.713
503.197
449.603
417.01
412.867
446.118
539.655
724.134
1079.03
1757.76
3165.56
6037.54
13986.4
85455.4
22038.8
6478.26
2105.55
1030.56
766.463
653.953
569.84
500.914
448.285
416.576
413.04
446.571
540.18
724.639
1078.67
1756.54
3158.25
6041.81
13983.2
85427.3
21932.4
6424.06
2081.63
1025.75
763.783
650.767
566.382
498.199
446.685
415.995
413.179
447.09
540.853
725.338
1078.59
1755.47
3151.19
6048.23
13980.6
85406.1
21801.3
6319.69
2040.64
1016.9
759.805
646.787
562.345
495.063
444.808
415.263
413.275
447.666
541.662
726.234
1078.81
1754.54
3144.35
6056.75
13978.7
85392
21619.3
6158.61
1982.17
1004.06
754.515
642
557.744
491.523
442.663
414.382
413.323
448.292
542.594
727.323
1079.3
1753.74
3137.68
6067.25
13977.4
85385
21356.2
5935.65
1906.7
987.48
747.933
636.41
552.601
487.602
440.265
413.354
413.318
448.957
543.639
728.599
1080.06
1753.05
3131.12
6079.56
13976.8
85385
20978.7
5647.69
1815.71
967.584
740.113
630.026
546.943
483.327
437.632
412.186
413.257
449.653
544.785
730.053
1081.08
1752.48
3124.6
6093.43
13976.8
85392
20451.1
5294.41
1711.7
944.952
731.131
622.893
540.825
478.738
434.781
410.886
413.136
450.371
546.02
731.673
1082.35
1752.01
3118.02
6108.59
13977.4
85406.1
19735.6
4879.16
1598.17
920.255
721.113
615.103
534.335
473.901
431.746
409.466
412.954
451.102
547.33
733.446
1083.85
1751.62
3111.3
6124.77
13978.7
85427.3
18791.8
4409.62
1479.45
894.25
710.249
606.774
527.57
468.887
428.578
407.938
412.713
451.838
548.7
735.355
1085.55
1751.31
3104.35
6141.67
13980.6
85455.4
17580
3898.67
1360.4
867.731
698.764
598.06
520.643
463.773
425.323
406.324
412.412
452.571
550.116
737.381
1087.37
1751.1
3097.08
6159.04
13983.2
85490.7
16064.7
3364.63
1246.02
841.455
686.931
589.155
513.691
458.651
422.033
404.657
412.055
453.292
551.561
739.502
1089.25
1751
3089.42
6176.7
13986.4
85533
14220
2830.86
1140.93
816.11
675.069
580.288
506.867
453.621
418.771
402.969
411.65
453.993
553.015
741.696
1091.16
1750.99
3081.28
6194.51
13990.2
85582.4
12037.4
2324.24
1048.93
792.288
663.532
571.713
500.336
448.793
415.604
401.293
411.208
454.668
554.461
743.936
1093.07
1751.05
3072.54
6212.34
13994.6
85639
9535.02
1872.28
972.002
770.411
652.689
563.712
494.284
444.289
412.612
399.674
410.746
455.312
555.878
746.197
1094.93
1751.18
3063.23
6230.14
13999.8
85702.6
6771.34
1498.84
910.664
750.85
642.895
556.536
488.892
440.253
409.893
398.168
410.286
455.919
557.247
748.449
1096.74
1751.44
3053.67
6248.48
14005.5
17043.7
2890.3
1152.87
856.053
731.692
633.078
549.532
483.758
436.47
407.334
396.715
409.796
456.47
558.567
750.679
1098.33
1751.48
3041.83
6268.95
14013.1
2595.58
1275.27
960.578
825.766
721.038
625.79
543.01
477.961
432.064
404.254
394.832
408.765
456.683
559.386
752.724
1100.59
1746.77
3019.52
6149.19
14012.1
1245.76
1048.21
929.084
825.252
724.046
627.179
542.273
476.182
430.269
402.851
393.88
408.22
456.725
559.976
754.029
1103.69
1747.93
3006.36
6047.56
14011.1
1083.42
1003.18
917.154
823.941
725.552
628.026
541.822
475.074
429.166
401.97
393.219
407.785
456.671
560.361
755.098
1105.99
1751.6
2995.35
5972.15
14010.3
1059.94
996.071
918.684
829.351
730.81
631.181
542.774
474.772
428.49
401.272
392.548
407.162
456.273
560.266
755.546
1107.62
1755.38
2989.46
5914.08
14009.5
1056.58
999.716
927.237
839.664
739.778
637.049
545.541
475.639
428.544
400.988
392.042
406.503
455.655
559.816
755.53
1108.77
1759.53
2988.48
5863.17
14008.7
1064.4
1011.2
941.65
854.49
752.328
645.437
549.908
477.483
429.183
401.027
391.648
405.802
454.824
559.015
755.029
1109.44
1763.91
2992.02
5816.72
14008.1
1078.47
1028.32
960.951
873.759
768.552
656.467
555.98
480.378
430.459
401.418
391.397
405.102
453.827
557.917
754.102
1109.63
1768.35
2999.67
5774.93
14007.5
1096.77
1049.58
984.38
897.105
788.256
670.077
563.731
484.303
432.358
402.165
391.329
404.402
452.678
556.545
752.79
1109.32
1772.6
3011.16
5738.5
14006.9
1118.24
1074.3
1011.7
924.3
811.337
686.246
573.154
489.228
434.851
403.283
391.489
403.723
451.409
554.935
751.121
1108.53
1776.41
3026.37
5707.01
14006.5
1144.25
1103.63
1043.81
956.103
838.413
705.258
584.311
495.175
437.986
404.826
391.913
403.089
450.054
553.125
749.128
1107.21
1779.51
3045.17
5684.67
14006.1
1173.63
1136.55
1079.9
992.355
869.806
727.566
597.489
502.288
441.844
406.831
392.556
402.516
448.645
551.159
746.859
1105.4
1781.59
3066.55
5674.31
14005.8
1204.57
1171.34
1118.7
1032.36
905.185
753.135
612.782
510.636
446.451
409.292
393.396
402.025
447.217
549.082
744.38
1103.19
1782.63
3090.08
5683.09
14005.6
1235.75
1206.93
1159.59
1075.66
944.28
781.799
630.094
520.166
451.765
412.178
394.445
401.646
445.812
546.952
741.771
1100.68
1782.46
3111.89
5695.54
14005.4
1266.31
1242.74
1202.15
1121.98
986.965
813.466
649.319
530.787
457.717
415.411
395.725
401.413
444.482
544.836
739.123
1097.98
1781.15
3130.52
5722.93
14005.3
1295.71
1278.33
1245.88
1171.05
1033.14
848.07
670.367
542.42
464.268
418.993
397.254
401.358
443.276
542.806
736.546
1095.32
1779.12
3145.3
5791.96
14005.3
1323.29
1312.98
1290.19
1222.56
1082.7
885.525
693.138
554.968
471.329
422.917
399.039
401.507
442.24
540.933
734.154
1092.91
1776.98
3156.46
5974.2
14005.4
1348.22
1346.01
1334.7
1276.31
1135.53
925.724
717.512
568.344
478.856
427.165
401.074
401.871
441.41
539.281
732.05
1090.96
1775.65
3162.74
6143.79
14005.5
1370.72
1377.49
1379.57
1332.35
1191.52
968.511
743.334
582.426
486.798
431.697
403.339
402.461
440.833
537.916
730.304
1089.53
1775.09
3162.34
6257.23
14005.7
1399.15
1410.62
1425.73
1390.99
1250.98
1014.05
770.657
597.256
495.177
436.52
405.832
403.257
440.459
536.768
728.857
1088.6
1774.79
3158.64
6250.93
14006
59997.5
5935.99
1586.42
1167.73
1111.53
1100.13
1104.47
1116.33
1132.66
1152.23
1176.64
1204.93
1234.98
1265.23
1294.6
1322.21
1346.84
1366.53
1380.94
1407.46
63826.9
7550.48
1891.72
1240.76
1146.94
1128.85
1130.27
1140.36
1155.63
1174.17
1197.34
1225.44
1256.59
1288.89
1320.69
1350.32
1375.36
1391.78
1397.48
1422.26
68035.1
8957.31
2215.83
1304.72
1166.31
1140.91
1140.4
1149.53
1163.92
1181.5
1203.09
1230.55
1262.79
1298.04
1334.62
1370.19
1400.45
1417.37
1410.89
1423.13
72673.5
10385.7
2599.78
1374.15
1173.4
1137.6
1135.11
1143.47
1157.1
1173.73
1192.79
1217.04
1247.38
1283.04
1323.21
1366.11
1406.36
1431.84
1418.48
1400.47
77802.9
12065.7
3105.56
1475.31
1177.91
1122.55
1115.81
1122.83
1135.56
1151.06
1167.23
1185.42
1208.93
1238.91
1276.24
1321.8
1372.11
1417.74
1436.99
1394.61
83495.2
14569.1
4037.26
1670.83
1201.53
1105.13
1087.74
1091.03
1101.64
1115.12
1128.27
1139.76
1152.86
1170.79
1195.85
1231.21
1277.85
1343.26
1418.29
1412.67
89835.7
17094.6
5345.13
2148.38
1315.15
1110.28
1062.42
1055.85
1062.17
1072.44
1081.75
1086.83
1089.63
1094.24
1103.2
1117.5
1142.53
1201.52
1272.75
1329.57
96926.8
19437.7
6785.56
2861.96
1582.04
1183.33
1063.28
1029.99
1025.18
1029.68
1035.03
1036.38
1033.76
1030.87
1031.46
1037.11
1061.43
1129.1
1220.53
1302.73
104892
21500.1
8191.06
3737.32
2016.74
1362.43
1121.03
1034.06
1005.31
998.667
998.76
998.165
995.121
992.201
994.373
1010.5
1068.82
1152.85
1222.53
1298.68
113880
23486.4
9564.33
4738.63
2625.8
1682.29
1271.16
1095.9
1023.56
995.775
985.88
982.042
981.958
988.849
1008.12
1046.86
1099.61
1151.29
1212.51
1292.47
124076
25356.2
10787.3
5756.39
3374.67
2166.19
1557.11
1256.33
1111.53
1044.86
1016.83
1008.05
1010.23
1021.3
1041.92
1072.77
1112.17
1165.87
1236.43
1328.5
135704
27242.8
11879.7
6729.53
4204.97
2806.05
2012.39
1565.53
1318.83
1186.37
1118.4
1087
1076.55
1079.03
1093.03
1120.7
1168.63
1237.23
1324.38
1432.53
149047
29195.7
12803.2
7586.3
5028.71
3537.27
2617.24
2043.7
1688.71
1472.75
1345.03
1273.1
1236.24
1222.45
1228.7
1262.76
1321.1
1401.77
1502.76
1623.63
164459
31259.1
13519.3
8246.06
5741.45
4254.13
3287.75
2641.3
2206.94
1917.4
1727.95
1608.08
1536.77
1501.06
1495.91
1529.07
1590.06
1677.95
1792.66
1926.7
182390
33613.8
14068.5
8663.78
6253.12
4844.41
3909.51
3256.02
2791.32
2461.18
2229.83
2072.25
1970.34
1912.54
1896.93
1920.44
1982.6
2088.84
2238.27
2404.51
203421
36628.7
14662.7
8908.97
6546.5
5238.59
4382.63
3775.79
3331.01
3002.36
2761.64
2589.57
2472.48
2402.68
2388.19
2434.2
2551.8
2747.2
3004.6
3252.87
228311
40884.7
15785.7
9301.41
6810.48
5540.7
4758.91
4222.39
3834.22
3548.65
3341.02
3196.91
3108.99
3083.56
3174.21
3388.24
3724
4161.44
4644.03
5022.28
258064
46869.4
18461.8
10873
8007.9
6649.95
5905.48
5455.13
5171.32
4998.67
4911.99
4901.66
4976.7
5217.74
5714.48
6377.85
7149.73
7968.49
8746
9275.97
294034
54018.1
26284.9
19705.3
16354
14847
14248.1
13991.5
13916.5
13964.2
14108.4
14340.8
14703.6
15509.1
16457.1
17468.6
18508.5
19608.8
20795.8
22044.3
338081
86768.7
86776.4
86783.5
86790.1
86796
86801.4
86806.2
86810.3
86813.9
86816.8
86819.1
86820.7
86821.8
86822.2
86821.9
86821.1
86819.6
86817.5
86814.7
)
;

boundaryField
{
    right
    {
        type            cyclic;
    }
    left
    {
        type            cyclic;
    }
    outerWall
    {
        beta1           0.075;
        blended         0;
        type            omegaWallFunction;
        value           nonuniform List<scalar> 
60
(
14006
14005.7
14005.5
14005.4
14005.3
14005.3
14005.4
14005.6
14005.8
14006.1
14006.5
14006.9
14007.5
14008.1
14008.7
14009.5
14010.3
14011.1
14012.1
14013.1
14005.5
13999.8
13994.6
13990.2
13986.4
13983.2
13980.6
13978.7
13977.4
13976.8
13976.8
13977.4
13978.7
13980.6
13983.2
13986.4
13990.2
13994.6
13999.8
14005.5
14013.1
14012.1
14011.1
14010.3
14009.5
14008.7
14008.1
14007.5
14006.9
14006.5
14006.1
14005.8
14005.6
14005.4
14005.3
14005.3
14005.4
14005.5
14005.7
14006
)
;
    }
    stirrerWall
    {
        beta1           0.075;
        blended         0;
        type            omegaWallFunction;
        value           nonuniform List<scalar> 
100
(
86814.7
86817.5
86819.6
86821.1
86821.9
86822.2
86821.8
86820.7
86819.1
86816.8
86813.9
86810.3
86806.2
86801.4
86796
86790.1
86783.5
86776.4
86768.7
338081
338081
294034
258064
228311
203421
182390
164459
149047
135704
124076
113880
104892
96926.8
89835.7
83495.2
77802.9
72673.5
68035.1
63826.9
59997.5
85702.6
85639
85582.4
85533
85490.7
85455.4
85427.3
85406.1
85392
85385
85385
85392
85406.1
85427.3
85455.4
85490.7
85533
85582.4
85639
85702.6
59997.5
63826.9
68035.1
72673.5
77802.9
83495.2
89835.7
96926.8
104892
113880
124076
135704
149047
164459
182390
203421
228311
258064
294034
338081
338081
86768.7
86776.4
86783.5
86790.1
86796
86801.4
86806.2
86810.3
86813.9
86816.8
86819.1
86820.7
86821.8
86822.2
86821.9
86821.1
86819.6
86817.5
86814.7
)
;
    }
    top
    {
        type            empty;
    }
    bottom
    {
        type            empty;
    }
}


// ************************************************************************* //
