/*--------------------------------*- C++ -*----------------------------------*\
  =========                 |
  \\      /  F ield         | OpenFOAM: The Open Source CFD Toolbox
   \\    /   O peration     | Website:  https://openfoam.org
    \\  /    A nd           | Version:  10
     \\/     M anipulation  |
\*---------------------------------------------------------------------------*/
FoamFile
{
    format      ascii;
    class       volScalarField;
    location    "800";
    object      omega;
}
// * * * * * * * * * * * * * * * * * * * * * * * * * * * * * * * * * * * * * //

dimensions      [0 0 -1 0 0 0 0];

internalField   nonuniform List<scalar> 
420
(
21252.7
3449.41
1231.99
673.302
451.474
343.89
300.676
311.145
359.531
422.924
21253.7
3431.52
1203.43
646.44
429.711
327.575
295.205
319.62
380.907
457.114
21254.2
3428.6
1174.36
618.45
408.975
314.113
291.745
326.552
402.645
499.039
21254
3436.74
1165.78
605.083
401.405
312.302
293.797
334.864
427.365
553.409
21253.2
3449.01
1186.77
623.808
422.53
333.893
311.268
351.264
459.6
628.803
21251.7
3483.65
1275.34
721.829
512.726
412.333
376.039
402.21
514.754
744.912
21249.7
3669.99
1595.55
1043.79
793.659
649.273
573.348
565.12
654.367
953.899
21247.1
4649.65
2772.41
2098.35
1686.04
1398.62
1202.73
1092.18
1101.59
1436.78
21243.8
10336.2
7936.9
6391.57
5264.7
4413.71
3763.88
3276.17
2973.09
3092.52
78643.9
60596.7
48114.3
39124.4
32436.5
27327.1
23335.9
20159.1
17589.3
15481.3
473.669
480.094
415.873
323.499
272.363
270.054
324.62
492.583
1012.92
3581.27
518.419
522.766
437.426
326.847
272.086
269.363
322.236
490
1023.31
3581.17
579.559
582.598
466.813
331.84
272.19
268.846
319.848
486.553
1024.81
3581.13
664.937
665.361
504.692
338.01
272.484
267.994
316.708
479.405
1020.69
3581.18
789.783
781.192
552.29
345.053
273.119
267.143
313.298
469.667
1013.95
3581.3
984.78
945.803
610.267
352.294
274
266.387
309.917
458.431
1004.04
3581.49
1317.62
1183.76
677.863
358.772
275.051
265.8
306.8
446.003
989.217
3581.76
1954.75
1534.18
751.427
363.239
276.232
265.466
304.195
433.396
972.248
3582.1
3374.37
2057.84
821.04
364.189
277.632
265.561
302.339
421.582
956.257
3582.51
7362.45
2818.12
854.434
359.61
279.412
266.423
301.564
411.666
950.156
3582.99
21359.1
3519.05
753.655
340.582
280.857
268.566
302.488
405.701
952.344
3575.63
21359.1
2867.03
609.55
328.677
281.761
269.631
303.283
399.64
895.517
3575.63
4219.62
1074.33
419.592
315.414
281.52
269.607
303.462
396.245
848.704
3582.99
891.823
451.676
341.852
312.052
282.913
270.034
304.583
397.714
844.925
3582.51
390.64
337.809
331.223
315.641
285.281
271.404
307.116
400.035
834.778
3582.1
315.095
327.261
337.699
320.787
287.242
272.581
309.905
404.514
830.517
3581.76
313.186
339.168
349.297
326.192
288.729
273.601
312.924
411.75
830.61
3581.49
329.335
358.815
362.921
330.929
289.452
274.515
316.548
421.767
835.903
3581.3
353.206
382.321
376.693
333.996
289.098
275.387
321.069
434.699
850.761
3581.18
381.539
407.168
388.838
334.481
287.362
276.19
326.257
450.851
878.432
3581.13
412.101
430.963
397.647
331.148
283.168
276.341
330.992
470.031
925.745
3581.17
440.711
450.605
401.548
324.433
276.814
273.893
330.931
489.71
985.355
3581.27
15481.3
1980.36
544.166
325.4
291.599
295.938
312.888
336.604
364.994
394.314
17589.3
2598.76
745.488
375.133
293.447
277.913
282.119
295.134
314.417
337.654
20159.1
3204.2
1009.98
493.827
338.36
292.304
279.578
279.987
287.824
299.693
23335.9
4123.45
1453.24
715.137
446.699
349.513
313.032
300.117
298.759
302.225
27327.1
4911.1
1848.38
974.785
626.453
464.198
388.851
357.889
349.164
350.19
32436.5
5732.98
2179.45
1193.98
796.762
605.702
508.087
465.915
454.076
457.077
39124.4
6773.77
2539.16
1418.64
989.536
794.105
702.315
669.654
666.834
677.157
48114.3
8276.11
3132.59
1873.29
1449.37
1287.27
1230.46
1222.08
1230.56
1242.23
60596.7
10721.9
5092.75
3960.92
3626.7
3514.5
3482.95
3466.37
3447.34
3443.05
78643.9
21243.8
21247.1
21249.7
21251.7
21253.2
21254
21254.2
21253.7
21252.7
)
;

boundaryField
{
    right
    {
        type            cyclic;
    }
    left
    {
        type            cyclic;
    }
    outerWall
    {
        beta1           0.075;
        blended         0;
        type            omegaWallFunction;
        value           nonuniform List<scalar> 
22
(
3581.27
3581.17
3581.13
3581.18
3581.3
3581.49
3581.76
3582.1
3582.51
3582.99
3575.63
3575.63
3582.99
3582.51
3582.1
3581.76
3581.49
3581.3
3581.18
3581.13
3581.17
3581.27
)
;
    }
    stirrerWall
    {
        beta1           0.075;
        blended         0;
        type            omegaWallFunction;
        value           nonuniform List<scalar> 
42
(
21252.7
21253.7
21254.2
21254
21253.2
21251.7
21249.7
21247.1
21243.8
78643.9
78643.9
60596.7
48114.3
39124.4
32436.5
27327.1
23335.9
20159.1
17589.3
15481.3
21359.1
21359.1
15481.3
17589.3
20159.1
23335.9
27327.1
32436.5
39124.4
48114.3
60596.7
78643.9
78643.9
21243.8
21247.1
21249.7
21251.7
21253.2
21254
21254.2
21253.7
21252.7
)
;
    }
    top
    {
        type            empty;
    }
    bottom
    {
        type            empty;
    }
}


// ************************************************************************* //
