/*--------------------------------*- C++ -*----------------------------------*\
  =========                 |
  \\      /  F ield         | OpenFOAM: The Open Source CFD Toolbox
   \\    /   O peration     | Website:  https://openfoam.org
    \\  /    A nd           | Version:  10
     \\/     M anipulation  |
\*---------------------------------------------------------------------------*/
FoamFile
{
    format      ascii;
    class       volScalarField;
    location    "800";
    object      p;
}
// * * * * * * * * * * * * * * * * * * * * * * * * * * * * * * * * * * * * * //

dimensions      [0 2 -2 0 0 0 0];

internalField   nonuniform List<scalar> 
2000
(
-7.66469
170.425
346.412
552.853
779.731
1021.29
1276.91
1544.57
1820.74
2101.79
2384.12
2664.63
2942.28
3219.15
3492.86
3760.29
4021.6
4274.84
4517.56
4750.14
-10.8611
168.79
340.021
539.567
758.772
993.098
1242.49
1505.93
1780.52
2062.51
2348.15
2634.37
2920.32
3206.21
3487.73
3761.26
4026.94
4282.97
4526.57
4759.21
-15.1198
166.86
335.466
529.937
742.683
969.97
1212.34
1470.13
1741.56
2023.21
2311.24
2602.69
2897.47
3193.54
3482.8
3760.83
4028.91
4286.84
4532.38
4766.24
-19.5837
163.361
330.071
521.022
729.361
951.691
1188.13
1440.22
1707.67
1987.95
2277.49
2574.14
2877.5
3181.51
3475.4
3756.54
4027.01
4287.47
4535.53
4770.56
-23.3002
158.269
322.391
509.884
714.431
933.257
1165.94
1413.78
1677.73
1956.34
2247.03
2548.72
2859.06
3167.57
3463.58
3747.32
4020.94
4283.88
4534.5
4771.57
-26.1699
152.515
312.883
495.917
696.265
911.749
1141.91
1387.12
1648.75
1926.31
2218.53
2524.61
2839.63
3150.06
3446.87
3733.04
4009.43
4275.2
4529.28
4768.75
-28.081
146.791
302.441
479.987
675.313
886.861
1114.33
1357.7
1618.05
1895.55
2189.79
2499.17
2816.26
3126.57
3423.55
3712.48
3992.84
4261.67
4518.65
4760.68
-28.9371
141.76
292.152
463.314
652.578
859.338
1083.31
1324.62
1584.01
1862.02
2158.09
2469.28
2786.8
3096.28
3393.42
3684.84
3969.06
4241.8
4502.63
4747.6
-28.8366
137.914
282.919
447.055
629.214
830.272
1049.96
1288.36
1546.24
1824.33
2121.49
2433.12
2750.01
3058.71
3356.1
3650.32
3939.03
4216.03
4479.97
4727.59
-28.0133
135.37
275.205
432.335
606.561
801.011
1015.69
1250.19
1505.5
1782.58
2079.49
2390.38
2705.33
3013.01
3311.88
3609.3
3902.1
4183.18
4450.65
4701.53
-26.5555
134.187
269.363
419.983
586.16
773.084
982.04
1211.8
1463.43
1738.08
2033.19
2341.92
2654.45
2961.46
3261.77
3561.99
3858.97
4144.57
4415.32
4669.26
-24.4208
134.524
266.072
410.927
569.578
748.367
950.782
1175.16
1422.04
1692.68
1984.46
2289.81
2599.11
2905.3
3207.37
3510.21
3810.62
4100.14
4374.31
4632.39
-21.6857
136.553
266.182
406.693
558.573
729.296
924.245
1142.59
1383.8
1648.98
1935.81
2236.99
2543.5
2848.57
3150.88
3455.2
3758.82
4052.55
4330.58
4593.67
-18.5802
140.321
270.167
408.519
555.22
718.863
905.786
1117.11
1351.63
1610.39
1891.54
2188.17
2491.24
2794.14
3095.5
3399.89
3705.44
4002.64
4285.45
4556.22
-15.3548
145.614
278.018
416.933
561.062
719.285
898.869
1102.27
1329.2
1580.95
1856.23
2148.35
2446.92
2745.5
3043.25
3345.32
3652.01
3954.33
4244.88
4525.7
-12.3268
151.792
288.974
431.721
577.424
732.476
906.025
1101.89
1320.89
1565.28
1834.29
2120.81
2413.8
2707.13
3000.51
3299
3604.95
3912.04
4211.62
4503.58
-9.98883
157.933
301.325
450.589
602.941
760.801
931.533
1121.33
1333.66
1570.83
1831.11
2108.21
2393.11
2680.18
2969.19
3263.85
3567.67
3879.74
4191.13
4495.34
-8.86486
163.302
312.873
469.353
631.142
798.273
973.519
1163.29
1372.05
1603.13
1852.15
2115.55
2390.29
2670.97
2955.74
3247.35
3548.97
3861.76
4178.92
4492.92
-9.43634
167.897
321.715
483.586
653.756
831.289
1015.93
1210.82
1420.04
1646.89
1888.18
2140.16
2402.46
2674.21
2953.6
3241.05
3538.23
3846.12
4161.79
4481.14
-10.9801
172.617
326.313
490.506
665.78
851.032
1045.47
1249.09
1463.37
1689.26
1926.61
2174.12
2431.46
2698.53
2973.89
3257.33
3550.72
3853.5
4160.04
4470.5
4977.05
5206.96
5446.44
5697.41
5961.03
6239.21
6534.08
6847.26
7180.14
7534.22
7911.39
8313.73
8743.75
9203.93
9696.28
10227.2
10786.1
11426.5
11983.6
13069.5
4986
5215.58
5454.69
5705.32
5968.54
6246.06
6540.17
6852.68
7185
7538.61
7915.36
8317.35
8747.14
9207.07
9699.28
10230
10788.7
11429
11986.5
13068.3
4993.12
5222.33
5461.25
5711.87
5974.93
6252.06
6545.67
6857.67
7189.56
7542.74
7919.12
8320.77
8750.36
9210.04
9702.19
10232.8
10791.4
11431.9
11989
13067.5
4997.81
5227.22
5466.32
5717.08
5980.12
6257.07
6550.4
6862.11
7193.69
7546.59
7922.7
8324.1
8753.52
9213
9705.15
10235.6
10794.2
11435
11991.3
13067.3
4999.97
5229.88
5469.35
5720.56
5983.88
6260.92
6554.24
6865.9
7197.43
7550.22
7926.19
8327.44
8756.75
9216.04
9708.19
10238.5
10797
11438.2
11993.4
13067.5
4998.41
5229.22
5469.74
5721.94
5985.97
6263.42
6557
6868.84
7200.49
7553.32
7929.3
8330.5
8759.77
9218.93
9711.11
10241.3
10799.8
11441.3
11995.2
13067.8
4992.4
5224.92
5467.11
5720.85
5986.02
6264.22
6558.36
6870.63
7202.6
7555.66
7931.8
8333.1
8762.44
9221.57
9713.85
10243.9
10802.4
11444.4
11997
13068.1
4981.31
5215.96
5460.73
5716.88
5983.82
6263.21
6558.32
6871.35
7203.9
7557.39
7933.82
8335.34
8764.81
9224
9716.42
10246.4
10804.9
11447.3
11998.6
13068.3
4963.98
5201.98
5450.65
5710.17
5979.43
6260.48
6556.96
6871.09
7204.47
7558.54
7935.36
8337.17
8766.79
9226.11
9718.64
10248.4
10807
11449.8
12000
13068.4
4941.17
5183.36
5437.13
5700.8
5972.8
6255.88
6554.14
6869.68
7204.15
7559.03
7936.4
8338.62
8768.44
9227.95
9720.52
10250
10808.9
11451.7
12001.3
13068.3
4912.79
5160.82
5421.12
5689.37
5964.22
6249.61
6549.99
6867.28
7203.09
7558.99
7937.02
8339.73
8769.75
9229.52
9722.04
10251.3
10810.7
11453
12002.4
13067.7
4881.79
5137.23
5404.51
5676.86
5954.38
6242.27
6544.96
6864.16
7201.42
7558.4
7937.14
8340.39
8770.62
9230.77
9723.14
10252.5
10812.7
11453.7
12003.4
13066
4850.51
5114.81
5388.76
5664.03
5943.87
6234.44
6539.56
6860.78
7199.55
7557.63
7937.08
8340.85
8771.23
9231.77
9723.86
10253.5
10814.3
11453.3
12004
13063
4823.08
5096.84
5375.41
5651.81
5933.53
6226.72
6534.16
6857.34
7197.54
7556.67
7936.77
8341.04
8771.51
9232.5
9724.17
10254.3
10815.4
11451.7
12004.7
13058.3
4803.69
5085.08
5365.03
5641.29
5924.42
6219.98
6529.38
6854.3
7195.72
7555.75
7936.37
8341.04
8771.52
9232.93
9723.99
10254.9
10815.8
11448.7
12006.2
13052.9
4794.15
5080.74
5358.39
5633.8
5917.53
6214.92
6525.75
6852.08
7194.45
7555.18
7936.15
8341.08
8771.42
9233.18
9723.24
10254.9
10814.7
11445
12009.4
13048.1
4795.74
5081.18
5353
5628.53
5912.59
6211.53
6523.4
6850.85
7193.87
7555.08
7936.24
8341.32
8771.46
9233.47
9722.17
10254.3
10811.6
11439.9
12014.2
13042.9
4801.69
5082.43
5347.87
5625.65
5910.1
6210.24
6522.57
6850.64
7193.92
7555.32
7936.49
8341.62
8771.59
9233.82
9721.46
10254.3
10808.2
11433.5
12023.5
13028.1
4805.68
5086.19
5347.44
5626.59
5910.62
6210.76
6522.9
6851
7194.23
7555.53
7936.61
8341.66
8771.62
9233.88
9721.86
10256.3
10809
11431.4
12047.8
12983.8
4807.38
5103.5
5352.4
5631.48
5912.25
6212.36
6523.78
6851.87
7194.84
7555.99
7936.73
8341.79
8771.54
9234.57
9722.24
10260.4
10810.7
11449.6
12071.8
12941.4
4773.53
5137.6
5343.36
5640.62
5910.8
6215.45
6523.67
6852.73
7194.65
7556.24
7935.96
8342.21
8769.7
9237.75
9717.47
10273.4
10791
11501.4
12000.9
13036.6
4763.44
5144.1
5339.86
5641.19
5908.92
6214.49
6521.85
6851.07
7192.72
7554.46
7934.02
8340.65
8767.69
9236.97
9714.96
10275.2
10785.1
11513.1
11983.2
13061
4755.85
5148.8
5336.91
5641.7
5907.25
6213.52
6520.1
6849.41
7190.83
7552.69
7932.14
8339.15
8765.8
9236.2
9712.64
10277
10780.8
11522.9
11968.4
13080.1
4749.84
5152.34
5334.25
5642.05
5905.66
6212.5
6518.42
6847.8
7189.01
7550.99
7930.34
8337.7
8764.02
9235.44
9710.46
10278.7
10776.5
11531.5
11954.7
13097.7
4744.9
5155
5331.77
5642.17
5904.12
6211.46
6516.83
6846.27
7187.3
7549.38
7928.63
8336.31
8762.34
9234.7
9708.45
10280.3
10772.1
11539.6
11941.4
13114.7
4740.82
5156.89
5329.45
5642.03
5902.65
6210.42
6515.37
6844.86
7185.73
7547.88
7927.04
8334.99
8760.76
9233.98
9706.58
10281.8
10767.8
11547.4
11928.3
13131.3
4737.45
5158.09
5327.29
5641.66
5901.28
6209.44
6514.11
6843.63
7184.35
7546.54
7925.58
8333.73
8759.27
9233.25
9704.84
10283
10763.5
11554.8
11915.5
13147.6
4734.57
5158.61
5325.28
5641.08
5900.06
6208.58
6513.1
6842.65
7183.2
7545.36
7924.26
8332.55
8757.87
9232.51
9703.22
10284
10759.4
11561.8
11902.9
13163.8
4731.96
5158.46
5323.46
5640.35
5899.06
6207.93
6512.42
6841.96
7182.31
7544.38
7923.08
8331.42
8756.53
9231.73
9701.69
10284.9
10755.2
11568.4
11890.4
13180
4729.41
5157.63
5321.88
5639.56
5898.37
6207.57
6512.13
6841.6
7181.71
7543.59
7922.05
8330.33
8755.23
9230.88
9700.19
10285.8
10751.2
11574.6
11877.8
13196
4726.69
5156.15
5320.63
5638.81
5898.06
6207.56
6512.25
6841.58
7181.39
7542.98
7921.14
8329.26
8753.94
9229.92
9698.66
10286.6
10747.6
11580.4
11864.9
13211.9
4723.62
5154.09
5319.86
5638.25
5898.21
6207.95
6512.79
6841.9
7181.33
7542.51
7920.31
8328.18
8752.63
9228.81
9697.02
10287.1
10744.3
11586
11851.4
13227.8
4720.17
5151.61
5319.7
5638.04
5898.88
6208.74
6513.72
6842.49
7181.46
7542.13
7919.51
8327.04
8751.25
9227.51
9695.23
10287
10741.1
11591.2
11837.3
13243.8
4716.54
5148.93
5320.35
5638.3
5900.12
6209.89
6514.93
6843.22
7181.66
7541.76
7918.68
8325.81
8749.8
9226.02
9693.29
10286.2
10738.1
11596.1
11822.4
13259.6
4713.2
5146.33
5321.96
5639.07
5901.9
6211.28
6516.26
6843.93
7181.78
7541.26
7917.73
8324.42
8748.24
9224.29
9691.26
10284.8
10735.2
11600.5
11806.7
13274.9
4710.78
5144.18
5324.59
5640.33
5904.06
6212.69
6517.45
6844.37
7181.61
7540.48
7916.55
8322.82
8746.54
9222.32
9689.18
10282.9
10732.3
11604.2
11790.3
13289.6
4709.7
5142.94
5328.06
5641.95
5906.31
6213.83
6518.17
6844.24
7180.9
7539.24
7915.02
8320.96
8744.66
9220.21
9686.95
10280.9
10728.6
11608.4
11771.7
13304.8
4710.65
5142.98
5332.24
5643.8
5908.38
6214.48
6518.16
6843.36
7179.49
7537.46
7913.11
8318.9
8742.67
9218.17
9684.55
10279.5
10723.2
11615.3
11748.3
13322.9
4717.89
5144.04
5338.09
5645.74
5910.48
6214.53
6517.45
6841.67
7177.41
7535.16
7910.98
8316.76
8740.94
9216.25
9682.79
10277.8
10718.3
11621.3
11724.4
13339
4740.86
5144.44
5346.92
5647.1
5912.86
6213.94
6516.37
6839.48
7175.16
7532.75
7909.13
8314.81
8740.07
9214.06
9683.41
10272.6
10721.8
11610.2
11725.6
13329.7
4868.05
5131.34
5374.05
5642.4
5916.15
6207.08
6510.39
6830.48
7167.29
7524.41
7903.1
8307.61
8738.01
9203.06
9691.63
10237.8
10772.9
11478.5
11906.1
13168.2
4878.98
5123.84
5376.73
5639.95
5914.86
6203.48
6506.65
6825.95
7163.08
7520.4
7900.11
8304.88
8737.02
9199.95
9693.92
10228.2
10787.7
11435.3
11972.8
13107.6
4872.76
5119.5
5373.61
5636.75
5911.47
6199.35
6502.01
6820.99
7158.23
7515.92
7896.26
8301.62
8734.44
9197.49
9692.39
10225.6
10789.1
11428.8
11994.1
13078.3
4867.04
5115.11
5369.68
5633.16
5907.82
6195.51
6497.96
6816.86
7154.2
7512.14
7892.86
8298.65
8731.86
9195.31
9690.52
10224.4
10788.3
11429.4
11998.9
13063.5
4864.91
5112.31
5366.59
5629.9
5904.29
6191.71
6493.97
6812.81
7150.26
7508.42
7889.44
8295.59
8729.14
9192.95
9688.48
10222.9
10787
11428.7
11998.6
13054.9
4865.33
5111.21
5364.62
5627.35
5901.23
6188.28
6490.31
6809.1
7146.63
7504.96
7886.21
8292.64
8726.47
9190.54
9686.29
10221
10785.1
11426.7
11996.5
13049.5
4867.46
5111.57
5363.84
5625.66
5898.85
6185.38
6487.08
6805.76
7143.33
7501.78
7883.2
8289.85
8723.88
9188.13
9684
10218.8
10782.6
11424.2
11993.8
13045.3
4870.85
5113.25
5364.19
5624.92
5897.24
6183.1
6484.38
6802.88
7140.44
7498.96
7880.52
8287.3
8721.43
9185.77
9681.7
10216.5
10779.9
11421.6
11990.4
13041.3
4875.35
5116.05
5365.53
5625.05
5896.36
6181.44
6482.25
6800.53
7138.03
7496.6
7878.24
8285.08
8719.24
9183.6
9679.49
10214.1
10777.2
11419.1
11986
13038
4880.65
5119.66
5367.66
5625.92
5896.17
6180.45
6480.75
6798.8
7136.23
7494.82
7876.48
8283.33
8717.47
9181.79
9677.58
10212
10774.9
11416.6
11981.1
13038
4886.53
5123.95
5370.52
5627.49
5896.65
6180.15
6480
6797.83
7135.19
7493.77
7875.42
8282.24
8716.32
9180.56
9676.19
10210.4
10773.2
11414.5
11977.3
13041.2
4892.98
5128.9
5374.06
5629.75
5897.88
6180.68
6480.13
6797.79
7135.09
7493.63
7875.23
8281.97
8715.94
9180.05
9675.48
10209.6
10772.2
11412.8
11975.9
13044.7
4900.17
5134.62
5378.38
5632.83
5899.99
6182.18
6481.33
6798.86
7136.09
7494.55
7876.04
8282.64
8716.44
9180.35
9675.55
10209.5
10771.7
11411.6
11976.1
13049.6
4908.11
5141.17
5383.55
5636.82
5903.13
6184.83
6483.75
6801.17
7138.3
7496.62
7877.92
8284.29
8717.84
9181.47
9676.41
10210.2
10771.8
11411.5
11979.1
13051.9
4916.87
5148.6
5389.66
5641.87
5907.49
6188.79
6487.52
6804.82
7141.8
7499.89
7880.91
8286.95
8720.17
9183.44
9678.06
10211.5
10772.5
11413.1
11982.5
13049.8
4926.56
5157.01
5396.88
5648.26
5913.35
6194.34
6492.88
6809.97
7146.66
7504.4
7885.01
8290.6
8723.4
9186.23
9680.47
10213.5
10774
11415.3
11981.6
13052.5
4936.7
5166.26
5405.44
5656.33
5921.09
6201.82
6500.06
6816.72
7152.88
7510.05
7890.08
8295.11
8727.38
9189.68
9683.47
10216
10775.9
11416.8
11981.1
13057.4
4946.35
5176.17
5415.49
5666.36
5930.94
6211.28
6508.96
6824.92
7160.31
7516.67
7895.92
8300.21
8731.85
9193.55
9686.86
10218.9
10778.4
11419.6
11981.6
13060.9
4955.75
5186.8
5426.87
5677.9
5942.21
6221.94
6518.74
6833.81
7168.3
7523.77
7902.17
8305.64
8736.57
9197.64
9690.49
10222
10781.3
11422.5
11982.3
13064.3
4966.99
5197.73
5437.73
5688.7
5952.62
6231.52
6527.18
6841.15
7174.77
7529.53
7907.28
8310.1
8740.49
9201.09
9693.66
10224.8
10783.8
11424.5
11982.6
13067.9
4662.77
4637.89
4622.84
4617.89
4618.17
4621.43
4626.24
4631.93
4638.46
4645.7
4653.31
4661.36
4670.08
4679.49
4689.58
4700.47
4711.44
4720.77
4728.5
4739.31
4359.63
4357.26
4355.9
4358.72
4364.74
4372.7
4381.36
4390.05
4398.93
4408.33
4417.8
4427.57
4437.91
4448.83
4460.26
4472.23
4483.82
4492.7
4498
4506.62
4025.78
4052.24
4071.9
4087.73
4102.73
4117.24
4130.9
4143.4
4155.1
4166.76
4178.17
4189.62
4201.4
4213.57
4226.07
4238.78
4250.62
4258.79
4261.21
4265.46
3692.13
3739.97
3778.27
3808.08
3833.51
3855.87
3875.53
3892.57
3907.54
3921.61
3934.98
3947.83
3960.49
3973.15
3985.9
3998.43
4009.75
4017.16
4017.07
4016.02
3369.25
3428.14
3481.36
3523.87
3559.63
3590.2
3616.4
3638.62
3657.45
3674.12
3689.31
3702.98
3715.85
3728.24
3740.24
3751.55
3761.34
3767.26
3765.38
3760.28
3057.66
3121.08
3185.69
3238.69
3283.56
3321.95
3354.8
3382.59
3405.69
3425.12
3442.09
3456.54
3469.58
3481.51
3492.14
3501.3
3508.32
3511.27
3507.06
3498.71
2759.73
2822.79
2894.7
2955.11
3007.47
3052.71
3091.69
3124.92
3152.54
3175.17
3194.56
3210.66
3224.13
3235.41
3244.4
3250.77
3253.79
3252.07
3244.08
3231.66
2477.12
2535.75
2610.05
2675.5
2733.48
2784.16
2828.23
2866.22
2898.21
2924.48
2946.39
2964.48
2978.69
2989.53
2996.91
3000.3
2998.91
2992.01
2979.43
2962.19
2209.32
2260.63
2334.01
2402.24
2463.31
2517.77
2565.69
2607.43
2643.21
2673.08
2697.53
2717.23
2731.88
2741.94
2747.29
2747.23
2741.41
2730.08
2713.37
2691.34
1955.52
1998.99
2067.08
2135.16
2197.83
2254.25
2304.58
2348.94
2387.48
2420.09
2446.6
2467.38
2481.93
2490.36
2493.03
2489.77
2480.42
2464.83
2443.3
2416.22
1715.75
1751.39
1810.52
1874.88
1936.88
1994.02
2045.09
2090.32
2129.86
2163.53
2190.97
2212.02
2226.08
2232.74
2232.44
2225.67
2212.56
2193.12
2167.85
2137.21
1489.71
1517.98
1566.13
1623.75
1681.94
1737.12
1787.42
1831.86
1870.63
1903.47
1929.99
1949.84
1962.37
1966.98
1964.04
1954.46
1938.71
1917.01
1889.74
1857.39
1277.09
1298.96
1335.87
1383.83
1435.23
1485.62
1532.43
1574.23
1610.51
1641.01
1665.22
1682.79
1693.06
1695.55
1690.65
1679.36
1662.3
1639.85
1612.36
1580.26
1077.21
1093.72
1120.47
1157.35
1199.16
1241.76
1282.65
1319.95
1352.19
1378.77
1399.6
1414.22
1421.97
1422.57
1416.52
1404.68
1387.64
1365.77
1339.69
1309.72
889.113
901.061
919.319
945.495
976.417
1009.1
1041.41
1071.67
1098.47
1120.68
1137.47
1148.49
1153.56
1152.69
1146.29
1134.93
1119.08
1099.19
1075.99
1049.69
711.766
719.591
730.661
747.215
767.528
789.754
812.506
834.414
854.143
870.563
882.864
890.562
893.397
891.379
884.993
874.724
860.917
843.967
824.434
802.506
544.286
548.004
552.379
560.052
570.822
583.695
597.652
611.596
624.379
634.961
642.579
646.75
647.262
644.182
637.818
628.453
616.499
602.411
586.557
569.439
387.183
386.524
384.097
383.229
385.354
390.448
397.415
404.894
411.726
417.051
420.285
421.102
419.433
415.417
409.206
401.082
391.375
380.39
368.389
356.4
241.301
234.286
225.436
218.769
215.98
216.812
219.772
223.137
225.694
226.832
226.307
224.152
220.63
215.992
210.298
203.735
196.499
188.721
180.883
174.419
93.9608
74.898
58.5018
48.7378
43.545
41.1382
40.279
39.8974
38.9737
36.8768
33.4205
28.7139
23.0575
16.8298
10.4647
4.39041
-1.07225
-5.43678
-7.99025
-8.53653
)
;

boundaryField
{
    right
    {
        type            cyclic;
    }
    left
    {
        type            cyclic;
    }
    outerWall
    {
        type            zeroGradient;
    }
    stirrerWall
    {
        type            zeroGradient;
    }
    top
    {
        type            empty;
    }
    bottom
    {
        type            empty;
    }
}


// ************************************************************************* //
