/*--------------------------------*- C++ -*----------------------------------*\
  =========                 |
  \\      /  F ield         | OpenFOAM: The Open Source CFD Toolbox
   \\    /   O peration     | Website:  https://openfoam.org
    \\  /    A nd           | Version:  10
     \\/     M anipulation  |
\*---------------------------------------------------------------------------*/
FoamFile
{
    format      ascii;
    class       volScalarField;
    location    "800";
    object      p;
}
// * * * * * * * * * * * * * * * * * * * * * * * * * * * * * * * * * * * * * //

dimensions      [0 2 -2 0 0 0 0];

internalField   nonuniform List<scalar> 
420
(
0.43381
15.3585
31.1675
49.2918
69.0166
89.6993
110.864
132.003
152.779
172.743
-0.0320224
14.8019
30.3824
48.2593
67.7962
88.4214
109.697
131.091
152.156
172.394
-0.207145
14.4206
29.7151
47.2857
66.5829
87.1288
108.523
130.185
151.564
172.103
-0.193702
14.207
29.2045
46.4314
65.4404
85.8534
107.328
129.258
150.977
171.848
-0.136226
14.1386
28.8692
45.7385
64.4114
84.6222
106.106
128.271
150.365
171.619
-0.0835234
14.1946
28.7094
45.2232
63.5209
83.4531
104.839
127.18
149.668
171.374
-0.0472106
14.3608
28.7188
44.8878
62.7816
82.3509
103.505
125.911
148.791
171.091
-0.0369678
14.6271
28.8888
44.7264
62.2035
81.3321
102.098
124.337
147.516
170.565
-0.0903776
14.9965
29.1909
44.7178
61.8097
80.4693
100.69
122.409
145.364
168.714
-0.240209
15.4535
29.4854
44.7938
61.6502
79.9711
99.6766
120.651
142.578
164.967
191.433
209.207
226.048
241.556
255.835
269.432
281.589
298.836
294.326
348.7
191.275
209.11
225.896
241.362
255.726
269.52
282.149
299.338
294.391
344.185
191.191
209.091
225.826
241.278
255.729
269.684
282.596
299.69
295.276
341.343
191.158
209.104
225.767
241.217
255.748
269.82
282.895
300.008
296.493
339.658
191.177
209.143
225.717
241.172
255.743
269.868
283.049
300.148
296.861
338.239
191.244
209.198
225.684
241.171
255.726
269.814
283.029
300.002
296.362
336.533
191.429
209.251
225.612
241.192
255.725
269.713
282.861
299.603
295.187
334.161
191.723
209.27
225.399
241.183
255.788
269.689
282.744
299.36
294.282
331.656
191.42
209.432
225.323
241.26
255.991
269.831
282.854
299.933
295.128
329.517
189.837
210.278
225.956
241.615
256.304
270.073
283.166
301.325
295.494
328.122
189.256
210.814
226.659
242.047
256.417
269.859
282.544
303.449
287.595
327.857
190.209
210.848
227.034
242.123
256.149
269.211
281.517
301.729
282.791
325.729
195.22
211.57
227.518
242.461
256.232
268.919
280.943
296.853
285.023
322.586
194.897
211.388
227.416
242.463
256.21
268.7
280.32
295.128
285.376
318.742
193.802
210.775
227.055
242.276
256.116
268.554
280.047
294.772
284.986
317.565
192.98
210.145
226.667
242.111
256.128
268.654
280.167
294.775
285.152
318.027
192.473
209.719
226.43
242.103
256.362
269.164
281.025
295.868
286.613
320.058
192.159
209.493
226.361
242.23
256.747
269.997
282.466
297.82
290.273
327.152
191.948
209.393
226.381
242.373
257.076
270.744
283.617
299.541
296.496
343.434
191.781
209.34
226.386
242.385
257.097
270.825
283.337
299.151
301.775
366.086
191.631
209.28
226.303
242.146
256.607
270.021
281.689
297.335
300.524
373.402
191.546
209.239
226.119
241.675
255.889
269.31
280.969
297.85
297.127
355.377
179.051
176.772
175.475
174.857
174.511
174.244
173.968
173.664
173.342
173.066
153.672
154.321
154.822
155.12
155.246
155.178
154.9
154.458
153.909
153.356
127.015
130.111
132.567
134.043
134.837
135.113
134.944
134.437
133.695
132.864
102.942
106.45
109.866
112.198
113.596
114.24
114.261
113.793
112.975
111.965
81.7047
84.53
87.7911
90.3707
92.06
92.9463
93.1433
92.77
91.9721
90.9071
62.7785
64.69
67.1754
69.3818
70.9722
71.8839
72.1639
71.888
71.1788
70.183
45.8466
46.943
48.4505
49.9245
51.0691
51.7502
51.9579
51.7277
51.1361
50.2963
30.7422
31.1894
31.7932
32.4176
32.932
33.2352
33.2753
33.0451
32.5793
31.9402
17.4415
17.2686
17.1517
17.1047
17.0947
17.0559
16.9353
16.706
16.3612
15.9145
5.15887
3.98041
2.99446
2.39604
2.03076
1.76297
1.51287
1.23512
0.914335
0.603082
)
;

boundaryField
{
    right
    {
        type            cyclic;
    }
    left
    {
        type            cyclic;
    }
    outerWall
    {
        type            zeroGradient;
    }
    stirrerWall
    {
        type            zeroGradient;
    }
    top
    {
        type            empty;
    }
    bottom
    {
        type            empty;
    }
}


// ************************************************************************* //
