/*--------------------------------*- C++ -*----------------------------------*\
  =========                 |
  \\      /  F ield         | OpenFOAM: The Open Source CFD Toolbox
   \\    /   O peration     | Website:  https://openfoam.org
    \\  /    A nd           | Version:  10
     \\/     M anipulation  |
\*---------------------------------------------------------------------------*/
FoamFile
{
    format      ascii;
    class       surfaceScalarField;
    location    "800";
    object      phi;
}
// * * * * * * * * * * * * * * * * * * * * * * * * * * * * * * * * * * * * * //

dimensions      [0 3 -1 0 0 0 0];

internalField   nonuniform List<scalar> 
788
(
-1.84938e-06
-8.97334e-06
7.42216e-07
2.05581e-06
2.45201e-06
7.00643e-06
3.5002e-06
8.33075e-06
3.40754e-06
6.99954e-06
1.67773e-06
3.72292e-06
-1.72912e-06
-1.01146e-06
-5.92245e-06
-7.83259e-06
-9.58374e-06
-1.86375e-05
-3.37259e-05
-1.21124e-05
-4.80136e-07
-8.49232e-06
5.85325e-07
1.03805e-06
1.76655e-06
5.92278e-06
2.321e-06
7.87051e-06
1.5707e-06
7.87351e-06
-8.04537e-07
6.29752e-06
-4.26813e-06
2.72811e-06
-7.88121e-06
-3.93492e-06
-1.08215e-05
-1.54949e-05
-3.16247e-05
-1.28266e-05
-1.30881e-07
-8.34131e-06
1.36824e-07
8.38211e-07
8.36128e-07
5.31374e-06
1.0782e-06
7.72741e-06
2.73352e-07
8.82272e-06
-1.74172e-06
8.52612e-06
-4.47614e-06
5.72063e-06
-7.31634e-06
-8.78457e-07
-9.97019e-06
-1.27165e-05
-2.96113e-05
-1.1943e-05
-1.91811e-07
-8.1274e-06
-2.30158e-07
9.43208e-07
3.17096e-07
4.85552e-06
6.27233e-07
7.52178e-06
2.1629e-07
9.37212e-06
-1.04771e-06
9.95986e-06
-2.98531e-06
7.82755e-06
-5.22497e-06
1.47507e-06
-7.90092e-06
-9.99554e-06
-2.73069e-05
-1.02067e-05
-4.34422e-07
-7.67226e-06
-5.63646e-07
1.13658e-06
3.3482e-08
4.34888e-06
6.74319e-07
6.98092e-06
9.48426e-07
9.20801e-06
6.93452e-07
1.03167e-05
-2.93857e-07
8.88272e-06
-2.11853e-06
3.30961e-06
-5.01503e-06
-7.14257e-06
-2.44591e-05
-7.91376e-06
-7.49824e-07
-6.90217e-06
-9.04941e-07
1.35619e-06
-1.60011e-07
3.69417e-06
9.42154e-07
5.96413e-06
2.04053e-06
8.17537e-06
2.84537e-06
9.53353e-06
2.86505e-06
8.82258e-06
1.41664e-06
4.65101e-06
-1.67046e-06
-4.20109e-06
-2.08983e-05
-5.34374e-06
-1.12217e-06
-5.75903e-06
-1.26558e-06
1.56509e-06
-3.30491e-07
2.84292e-06
1.21547e-06
4.47786e-06
3.07015e-06
6.33101e-06
4.80809e-06
7.73079e-06
5.7222e-06
7.75772e-06
4.70455e-06
5.44232e-06
1.54012e-06
-1.27973e-06
-1.66162e-05
-2.92393e-06
-1.56061e-06
-4.17596e-06
-1.55519e-06
1.62601e-06
-4.00101e-07
1.76152e-06
1.45375e-06
2.65399e-06
3.8359e-06
3.90465e-06
6.35917e-06
5.06598e-06
8.20902e-06
5.66712e-06
8.23003e-06
5.10507e-06
5.33292e-06
1.29529e-06
-1.11728e-05
-3.47211e-07
-2.04659e-06
-2.10492e-06
-1.46099e-06
1.1017e-06
-2.09771e-07
5.63799e-07
1.63638e-06
7.99923e-07
4.21251e-06
1.23193e-06
7.26334e-06
1.8245e-06
1.01377e-05
2.52284e-06
1.19116e-05
3.01226e-06
1.04242e-05
2.47614e-06
-3.83853e-06
2.88069e-06
-2.08401e-06
-9.60039e-07
-3.99031e-07
3.61558e-07
1.51251e-06
3.22186e-06
5.60954e-06
8.48159e-06
1.08423e-05
6.9533e-06
-1.32818e-05
-5.38031e-05
-1.32606e-05
-8.66286e-05
-1.26798e-05
-0.000130873
-1.22971e-05
-0.000185568
-1.21735e-05
-0.000253485
-1.16141e-05
-0.000335302
-1.23803e-05
-0.000432044
-2.14846e-05
-0.000589844
-9.79464e-06
-0.000579214
-0.00113931
-1.36875e-05
-5.29298e-05
-1.35921e-05
-8.6738e-05
-1.31612e-05
-0.000131274
-1.2967e-05
-0.0001857
-1.30111e-05
-0.000253492
-1.27146e-05
-0.000335666
-1.1635e-05
-0.000432878
-1.96744e-05
-0.000581616
-1.21033e-05
-0.000587259
-0.00115126
-1.29358e-05
-5.19465e-05
-1.31201e-05
-8.65664e-05
-1.31545e-05
-0.000131216
-1.34894e-05
-0.000185363
-1.41388e-05
-0.000253123
-1.44965e-05
-0.000335668
-1.31663e-05
-0.000433968
-2.11413e-05
-0.000573755
-1.2651e-05
-0.000595412
-0.00116393
-1.15625e-05
-5.0606e-05
-1.20506e-05
-8.60739e-05
-1.24622e-05
-0.000130764
-1.31864e-05
-0.000184624
-1.41552e-05
-0.000252387
-1.48011e-05
-0.00033532
-1.37827e-05
-0.000434698
-2.10145e-05
-0.000566776
-1.23529e-05
-0.000603904
-0.00117639
-9.69093e-06
-4.88577e-05
-1.04228e-05
-8.53325e-05
-1.11645e-05
-0.000129989
-1.22467e-05
-0.000183568
-1.34579e-05
-0.000251397
-1.42181e-05
-0.000334799
-1.35252e-05
-0.000435312
-1.96038e-05
-0.00056098
-1.18426e-05
-0.000611628
-0.00118836
-7.44853e-06
-4.6799e-05
-8.29951e-06
-8.44628e-05
-9.31004e-06
-0.000128938
-1.07074e-05
-0.000182203
-1.2139e-05
-0.000250137
-1.30313e-05
-0.000334017
-1.27137e-05
-0.000435663
-1.80438e-05
-0.000555935
-1.15932e-05
-0.000618044
-0.00120006
-4.96538e-06
-4.48229e-05
-5.8132e-06
-8.35832e-05
-7.04946e-06
-0.000127646
-8.6795e-06
-0.000180589
-1.03135e-05
-0.000248601
-1.14197e-05
-0.000332874
-1.1479e-05
-0.000435631
-1.57465e-05
-0.00055193
-1.05253e-05
-0.000623172
-0.00121067
-2.05101e-06
-4.32048e-05
-2.90063e-06
-8.26997e-05
-4.32023e-06
-0.000126181
-6.05878e-06
-0.000178873
-7.87744e-06
-0.00024683
-9.30518e-06
-0.000331294
-9.80068e-06
-0.00043512
-1.28024e-05
-0.000549187
-8.67743e-06
-0.000627162
-0.00121934
1.95314e-06
-4.23368e-05
9.2713e-07
-8.16221e-05
-6.11627e-07
-0.000124603
-2.32531e-06
-0.000177181
-4.22234e-06
-0.000244947
-6.04508e-06
-0.000329242
-7.016e-06
-0.000434081
-9.14005e-06
-0.000547336
-4.91973e-06
-0.000631405
-0.00122402
7.86057e-06
-4.32185e-05
5.7946e-06
-7.94757e-05
3.62414e-06
-0.000122348
2.28123e-06
-0.000175824
1.04425e-06
-0.000243729
-1.01395e-06
-0.000327046
-4.69138e-06
-0.000430335
-3.83875e-06
-0.00054811
-1.2607e-06
-0.000634383
-0.00122523
4.32619e-06
-4.75096e-05
3.82557e-06
-7.88927e-05
2.82058e-06
-0.000121277
2.05118e-06
-0.000175103
1.63731e-06
-0.000243338
2.36987e-06
-0.000327547
5.66315e-06
-0.000433643
1.31313e-07
-0.000542501
-1.33962e-05
-0.000621041
-0.00123864
6.1223e-06
-5.35804e-05
6.41952e-06
-7.91273e-05
5.63465e-06
-0.000120479
4.9759e-06
-0.000174552
4.41129e-06
-0.00024281
5.23178e-06
-0.000328041
9.38548e-06
-0.000437867
6.55235e-06
-0.000539761
-1.0172e-05
-0.000604407
-0.00124873
7.0677e-06
-4.66537e-05
-1.39362e-05
5.95227e-06
-7.82198e-05
4.87055e-06
-0.000119371
3.76244e-06
-0.000173497
2.72841e-06
-0.000241803
1.74319e-06
-0.000326816
4.34942e-07
-0.000436693
1.30226e-05
-0.000552244
8.65516e-06
-0.000600241
-0.0012402
7.60382e-06
-4.97312e-05
-4.63958e-06
8.05535e-06
-7.89177e-05
8.27638e-06
-0.00011953
8.05757e-06
-0.000173369
7.5009e-06
-0.000241268
6.24794e-06
-0.000325192
4.66817e-06
-0.000435289
8.69174e-06
-0.000556435
1.64769e-06
-0.000593083
-0.00123868
8.12174e-06
-5.3067e-05
-4.97866e-06
9.29156e-06
-8.02878e-05
1.0041e-05
-0.000120195
1.02827e-05
-0.000173691
1.01335e-05
-0.000241159
9.34553e-06
-0.000323974
8.2139e-06
-0.000434089
1.36601e-05
-0.000562202
2.92279e-06
-0.000582295
-0.00123587
9.27616e-06
-5.53611e-05
-7.15102e-06
1.05008e-05
-8.16581e-05
1.14849e-05
-0.000121049
1.20714e-05
-0.000174299
1.23498e-05
-0.000241457
1.20844e-05
-0.00032335
1.09413e-05
-0.000432944
1.73652e-05
-0.000568915
6.54038e-06
-0.000571324
-0.0012294
1.02344e-05
-5.68078e-05
-8.9231e-06
1.14972e-05
-8.29676e-05
1.28148e-05
-0.000122184
1.38854e-05
-0.000175329
1.46631e-05
-0.000242189
1.48843e-05
-0.000323141
1.34063e-05
-0.000431413
1.75292e-05
-0.000573285
8.97845e-06
-0.000562528
-0.00122048
1.00179e-05
-5.77004e-05
-9.20228e-06
1.14851e-05
-8.435e-05
1.33503e-05
-0.000123814
1.51594e-05
-0.000177057
1.67183e-05
-0.000243678
1.77145e-05
-0.00032367
1.65468e-05
-0.000430131
2.01707e-05
-0.000577123
1.38766e-05
-0.000555946
-0.00120666
8.17228e-06
-5.81956e-05
-7.67395e-06
9.97516e-06
-8.59521e-05
1.26441e-05
-0.000126223
1.55124e-05
-0.000179844
1.81847e-05
-0.000246301
2.03695e-05
-0.000325412
2.01149e-05
-0.000429765
2.18655e-05
-0.000579103
1.78802e-05
-0.000551725
-0.00118887
4.725e-06
-5.8307e-05
-4.53816e-06
6.60866e-06
-8.75724e-05
9.91866e-06
-0.000129296
1.37365e-05
-0.000183627
1.73414e-05
-0.000249919
2.08262e-05
-0.000328524
2.26082e-05
-0.000431496
2.82526e-05
-0.000585104
2.52595e-05
-0.000548635
-0.00116367
-3.23868e-07
-5.75472e-05
-3.22903e-07
4.43831e-07
-8.80744e-05
2.22427e-06
-0.000130921
4.23427e-06
-0.000185703
7.42604e-06
-0.000253208
1.26335e-05
-0.000333391
1.65912e-05
-0.000435371
2.78129e-05
-0.000597162
3.78413e-05
-0.000559364
-0.00112494
-1.04373e-05
8.2006e-06
-1.16528e-05
-1.21421e-05
-1.25083e-05
-1.24006e-05
-1.16577e-05
-1.5815e-05
-1.48468e-05
-4.1102e-06
-1.84477e-05
4.44334e-06
-2.8184e-05
4.87645e-06
-3.39927e-05
4.62007e-07
-3.76817e-05
-3.73432e-06
-4.00103e-05
-6.76118e-06
-4.14166e-05
-7.81827e-06
-4.19827e-05
-6.99705e-06
-4.16452e-05
-4.69572e-06
-4.01142e-05
-1.67583e-06
4.9857e-06
-5.8348e-06
1.01755e-05
-1.25819e-05
1.12178e-05
-1.86649e-05
6.05551e-06
-2.31876e-05
3.94153e-07
-2.62836e-05
-3.96577e-06
-2.82163e-05
-6.06393e-06
-2.90566e-05
-6.21589e-06
-2.87109e-05
-5.01286e-06
-2.69927e-05
-3.28618e-06
1.31103e-06
1.45661e-07
9.88279e-06
-2.30991e-06
1.32757e-05
-6.7249e-06
1.00588e-05
-1.10934e-05
4.43122e-06
-1.45819e-05
-7.26622e-07
-1.68699e-05
-3.91224e-06
-1.79994e-05
-5.1119e-06
-1.78858e-05
-5.05123e-06
-1.6518e-05
-4.48314e-06
-1.97163e-06
2.56553e-06
7.2021e-06
3.99574e-06
1.15783e-05
2.50926e-06
1.13012e-05
-4.50593e-07
7.19256e-06
-3.67064e-06
2.35159e-06
-6.16746e-06
-1.4745e-06
-7.66198e-06
-3.58978e-06
-8.07162e-06
-4.52546e-06
-7.54839e-06
-4.81925e-06
-3.97669e-06
2.75176e-06
4.38599e-06
6.22372e-06
7.97889e-06
7.86644e-06
9.57054e-06
7.39294e-06
7.59697e-06
5.65356e-06
4.05265e-06
3.65455e-06
5.35143e-07
2.06488e-06
-1.93598e-06
1.0972e-06
-3.4372e-06
7.0953e-07
-4.27393e-06
-4.43558e-06
2.18479e-06
2.17535e-06
5.82394e-06
4.30666e-06
9.10794e-06
6.31098e-06
1.08007e-05
5.93113e-06
1.09714e-05
3.91806e-06
1.01413e-05
1.41774e-06
8.98508e-06
-7.06345e-07
7.86901e-06
-2.2234e-06
6.97135e-06
-3.26133e-06
-3.82048e-06
1.49415e-06
6.79001e-07
4.51114e-06
1.32683e-06
8.06902e-06
2.86719e-06
1.08049e-05
3.28955e-06
1.22637e-05
2.5442e-06
1.25738e-05
1.18824e-06
1.21339e-05
-1.85132e-07
1.12445e-05
-1.24951e-06
1.01533e-05
-2.07798e-06
-2.55368e-06
1.07684e-06
-3.86515e-07
3.25091e-06
-7.55785e-07
6.13323e-06
1.70301e-07
8.73795e-06
8.26847e-07
1.05264e-05
8.741e-07
1.13542e-05
4.62916e-07
1.13703e-05
-1.08103e-07
1.07939e-05
-5.86559e-07
9.75773e-06
-9.58717e-07
-1.04152e-06
6.89774e-07
-1.05661e-06
1.87797e-06
-1.81647e-06
3.53151e-06
-1.30179e-06
5.13327e-06
-6.41536e-07
6.35257e-06
-2.37402e-07
6.9877e-06
-7.98433e-08
7.03024e-06
-6.68008e-08
6.60016e-06
-8.00306e-08
5.73762e-06
-3.40301e-08
4.026e-07
-1.03592e-06
-2.76407e-06
-4.00436e-06
-4.59831e-06
-4.7966e-06
-4.8428e-06
-4.88099e-06
-4.94036e-06
-4.96702e-06
)
;

boundaryField
{
    right
    {
        type            cyclic;
        value           nonuniform List<scalar> 
20
(
0.00112937
0.000569201
0.000596841
0.000431241
0.000334185
0.000253298
0.000185317
0.000130383
8.66859e-05
5.51268e-05
3.65625e-05
2.28157e-05
1.26376e-05
4.98215e-06
-1.57991e-06
-6.62722e-06
-9.13571e-06
-8.49658e-06
-4.5429e-06
4.58209e-06
)
;
    }
    left
    {
        type            cyclic;
        value           nonuniform List<scalar> 
20
(
-0.00112937
-0.000569201
-0.000596841
-0.000431241
-0.000334185
-0.000253298
-0.000185317
-0.000130383
-8.66859e-05
-5.51268e-05
-3.65625e-05
-2.28157e-05
-1.26376e-05
-4.98215e-06
1.57991e-06
6.62722e-06
9.13571e-06
8.49658e-06
4.5429e-06
-4.58209e-06
)
;
    }
    outerWall
    {
        type            calculated;
        value           uniform 0;
    }
    stirrerWall
    {
        type            calculated;
        value           uniform 0;
    }
    top
    {
        type            empty;
        value           nonuniform List<scalar> 0();
    }
    bottom
    {
        type            empty;
        value           nonuniform List<scalar> 0();
    }
}


// ************************************************************************* //
