/*--------------------------------*- C++ -*----------------------------------*\
  =========                 |
  \\      /  F ield         | OpenFOAM: The Open Source CFD Toolbox
   \\    /   O peration     | Website:  https://openfoam.org
    \\  /    A nd           | Version:  10
     \\/     M anipulation  |
\*---------------------------------------------------------------------------*/
FoamFile
{
    format      ascii;
    class       volVectorField;
    location    "800";
    object      U;
}
// * * * * * * * * * * * * * * * * * * * * * * * * * * * * * * * * * * * * * //

dimensions      [0 1 -1 0 0 0 0];

internalField   nonuniform List<vector> 
420
(
(0.423663 8.46998 8.82291e-18)
(-0.727652 10.5274 -6.5807e-17)
(-0.229671 12.1594 -2.70335e-16)
(-0.119329 13.4922 7.29872e-17)
(-0.142654 14.5774 -4.76239e-16)
(-0.285468 15.4745 0)
(-0.595871 16.2518 0)
(-0.924072 16.9143 3.92399e-16)
(-1.19309 17.3116 -4.60863e-16)
(-1.38448 17.3656 0)
(-0.179806 8.31797 3.10017e-17)
(-1.33575 10.3075 -1.68833e-16)
(-1.17652 11.9969 8.62643e-16)
(-1.21557 13.386 -1.12562e-15)
(-1.37983 14.5718 3.65854e-16)
(-1.66614 15.6056 3.31106e-18)
(-2.04526 16.4932 2.91921e-15)
(-2.3843 17.1775 -6.36175e-16)
(-2.62196 17.4785 1.00265e-15)
(-2.76039 17.406 0)
(-0.812052 8.30633 1.39058e-16)
(-2.06902 10.1323 -8.61008e-16)
(-2.14166 11.7948 8.55238e-16)
(-2.33212 13.2211 1.29079e-15)
(-2.61166 14.4982 -8.78176e-16)
(-2.97082 15.6458 4.14459e-15)
(-3.34415 16.597 1.88979e-15)
(-3.66897 17.2526 4.18063e-15)
(-3.90214 17.4756 -1.49592e-15)
(-4.02085 17.3148 -3.30686e-15)
(-1.44726 8.22434 -6.3324e-17)
(-2.83852 9.94129 7.46221e-16)
(-3.06089 11.5497 -1.10412e-15)
(-3.37236 12.993 8.93998e-16)
(-3.735 14.335 -1.79196e-15)
(-4.13477 15.5564 1.85742e-15)
(-4.51395 16.5512 -1.06531e-14)
(-4.83881 17.1857 0)
(-5.09311 17.387 -3.65713e-15)
(-5.21325 17.1649 3.21788e-15)
(-2.07817 8.11331 0)
(-3.61514 9.7036 4.89959e-16)
(-3.94192 11.2403 -4.74435e-16)
(-4.34334 12.6745 0)
(-4.76422 14.0503 -2.92879e-16)
(-5.1906 15.3188 -2.92136e-16)
(-5.58118 16.3523 3.56013e-15)
(-5.91828 17.0103 -4.38052e-15)
(-6.2223 17.2474 0)
(-6.36806 16.9841 -1.36876e-14)
(-2.70935 7.97882 2.4184e-17)
(-4.37864 9.40649 0)
(-4.7854 10.8561 0)
(-5.25095 12.2542 1.67031e-15)
(-5.71247 13.6334 -2.43382e-15)
(-6.15998 14.9209 2.71103e-15)
(-6.58559 16.0029 6.644e-16)
(-6.95661 16.7438 1.04056e-14)
(-7.31452 17.0623 -1.22773e-14)
(-7.51242 16.7878 7.09426e-15)
(-3.34537 7.81795 0)
(-5.12037 9.04905 -4.94725e-16)
(-5.58357 10.398 -2.69618e-15)
(-6.09649 11.7339 -9.71589e-16)
(-6.593 13.0843 -4.45765e-15)
(-7.07429 14.3796 2.71508e-15)
(-7.55643 15.5053 -6.70593e-15)
(-8.01176 16.3741 7.61747e-16)
(-8.42245 16.8273 -3.96912e-15)
(-8.68933 16.589 -1.1548e-14)
(-4.00263 7.62971 -4.94536e-17)
(-5.82421 8.63388 4.98057e-16)
(-6.32051 9.87855 3.46314e-15)
(-6.87206 11.1362 5.26333e-16)
(-7.41074 12.428 2.59339e-15)
(-7.93971 13.7003 0)
(-8.4853 14.8761 6.69411e-15)
(-9.05112 15.8843 8.36068e-15)
(-9.51722 16.5648 1.06431e-14)
(-9.89222 16.4325 8.99524e-15)
(-4.69791 7.39002 -4.91443e-17)
(-6.43408 8.1632 5.06956e-16)
(-6.94719 9.29641 -5.39468e-16)
(-7.54071 10.4453 -2.15081e-15)
(-8.1301 11.634 7.11281e-15)
(-8.7082 12.8397 9.16496e-15)
(-9.30021 14.0166 -3.09947e-15)
(-9.91269 15.1104 0)
(-10.4614 16.0325 0)
(-11.047 16.1739 -9.47183e-15)
(-5.5162 7.03638 1.55993e-17)
(-6.95668 7.73245 7.83091e-16)
(-7.58797 8.75862 0)
(-8.34099 9.79684 0)
(-9.09971 10.8359 -3.57663e-15)
(-9.83477 11.8909 -1.12231e-17)
(-10.5401 12.9732 6.50781e-15)
(-11.1945 14.079 -1.41546e-14)
(-11.8114 15.1089 1.62707e-14)
(-12.4339 15.4959 1.31553e-15)
(-1.46246 17.0585 0)
(-1.45368 16.4253 0)
(-1.34329 15.5705 0)
(-1.23899 14.7315 -7.56148e-16)
(-1.17275 13.9128 0)
(-0.900278 13.2416 0)
(-1.68022 12.6945 7.83951e-16)
(0.181423 10.5594 0)
(-1.31758 16.376 0)
(-2.34184 2.64884 0)
(-2.77402 16.9718 1.39155e-15)
(-2.68982 16.2477 2.34386e-15)
(-2.50651 15.3737 1.22494e-16)
(-2.3544 14.56 8.25262e-16)
(-2.23367 13.7507 5.59342e-17)
(-1.98154 13.0686 1.03764e-15)
(-2.47667 12.5043 7.98152e-17)
(-0.684416 10.8306 1.05626e-16)
(-2.48468 15.7846 -2.9222e-15)
(-2.52086 2.25077 -5.75061e-16)
(-3.98879 16.7916 1.2411e-15)
(-3.85211 16.0081 0)
(-3.61846 15.1392 -1.84777e-15)
(-3.44274 14.3531 -1.58008e-15)
(-3.28996 13.5544 4.74661e-15)
(-3.05581 12.8568 -9.9201e-16)
(-3.37678 12.2441 1.62513e-15)
(-1.57724 11.0917 0)
(-3.89589 15.2297 3.19087e-15)
(-2.21393 1.68589 -9.90948e-18)
(-5.15533 16.562 2.76283e-15)
(-4.96695 15.7203 6.77561e-15)
(-4.6808 14.8611 -7.09678e-15)
(-4.47955 14.0985 2.81983e-15)
(-4.28733 13.3071 3.18985e-17)
(-4.0517 12.5956 0)
(-4.20995 11.9374 -1.61104e-15)
(-2.43758 11.2281 -2.87285e-15)
(-5.09583 14.5474 -3.13402e-15)
(-2.0608 1.16026 2.55267e-15)
(-6.29226 16.2926 2.53412e-15)
(-6.03846 15.3868 -2.19703e-15)
(-5.69682 14.5429 7.26487e-15)
(-5.47282 13.7989 -2.88764e-15)
(-5.23784 13.0102 2.46131e-15)
(-4.98798 12.2776 -3.9233e-15)
(-4.99817 11.5921 3.53459e-15)
(-3.26173 11.2907 3.11557e-15)
(-6.14114 13.8004 0)
(-1.97357 0.64922 -5.08334e-15)
(-7.42097 15.9804 3.10201e-15)
(-7.06992 15.0052 -1.33552e-14)
(-6.67007 14.1891 -3.84351e-15)
(-6.42691 13.4605 9.02141e-15)
(-6.14522 12.6717 7.66834e-15)
(-5.87248 11.9124 2.52697e-16)
(-5.75926 11.1994 1.72371e-16)
(-4.02391 11.2838 -2.98909e-15)
(-7.19485 13.0145 -2.62601e-15)
(-1.78906 0.165955 5.39648e-15)
(-8.55921 15.6075 3.18909e-15)
(-8.06458 14.5649 4.72441e-15)
(-7.60466 13.7933 0)
(-7.34575 13.0803 -3.00385e-15)
(-7.014 12.2934 -4.85898e-15)
(-6.71328 11.5065 2.80922e-16)
(-6.50196 10.7665 -1.04645e-14)
(-4.73096 11.2153 -3.16594e-15)
(-8.16211 12.1749 5.8622e-15)
(-1.53908 -0.258755 -2.86384e-15)
(-9.67478 15.1542 1.24592e-14)
(-9.01539 14.0592 -4.36235e-15)
(-8.49715 13.3595 0)
(-8.22201 12.6648 -1.64563e-16)
(-7.84381 11.8877 2.04935e-14)
(-7.51429 11.0792 -8.49829e-15)
(-7.23423 10.3002 -7.94412e-15)
(-5.37321 11.1102 6.2757e-15)
(-9.06881 11.3242 -6.85147e-15)
(-1.2628 -0.600607 0)
(-10.5963 14.6604 3.19523e-16)
(-9.9374 13.5169 -4.48057e-15)
(-9.34335 12.914 0)
(-9.03307 12.2315 6.70887e-15)
(-8.61243 11.475 -1.56292e-14)
(-8.25667 10.6579 8.81346e-15)
(-7.94509 9.80999 3.6941e-15)
(-5.89086 10.9634 0)
(-9.93146 10.5123 -2.66086e-16)
(-1.00464 -0.820712 2.53944e-15)
(-11.0413 14.3451 4.29102e-16)
(-10.843 12.9635 2.45392e-17)
(-10.1809 12.417 0)
(-9.7717 11.7387 -1.33955e-14)
(-9.28084 11.0159 4.99442e-15)
(-8.89882 10.2429 -4.84906e-15)
(-8.67594 9.3353 4.43615e-15)
(-6.33678 10.8507 7.22251e-16)
(-10.5578 9.37183 -8.9742e-17)
(-0.844938 -0.822575 -2.51063e-15)
(-10.8174 14.1885 3.0437e-15)
(-11.5164 12.4591 -5.2083e-15)
(-10.8635 11.9931 0)
(-10.3598 11.3425 0)
(-9.80507 10.6517 0)
(-9.32173 9.94297 -2.4444e-15)
(-8.91114 9.09916 9.84858e-15)
(-6.62344 11.062 0)
(-11.8076 8.47872 0)
(-0.555189 -1.0516 0)
(-11.3577 13.4287 -2.95092e-15)
(-12.06 12.098 -5.2005e-15)
(-11.4763 11.5974 0)
(-10.9108 10.9402 3.65821e-15)
(-10.3132 10.2477 -2.77567e-15)
(-9.79127 9.49182 2.4747e-15)
(-9.21038 8.61031 3.89012e-15)
(-6.98023 11.0012 -2.39123e-16)
(-12.3117 8.73163 1.76562e-15)
(-0.388916 -1.43601 0)
(-12.9255 11.6899 3.37907e-16)
(-12.7494 11.357 -2.76177e-17)
(-12.248 10.7932 0)
(-11.6162 10.1814 2.61839e-16)
(-10.9552 9.54592 6.06001e-15)
(-10.4218 8.72321 -4.33443e-15)
(-9.84239 7.64461 -1.17104e-14)
(-7.60092 10.2838 -8.22498e-15)
(-12.5633 9.00391 1.41179e-14)
(-0.320998 -1.68298 2.50037e-15)
(-13.9466 10.753 -1.35402e-14)
(-13.5078 10.4501 5.06181e-15)
(-12.9393 10.0135 0)
(-12.2469 9.48547 -7.32713e-15)
(-11.5214 8.93996 -6.0042e-15)
(-10.9538 8.18641 9.51624e-15)
(-10.3835 7.01217 3.99071e-15)
(-7.9561 9.61973 0)
(-13.4687 7.62031 -6.02255e-15)
(-0.296769 -1.48033 4.95283e-16)
(-14.4431 9.55496 -3.43133e-16)
(-14.1282 9.41902 5.16724e-15)
(-13.5683 9.08156 0)
(-12.8522 8.63651 1.46723e-14)
(-12.0916 8.19054 2.85314e-17)
(-11.4993 7.54414 -1.81702e-16)
(-10.939 6.25655 8.71626e-15)
(-8.35212 9.14061 -7.27443e-15)
(-14.245 6.97484 -6.89056e-15)
(-0.249328 -1.5152 0)
(-14.8639 8.42437 -3.22646e-15)
(-14.6551 8.37024 1.05562e-14)
(-14.1232 8.09293 9.06722e-15)
(-13.3936 7.72164 -1.03798e-14)
(-12.6096 7.36927 -1.78407e-14)
(-11.9884 6.84675 -2.87024e-16)
(-11.4301 5.43155 -4.06311e-15)
(-8.66906 8.5251 -3.89708e-15)
(-14.9732 6.31762 -5.78254e-15)
(-0.251968 -1.46727 -1.95435e-15)
(-15.2784 7.30231 -9.2254e-15)
(-15.1162 7.28207 4.98955e-15)
(-14.5987 7.05721 -3.79943e-15)
(-13.854 6.7637 -1.04312e-14)
(-13.055 6.5049 8.18889e-15)
(-12.411 6.11985 -2.54037e-16)
(-11.8602 4.61456 7.67274e-15)
(-9.045 7.82266 4.10484e-15)
(-15.6892 5.36522 2.4706e-15)
(-0.279244 -1.16683 -4.22149e-16)
(-15.6892 6.10846 2.52416e-15)
(-15.5224 6.10331 -2.38122e-15)
(-14.9922 5.93793 -1.26934e-16)
(-14.2265 5.73382 9.97468e-15)
(-13.4204 5.57928 -1.38272e-14)
(-12.7676 5.35816 4.40222e-15)
(-12.2114 3.81468 -3.99215e-15)
(-9.49483 7.03704 1.0617e-14)
(-16.2226 4.62029 0)
(-0.464522 -0.82378 -3.9529e-17)
(-16.072 4.80273 2.6686e-15)
(-15.8506 4.80024 2.3091e-15)
(-15.2751 4.71068 3.98227e-15)
(-14.4811 4.61537 -6.32027e-15)
(-13.677 4.5786 2.59302e-15)
(-13.0381 4.54668 0)
(-12.4818 3.01113 -1.70634e-15)
(-9.85216 6.14664 -6.98887e-15)
(-16.6425 3.78897 -7.51359e-17)
(-0.904449 -0.371125 2.44917e-15)
(-16.4032 3.389 1.1599e-15)
(-16.0877 3.36907 0)
(-15.4366 3.35647 1.90283e-15)
(-14.6181 3.37466 1.66096e-15)
(-13.8356 3.44614 1.14926e-16)
(-13.2086 3.58543 -1.01473e-15)
(-12.6468 2.11092 1.66453e-15)
(-10.3365 5.25514 0)
(-16.8321 3.28997 3.09464e-15)
(-1.67081 -0.0786263 2.5657e-15)
(-16.6713 1.87604 1.28647e-15)
(-16.2549 1.80405 -2.26156e-15)
(-15.515 1.80386 -1.35224e-16)
(-14.6661 1.77841 6.29895e-16)
(-13.8831 1.82797 -6.2707e-17)
(-13.2605 2.23469 9.68524e-16)
(-12.4841 0.737472 -1.58516e-15)
(-10.0627 4.0346 -1.65122e-16)
(-16.993 2.88691 2.66312e-15)
(-2.04254 -0.432503 -1.95533e-15)
(-16.9349 0.0295714 1.95387e-29)
(-16.4076 -0.0903675 0)
(-15.5921 -0.137728 0)
(-14.7436 -0.150886 -7.52413e-16)
(-13.9191 -0.162941 0)
(-13.2567 0.205938 0)
(-12.8404 -1.12359 7.7025e-16)
(-10.3082 1.09905 0)
(-16.3621 1.04471 0)
(-3.95911 -3.84088 -8.19885e-30)
(-14.2461 12.8099 9.79053e-16)
(-14.7009 10.8143 -7.58033e-15)
(-14.9267 9.52571 7.54365e-15)
(-15.1294 8.37835 -1.06797e-14)
(-15.416 7.28306 6.6294e-15)
(-15.7487 6.11476 -1.24876e-14)
(-16.0972 4.83098 2.87574e-15)
(-16.4388 3.43423 -2.91581e-15)
(-16.7481 1.96407 0)
(-17.1148 0.198663 -3.49303e-16)
(-14.8221 12.0887 1.43033e-14)
(-15.0512 10.2868 0)
(-15.191 9.18706 7.78295e-15)
(-15.2327 8.13825 -3.2486e-15)
(-15.3954 7.11015 -1.07451e-14)
(-15.6418 5.98966 0)
(-15.9386 4.75874 -3.03782e-15)
(-16.2534 3.43217 -1.24811e-15)
(-16.5493 2.05576 8.26956e-16)
(-16.9495 0.421495 -3.60921e-16)
(-14.4765 11.1954 -1.18258e-14)
(-14.9291 9.63502 0)
(-15.1557 8.67155 7.06292e-15)
(-15.1686 7.74274 6.56882e-16)
(-15.2397 6.80631 9.11511e-15)
(-15.403 5.76053 -3.65211e-15)
(-15.6421 4.61691 0)
(-15.9144 3.38838 3.28033e-15)
(-16.1718 2.1197 -5.2591e-16)
(-16.5251 0.64909 4.16594e-16)
(-13.4054 10.3808 5.38695e-15)
(-14.3414 9.05635 -2.29234e-15)
(-14.8403 8.08555 5.31369e-15)
(-14.982 7.25568 -5.95086e-15)
(-15.0293 6.42769 6.53265e-16)
(-15.1209 5.49916 3.8616e-15)
(-15.2979 4.44984 -1.01228e-14)
(-15.51 3.3225 1.61576e-15)
(-15.7072 2.15113 2.46391e-15)
(-15.9492 0.852145 6.48125e-17)
(-12.1772 9.63287 -8.11805e-15)
(-13.2689 8.52177 6.55567e-15)
(-14.086 7.55398 0)
(-14.4798 6.75033 2.19487e-15)
(-14.6662 5.98577 2.45252e-15)
(-14.7775 5.17258 -2.88433e-16)
(-14.907 4.24387 1.76353e-15)
(-15.0565 3.23073 3.94538e-15)
(-15.1881 2.15661 -1.03143e-17)
(-15.3162 1.00594 3.62023e-16)
(-10.9708 8.89997 -3.27024e-15)
(-12.0077 7.99444 5.15569e-15)
(-12.9268 7.068 1.93721e-15)
(-13.5397 6.27612 -3.31703e-15)
(-13.907 5.54072 -2.01763e-15)
(-14.1306 4.7831 -2.50463e-16)
(-14.2872 3.94163 -3.63776e-15)
(-14.4127 3.01628 1.08217e-15)
(-14.498 2.0321 3.4942e-16)
(-14.5488 0.995441 -3.73992e-16)
(-9.84644 8.16891 0)
(-10.7095 7.44231 -1.72461e-15)
(-11.5907 6.6057 4.34703e-16)
(-12.2969 5.83985 -7.77406e-16)
(-12.7882 5.11513 1.32253e-15)
(-13.1167 4.38038 0)
(-13.3384 3.59471 8.24088e-16)
(-13.4767 2.74136 1.2033e-15)
(-13.5418 1.84203 -1.08748e-15)
(-13.5453 0.89907 -2.78389e-17)
(-8.78643 7.43992 0)
(-9.46647 6.86743 -4.5273e-16)
(-10.2197 6.14383 2.91867e-15)
(-10.8933 5.42378 -2.15958e-15)
(-11.4186 4.71245 0)
(-11.7979 3.9905 -3.89312e-16)
(-12.0571 3.23179 -9.80138e-16)
(-12.216 2.41942 7.83427e-16)
(-12.2808 1.57556 8.15236e-16)
(-12.2612 0.69326 -3.16174e-16)
(-7.75196 6.66724 -8.68888e-16)
(-8.29788 6.21268 4.52602e-16)
(-8.90718 5.549 4.35618e-16)
(-9.47295 4.84968 -4.2347e-16)
(-9.93696 4.14042 0)
(-10.2886 3.42023 4.16561e-16)
(-10.5309 2.68087 6.23903e-16)
(-10.6754 1.91515 -7.272e-16)
(-10.7194 1.12088 -1.54661e-16)
(-10.6925 0.266051 1.25039e-17)
(-6.35433 6.2513 -2.28187e-16)
(-6.52486 6.03109 7.83624e-17)
(-6.85867 5.49121 6.4085e-17)
(-7.21861 4.8714 0)
(-7.55741 4.2505 -2.61225e-17)
(-7.8581 3.63526 0)
(-8.11064 3.01706 -1.14366e-16)
(-8.31133 2.39009 1.61854e-16)
(-8.4538 1.75833 3.42388e-17)
(-8.58808 1.10066 -1.01104e-17)
)
;

boundaryField
{
    right
    {
        type            cyclic;
    }
    left
    {
        type            cyclic;
    }
    outerWall
    {
        type            calculated;
        value           nonuniform List<vector> 
22
(
(-1.55201 41.8305 0)
(-4.64749 41.6006 0)
(-7.71741 41.1419 0)
(-10.7449 40.4569 0)
(-13.7132 39.5492 0)
(-16.6061 38.424 0)
(-19.4075 37.0874 0)
(-22.1022 35.5467 0)
(-24.6752 33.8104 0)
(-27.1124 31.8882 0)
(-28.9573 30.2506 0)
(-30.2506 28.9573 0)
(-31.8882 27.1124 0)
(-33.8104 24.6752 0)
(-35.5467 22.1022 0)
(-37.0874 19.4075 0)
(-38.424 16.6061 0)
(-39.5492 13.7132 0)
(-40.4569 10.7449 0)
(-41.1419 7.71741 0)
(-41.6006 4.64749 0)
(-41.8305 1.55201 0)
)
;
    }
    stirrerWall
    {
        type            calculated;
        value           nonuniform List<vector> 
42
(
(-0.310178 8.3662 0)
(-0.928834 8.32046 0)
(-1.54239 8.22894 0)
(-2.14746 8.09214 0)
(-2.74072 7.91082 0)
(-3.31888 7.68598 0)
(-3.87877 7.41885 0)
(-4.41729 7.11092 0)
(-4.93148 6.76387 0)
(-5.4185 6.37963 0)
(-6.07951 6.64185 0)
(-6.92878 7.56862 0)
(-7.77806 8.49539 0)
(-8.62734 9.42216 0)
(-9.47661 10.3489 0)
(-10.3259 11.2757 0)
(-11.1752 12.2025 0)
(-12.0244 13.1292 0)
(-12.8737 14.056 0)
(-13.723 14.9828 0)
(-14.4723 15.1215 0)
(-15.1215 14.4723 0)
(-14.9828 13.723 0)
(-14.056 12.8737 0)
(-13.1292 12.0244 0)
(-12.2025 11.1752 0)
(-11.2757 10.3259 0)
(-10.3489 9.47661 0)
(-9.42216 8.62734 0)
(-8.49539 7.77806 0)
(-7.56862 6.92878 0)
(-6.64185 6.07951 0)
(-6.37963 5.4185 0)
(-6.76387 4.93148 0)
(-7.11092 4.41729 0)
(-7.41885 3.87877 0)
(-7.68598 3.31888 0)
(-7.91082 2.74072 0)
(-8.09214 2.14746 0)
(-8.22894 1.54239 0)
(-8.32046 0.928834 0)
(-8.3662 0.310178 0)
)
;
    }
    top
    {
        type            empty;
    }
    bottom
    {
        type            empty;
    }
}


// ************************************************************************* //
