/*--------------------------------*- C++ -*----------------------------------*\
  =========                 |
  \\      /  F ield         | OpenFOAM: The Open Source CFD Toolbox
   \\    /   O peration     | Website:  https://openfoam.org
    \\  /    A nd           | Version:  10
     \\/     M anipulation  |
\*---------------------------------------------------------------------------*/
FoamFile
{
    format      ascii;
    class       volVectorField;
    location    "800";
    object      U;
}
// * * * * * * * * * * * * * * * * * * * * * * * * * * * * * * * * * * * * * //

dimensions      [0 1 -1 0 0 0 0];

internalField   nonuniform List<vector> 
2000
(
(4.14424 39.894 2.24502e-17)
(1.2645 50.6222 1.34993e-17)
(2.44642 58.0132 -1.07993e-17)
(3.89432 64.1276 0)
(5.18846 69.3882 0)
(6.34448 73.6729 3.72366e-16)
(7.23767 77.069 -4.48699e-16)
(7.87973 79.7157 -5.33599e-16)
(8.04139 81.7343 6.35527e-16)
(7.79773 83.2279 7.7254e-16)
(7.0151 84.3909 9.65502e-16)
(5.73841 85.7036 0)
(4.20843 88.1185 1.59708e-15)
(3.74123 91.0936 2.04777e-15)
(2.43717 92.4233 2.83986e-15)
(0.97724 91.5909 3.31559e-15)
(0.416164 88.9464 -2.25353e-15)
(-0.282218 86.8235 8.75137e-16)
(-0.724056 85.1961 7.61836e-16)
(-1.01098 84.1804 2.90123e-15)
(2.30998 40.8718 -1.19039e-16)
(-2.28107 50.7283 -3.24094e-18)
(-0.930645 57.2901 -2.02372e-16)
(-0.0888526 63.1857 -7.49485e-16)
(1.16767 68.3145 1.37152e-16)
(2.56337 72.5785 -1.67933e-15)
(3.80633 76.1241 9.15666e-16)
(4.77901 79.0628 1.6721e-15)
(5.26482 81.467 6.33171e-16)
(5.19999 83.4111 7.48157e-16)
(4.56159 85.0696 -1.79172e-15)
(3.37435 86.7928 -1.08002e-15)
(1.86552 89.0228 -1.4041e-15)
(1.05115 91.4281 -1.74648e-15)
(0.985559 92.875 -7.7661e-15)
(0.246168 93.1352 -4.5816e-15)
(-0.478026 89.904 7.63681e-15)
(-1.52274 87.5671 -5.6439e-15)
(-2.23559 85.7248 0)
(-2.71195 84.462 -4.39378e-15)
(0.622185 40.329 7.67372e-17)
(-3.87205 50.108 -1.19829e-16)
(-2.53275 56.6054 1.90092e-16)
(-1.97293 62.2734 6.99207e-16)
(-0.971069 67.2245 1.3522e-15)
(0.251362 71.4765 3.68326e-16)
(1.37477 75.156 9.77189e-16)
(2.26488 78.3594 -1.64567e-15)
(2.76839 81.1191 -1.29202e-15)
(2.80954 83.5432 -1.48425e-15)
(2.38976 85.6422 1.72751e-15)
(1.53175 87.7196 0)
(0.53001 89.8683 -4.72901e-15)
(-0.0361435 91.8553 0)
(-0.185684 93.1431 0)
(-0.962491 93.9634 0)
(-2.00584 91.4172 6.3833e-15)
(-2.98535 88.5758 -8.04723e-15)
(-3.81893 86.4363 0)
(-4.40512 84.9051 3.01675e-15)
(-1.03894 39.7953 1.00485e-17)
(-5.27359 49.0884 2.41738e-16)
(-3.88905 55.7102 0)
(-3.30592 61.169 1.3262e-15)
(-2.52126 65.9494 4.98699e-16)
(-1.53634 70.1634 2.14105e-16)
(-0.618218 73.9275 -1.77603e-17)
(0.110455 77.3357 3.23928e-15)
(0.54077 80.4172 0)
(0.622316 83.1852 1.29477e-15)
(0.351419 85.6726 1.50904e-15)
(-0.299439 88.013 3.59741e-15)
(-1.05068 90.1647 4.23933e-15)
(-1.58704 92.0869 1.00613e-14)
(-1.91195 93.3933 -6.20115e-15)
(-2.3719 94.2321 -5.07661e-16)
(-3.65181 92.8805 2.24381e-14)
(-4.46582 89.7022 8.4618e-15)
(-5.38463 87.2834 6.99687e-15)
(-6.04841 85.4996 6.13587e-15)
(-2.65756 39.1683 0)
(-6.88252 47.8319 -5.15013e-16)
(-5.44218 54.5866 -4.52201e-16)
(-4.77583 59.9347 -1.64541e-15)
(-4.11566 64.608 -2.19007e-15)
(-3.3177 68.7833 7.37748e-16)
(-2.58126 72.5901 -1.98933e-15)
(-2.01278 76.13 -3.22375e-15)
(-1.67173 79.4389 -1.14028e-15)
(-1.58884 82.496 1.29754e-16)
(-1.79906 85.305 -2.82835e-15)
(-2.3464 87.8586 -3.37083e-15)
(-2.99814 90.091 -3.67576e-15)
(-3.54741 92.0938 -4.38378e-15)
(-3.85792 93.5592 0)
(-4.08455 94.52 2.27721e-16)
(-5.57536 94.1925 2.69735e-16)
(-5.97919 90.7153 -7.8129e-15)
(-6.89404 88.1123 -1.98955e-14)
(-7.63761 86.1866 5.41536e-15)
(-4.2059 38.5232 0)
(-8.72047 46.4437 2.77247e-16)
(-7.23929 53.2164 0)
(-6.49132 58.5482 1.05259e-15)
(-5.89021 63.1941 2.69293e-15)
(-5.23396 67.3667 0)
(-4.65936 71.2043 3.81043e-15)
(-4.24088 74.8184 6.48705e-15)
(-4.00317 78.2679 0)
(-3.95482 81.5373 -2.31198e-15)
(-4.15536 84.6075 5.76543e-15)
(-4.65711 87.3723 2.86032e-16)
(-5.29626 89.7637 3.72904e-15)
(-5.86582 91.8659 -3.67181e-15)
(-6.20001 93.4544 0)
(-6.1767 94.6765 -1.1941e-14)
(-7.70998 95.4216 -9.2431e-15)
(-7.68588 91.7796 0)
(-8.54679 89.0244 1.22677e-14)
(-9.34973 87.004 -2.09261e-14)
(-5.67333 37.9311 2.02083e-16)
(-10.6073 45.0408 -3.17514e-19)
(-9.21581 51.6064 -8.48131e-16)
(-8.40965 56.9395 -4.0623e-16)
(-7.83806 61.6289 -1.51607e-16)
(-7.30121 65.8584 -1.88321e-15)
(-6.88623 69.7469 3.63319e-15)
(-6.6186 73.4076 -6.34848e-15)
(-6.50688 76.9324 -6.96929e-15)
(-6.53601 80.3353 4.77783e-15)
(-6.76916 83.5921 -2.9037e-15)
(-7.26168 86.5875 -2.93582e-15)
(-7.88563 89.1563 2.9089e-15)
(-8.45518 91.3995 -6.64086e-15)
(-8.89898 93.0717 0)
(-8.89585 94.3151 2.13669e-14)
(-10.045 95.5965 -3.0449e-14)
(-9.83569 92.6501 1.2101e-14)
(-10.4949 89.8784 1.12185e-14)
(-11.3157 87.8564 4.00423e-16)
(-7.08059 37.3796 3.7809e-17)
(-12.4889 43.7192 -3.09145e-16)
(-11.2726 49.8327 1.21084e-15)
(-10.472 55.0995 -1.67681e-15)
(-9.93595 59.8672 -2.87623e-15)
(-9.51191 64.2046 0)
(-9.258 68.1806 -3.91435e-15)
(-9.15866 71.8939 0)
(-9.2072 75.4557 4.63293e-15)
(-9.34444 78.9189 0)
(-9.66544 82.2846 0)
(-10.1657 85.4236 -4.47825e-16)
(-10.7644 88.2594 1.1075e-14)
(-11.2663 90.6928 6.38539e-15)
(-11.7216 92.4585 6.23684e-16)
(-11.7877 93.6429 -8.53079e-15)
(-12.4965 95.06 0)
(-12.5006 93.1409 0)
(-12.8764 90.5215 9.67887e-15)
(-13.7171 88.6312 1.83231e-14)
(-8.46046 36.8878 -1.77046e-16)
(-14.3277 42.5555 -3.75201e-16)
(-13.3318 47.9942 8.17933e-16)
(-12.6359 53.0616 -7.52095e-16)
(-12.1747 57.8927 -1.65866e-15)
(-11.871 62.3638 1.45539e-15)
(-11.7785 66.4615 2.05492e-15)
(-11.8616 70.2538 -1.87297e-15)
(-12.1012 73.848 0)
(-12.4157 77.3204 -4.77689e-15)
(-12.8601 80.7115 4.40307e-15)
(-13.4041 83.9903 -4.9873e-15)
(-13.9968 86.9434 0)
(-14.4239 89.5112 1.01266e-16)
(-14.852 91.5531 5.5275e-16)
(-15.0042 92.7313 8.4842e-15)
(-15.47 94.2919 -2.03373e-14)
(-15.6711 93.2144 9.68205e-15)
(-15.8664 90.8892 -9.19477e-15)
(-16.7405 89.2323 -8.5999e-15)
(-9.83689 36.4501 0)
(-16.0501 41.463 -3.551e-17)
(-15.2854 46.1938 -1.64345e-15)
(-14.894 50.9197 1.38965e-16)
(-14.5575 55.7143 0)
(-14.4047 60.2966 0)
(-14.4801 64.5314 -5.63428e-15)
(-14.7456 68.4347 1.84422e-15)
(-15.1784 72.0772 -8.5447e-15)
(-15.7118 75.5428 -4.95611e-16)
(-16.3139 78.9044 8.83086e-15)
(-16.9544 82.2201 -4.26304e-15)
(-17.5773 85.3231 4.75236e-16)
(-17.9968 87.8668 5.71268e-16)
(-18.4357 90.1999 -5.68064e-15)
(-18.6592 91.4256 0)
(-19.1823 93.0848 -9.52377e-15)
(-19.4859 92.6535 3.72847e-14)
(-19.6013 90.8278 -1.5987e-14)
(-20.5159 89.5273 7.7885e-15)
(-11.2373 36.0563 4.52489e-17)
(-17.6918 40.4026 6.01691e-16)
(-17.0983 44.4871 1.60122e-15)
(-17.1683 48.7588 1.0688e-15)
(-17.0845 53.4047 1.36731e-15)
(-17.136 57.9913 0)
(-17.4127 62.3322 1.8826e-15)
(-17.8618 66.3595 1.8465e-15)
(-18.4926 70.0874 -4.07008e-15)
(-19.2661 73.5588 8.48752e-15)
(-20.1007 76.8452 4.49201e-15)
(-20.8518 80.1067 -4.47601e-15)
(-21.5303 83.2439 8.83812e-15)
(-21.9923 86.025 4.60265e-15)
(-22.4296 88.2861 5.97446e-15)
(-22.7888 89.7075 8.51592e-16)
(-23.245 91.4669 -7.81841e-15)
(-23.8322 91.5479 -4.87623e-16)
(-24.0802 90.3159 -1.64505e-14)
(-25.2537 89.4549 -9.03701e-15)
(-12.6888 35.7053 0)
(-19.3055 39.3904 -5.53187e-16)
(-18.918 42.8876 5.42476e-16)
(-19.4308 46.671 -1.42287e-15)
(-19.7287 51.0536 3.34417e-15)
(-20.0631 55.5383 -1.71044e-15)
(-20.603 59.8513 0)
(-21.2876 63.9538 0)
(-22.1313 67.7824 4.41911e-15)
(-23.1461 71.2977 0)
(-24.2401 74.5135 -2.32159e-18)
(-25.1689 77.6471 -8.38105e-15)
(-25.9283 80.766 4.11025e-15)
(-26.4599 83.5935 -4.84907e-15)
(-26.9205 85.9602 0)
(-27.3955 87.5831 6.30266e-15)
(-28.0283 89.4514 0)
(-28.7635 89.959 -8.36927e-15)
(-29.3549 89.3157 -1.59061e-14)
(-30.6655 88.934 1.44136e-14)
(-14.1746 35.3957 7.51766e-17)
(-20.9666 38.4246 -7.74138e-16)
(-20.8948 41.4105 0)
(-21.8334 44.7388 -2.29713e-15)
(-22.5432 48.7122 -1.37858e-15)
(-23.2889 52.9591 -1.84214e-15)
(-24.0779 57.1868 0)
(-25.0954 61.217 0)
(-26.1908 65.097 4.41689e-15)
(-27.4711 68.6836 0)
(-28.8584 71.842 4.64541e-15)
(-30.015 74.7782 -4.14329e-15)
(-30.8872 77.7643 -4.14973e-15)
(-31.5167 80.5613 6.22594e-16)
(-32.0499 82.9891 -1.65031e-14)
(-32.6453 84.7909 5.35181e-15)
(-33.4778 86.7689 -7.57093e-15)
(-34.5206 87.7027 0)
(-35.6558 87.7126 -7.45074e-15)
(-37.5076 87.8768 2.41258e-14)
(-15.7015 35.1386 -2.11966e-16)
(-22.7413 37.5305 1.51557e-15)
(-23.0993 40.0438 -5.45796e-16)
(-24.4185 42.8871 2.26555e-15)
(-25.542 46.4331 3.30354e-15)
(-26.793 50.3339 -4.7296e-15)
(-27.9268 54.4593 1.05135e-14)
(-29.2581 58.3432 -1.07924e-14)
(-30.7105 62.1469 -4.40794e-16)
(-32.3418 65.7599 -5.37835e-15)
(-34.0904 68.8268 1.48869e-14)
(-35.5384 71.4536 -9.77792e-15)
(-36.5549 74.1238 4.99063e-15)
(-37.2818 76.8161 0)
(-37.98 79.2485 0)
(-38.8177 81.1592 0)
(-39.9776 83.1739 9.53454e-15)
(-41.6067 84.6487 8.4673e-16)
(-43.46 85.4082 -7.91632e-15)
(-45.6439 86.1501 -9.00614e-15)
(-17.2746 34.9581 1.41965e-17)
(-24.6549 36.7488 -1.86803e-15)
(-25.4749 38.853 -9.12692e-16)
(-27.2632 41.1679 8.92992e-16)
(-28.8925 44.1359 1.70394e-15)
(-30.4426 47.5991 -1.96502e-15)
(-31.7818 51.5026 0)
(-33.1344 55.4368 0)
(-35.2171 59.2331 0)
(-37.4443 62.85 0)
(-39.8072 65.8253 -1.31894e-14)
(-41.7635 68.0709 1.97024e-14)
(-43.0691 70.2032 -5.9532e-15)
(-43.9865 72.5424 0)
(-44.9926 74.8618 0)
(-46.3625 76.858 0)
(-48.3121 78.8149 1.92597e-14)
(-50.7568 81.0698 1.10142e-15)
(-53.2803 82.7596 1.27644e-15)
(-55.063 83.8183 0)
(-18.8887 34.8779 0)
(-26.6502 36.0972 4.0499e-15)
(-27.8969 37.9039 -9.8529e-16)
(-30.1469 39.8036 5.53969e-15)
(-32.4645 42.257 -6.05631e-15)
(-34.8957 45.1505 0)
(-36.9399 48.3122 0)
(-38.0898 51.4612 1.50292e-14)
(-39.5033 55.2365 0)
(-42.0157 59.2572 0)
(-44.0812 62.5155 -1.95863e-14)
(-45.6248 64.7589 3.24552e-14)
(-47.8711 66.3423 -9.80007e-15)
(-50.2161 68.2832 -4.25113e-14)
(-52.4395 70.7097 -2.80462e-15)
(-54.946 73.0729 -3.21952e-15)
(-57.9893 74.9993 5.54182e-14)
(-60.8948 76.8375 3.21847e-14)
(-62.8357 77.3214 0)
(-61.1177 78.2858 -4.15621e-14)
(-20.5895 34.7968 0)
(-28.6212 35.5461 -2.24211e-15)
(-30.1743 37.1967 3.77444e-15)
(-32.7655 38.8722 -3.2338e-15)
(-35.61 41.0059 4.47889e-15)
(-38.7439 43.6771 0)
(-41.8892 46.6014 0)
(-44.8203 49.495 1.34349e-15)
(-47.132 52.2944 -6.94847e-15)
(-49.63 55.6527 6.89796e-15)
(-51.9167 58.9705 1.54343e-14)
(-54.1436 62.4447 -1.72533e-14)
(-55.0926 65.3159 -4.43012e-14)
(-54.8654 66.8335 4.89264e-14)
(-55.7125 68.4225 2.89582e-14)
(-58.0098 71.1331 -3.63632e-14)
(-60.3639 74.5937 -1.30157e-15)
(-61.8486 77.3995 -3.05122e-14)
(-61.7733 78.1362 -3.12208e-14)
(-60.8953 77.5154 5.59112e-14)
(-22.4007 34.6838 0)
(-30.4347 35.0504 2.78395e-15)
(-32.105 36.7011 -4.04642e-15)
(-34.8112 38.2933 4.20911e-15)
(-37.7633 40.2225 1.55195e-15)
(-40.9491 42.6842 0)
(-44.2608 45.6848 0)
(-47.6071 49.1647 -4.58406e-15)
(-50.6025 52.8066 -6.63338e-16)
(-53.6898 56.6092 6.43819e-15)
(-55.7918 60.156 0)
(-56.9008 62.952 0)
(-57.1263 64.8867 1.93013e-14)
(-58.3721 67.6481 2.2036e-16)
(-60.8158 71.4006 2.43707e-14)
(-62.7063 74.6412 -2.25159e-14)
(-63.4345 76.9992 0)
(-63.1764 78.2716 0)
(-61.6581 76.958 0)
(-61.0967 75.5565 0)
(-24.3316 34.3533 2.81199e-16)
(-31.7607 34.4863 -6.20266e-15)
(-33.3817 36.2692 6.54937e-15)
(-36.052 37.874 -8.14317e-15)
(-38.7916 39.6008 -5.01877e-15)
(-41.3895 41.6248 1.5655e-14)
(-43.7045 43.9867 0)
(-45.6544 46.6202 -1.41757e-14)
(-47.2792 49.5525 -9.01404e-15)
(-48.7776 52.7964 8.93603e-15)
(-49.8046 56.2082 3.22582e-14)
(-50.5997 59.5813 -3.42606e-14)
(-51.5668 62.7121 5.09249e-14)
(-53.2284 65.6902 -2.39549e-14)
(-54.9584 68.581 2.79356e-14)
(-55.9074 71.2883 -6.03479e-14)
(-56.5999 74.1566 3.73419e-14)
(-57.7806 76.9726 -3.97201e-14)
(-58.5474 77.042 0)
(-62.0093 76.7362 0)
(-26.9834 33.6497 0)
(-32.5446 34.3759 1.87816e-15)
(-33.7979 36.7523 -3.79486e-15)
(-35.9793 38.9395 0)
(-38.1801 41.0005 0)
(-40.2987 43.0905 -1.00362e-14)
(-42.3242 45.3546 -6.81512e-15)
(-44.314 47.9173 6.85576e-15)
(-46.2509 50.9477 0)
(-48.1544 54.4893 0)
(-49.9207 58.4242 -2.40715e-14)
(-51.5191 62.3765 0)
(-53.0397 66.0882 -3.23656e-14)
(-54.4703 69.2127 -3.48172e-14)
(-55.577 71.5659 6.52412e-14)
(-56.5092 73.3972 3.41689e-14)
(-57.8128 75.03 0)
(-59.4216 76.854 3.61351e-14)
(-61.0268 77.8212 3.85222e-14)
(-64.4694 78.0874 -4.28328e-14)
(-1.11086 83.8707 -1.32215e-15)
(-1.0345 84.3933 -2.42465e-17)
(-0.882364 85.8006 1.18577e-15)
(-0.908173 87.7745 -1.17712e-15)
(-1.15595 89.7563 1.07064e-15)
(-1.38064 91.7109 -1.05798e-15)
(-1.52711 93.8862 9.61149e-16)
(-1.65437 96.27 9.46851e-16)
(-1.76438 98.7806 -8.54859e-16)
(-1.8539 101.414 -1.65122e-15)
(-1.92391 104.2 -3.16256e-15)
(-1.99124 107.168 1.45307e-15)
(-2.04702 110.289 0)
(-2.11079 113.597 0)
(-2.21366 117.06 -2.62114e-15)
(-2.09769 120.562 0)
(-2.82771 125.012 0)
(-0.815503 127.176 1.13332e-15)
(-7.75407 137.553 -1.09083e-15)
(11.8312 127.142 3.6134e-15)
(-2.9957 83.9338 -2.79145e-15)
(-3.12354 84.3388 -1.38523e-15)
(-3.18417 85.7769 -5.05802e-17)
(-3.42877 87.8604 -2.33687e-15)
(-3.88156 89.8828 -4.52002e-15)
(-4.26939 91.8002 4.10452e-15)
(-4.57372 93.9295 7.98551e-17)
(-4.86117 96.271 -3.65833e-15)
(-5.13129 98.7435 -3.52052e-15)
(-5.3765 101.344 -1.73343e-15)
(-5.59705 104.102 4.63448e-15)
(-5.81466 107.048 2.91618e-15)
(-6.01359 110.155 8.48795e-15)
(-6.23411 113.45 0)
(-6.47315 116.907 7.87254e-15)
(-6.53081 120.404 -5.13988e-15)
(-7.41301 124.826 9.49834e-15)
(-5.53846 127.004 4.53247e-15)
(-12.825 137.101 -4.36526e-15)
(6.96882 127.603 8.86111e-19)
(-4.8302 84.1518 -5.69384e-15)
(-5.14194 84.4282 5.10959e-15)
(-5.42224 85.8745 1.25442e-14)
(-5.91326 88.0193 -2.27648e-15)
(-6.59016 90.0326 0)
(-7.15776 91.8885 -8.65955e-17)
(-7.6261 93.9556 3.921e-15)
(-8.07346 96.2394 0)
(-8.49781 98.6575 3.54158e-15)
(-8.89402 101.21 -6.81724e-15)
(-9.26395 103.929 6.15816e-15)
(-9.63199 106.841 -5.98183e-15)
(-9.97381 109.923 1.39225e-16)
(-10.3518 113.189 -5.34635e-15)
(-10.7242 116.63 -5.2529e-15)
(-10.9573 120.105 0)
(-11.9809 124.495 -4.81286e-15)
(-10.2404 126.691 0)
(-17.8704 136.482 -8.9469e-15)
(2.20393 127.861 0)
(-6.59791 84.5357 1.29332e-16)
(-7.10721 84.6915 -5.04085e-15)
(-7.64424 86.1314 -9.77272e-15)
(-8.41703 88.2884 0)
(-9.33449 90.2375 -9.07386e-15)
(-10.0877 91.9935 4.03283e-15)
(-10.7219 93.9689 3.98489e-15)
(-11.3259 96.168 7.51708e-15)
(-11.899 98.5055 -7.07432e-15)
(-12.4388 100.987 6.81095e-15)
(-12.9499 103.648 2.85131e-16)
(-13.4605 106.512 -5.84404e-15)
(-13.9402 109.56 0)
(-14.4711 112.785 1.09608e-14)
(-14.9717 116.208 -1.07801e-14)
(-15.3782 119.646 -2.60861e-16)
(-16.5337 124.009 -9.90409e-15)
(-14.9278 126.22 8.8145e-15)
(-22.8682 135.666 9.52714e-15)
(-2.547 127.966 3.04856e-16)
(-8.33547 85.0867 2.13049e-14)
(-9.07324 85.1559 -1.4754e-14)
(-9.90671 86.5789 4.5644e-15)
(-10.9905 88.6959 0)
(-12.1533 90.5121 0)
(-13.086 92.1169 -8.49458e-15)
(-13.8801 93.9638 1.56378e-14)
(-14.6322 96.0489 -1.5112e-14)
(-15.3426 98.2837 6.58527e-15)
(-16.0132 100.678 1.29963e-14)
(-16.6538 103.268 1.28571e-14)
(-17.2969 106.071 -1.19522e-14)
(-17.9079 109.077 1.11486e-14)
(-18.5844 112.247 5.26264e-18)
(-19.2102 115.652 1.07823e-14)
(-19.7868 119.034 2.54289e-16)
(-21.0684 123.375 -9.91161e-15)
(-19.5997 125.589 1.74723e-14)
(-27.8506 134.663 -1.78721e-14)
(-7.29632 127.915 -1.46018e-14)
(-10.1815 85.8132 5.1448e-15)
(-11.154 85.8333 -4.28648e-15)
(-12.3116 87.2349 2.30757e-16)
(-13.7232 89.246 0)
(-15.1151 90.8448 0)
(-16.2014 92.2414 -1.68116e-14)
(-17.1331 93.9238 1.53398e-14)
(-18.0125 95.8697 3.00591e-14)
(-18.8405 97.9837 -2.07655e-14)
(-19.625 100.276 -1.35565e-14)
(-20.3816 102.783 2.51031e-14)
(-21.1455 105.512 -4.77442e-14)
(-21.8808 108.467 1.08658e-14)
(-22.6925 111.569 1.06847e-14)
(-23.4398 114.956 1.07861e-14)
(-24.1785 118.263 -9.77888e-15)
(-25.5812 122.591 0)
(-24.25 124.794 1.81386e-14)
(-32.7771 133.472 1.90163e-14)
(-12.0547 127.701 1.52432e-14)
(-12.2759 86.6626 -9.18608e-15)
(-13.4981 86.6941 0)
(-15.0014 88.0723 1.81656e-14)
(-16.7297 89.8964 -1.71352e-14)
(-18.2949 91.1838 0)
(-19.4789 92.3225 0)
(-20.5079 93.8145 -7.80875e-15)
(-21.4827 95.6032 -2.96145e-14)
(-22.4024 97.5832 1.39873e-14)
(-23.2811 99.7638 0)
(-24.1388 102.179 0)
(-25.01 104.828 1.19233e-14)
(-25.8608 107.725 -1.14063e-14)
(-26.7942 110.748 -1.09413e-14)
(-27.6603 114.118 -2.15831e-14)
(-28.5478 117.329 1.95561e-14)
(-30.0713 121.658 5.34896e-16)
(-28.8753 123.826 5.07139e-16)
(-37.6494 132.098 -1.78234e-14)
(-16.8263 127.319 -1.466e-14)
(-14.8146 87.5433 -8.25257e-15)
(-16.294 87.6605 -1.75318e-14)
(-18.1415 89.0158 -8.83966e-16)
(-20.127 90.5602 2.54479e-14)
(-21.7575 91.4495 0)
(-22.9535 92.3034 1.61492e-14)
(-24.0229 93.5951 -1.58718e-14)
(-25.0502 95.218 1.41301e-14)
(-26.0294 97.057 1.36254e-14)
(-26.9783 99.1207 -1.35169e-14)
(-27.9197 101.442 1.22319e-14)
(-28.883 104.004 0)
(-29.8411 106.842 -2.33759e-14)
(-30.8816 109.779 4.37835e-14)
(-31.8686 113.134 -4.16032e-14)
(-32.8881 116.228 0)
(-34.5371 120.575 -1.33653e-17)
(-33.47 122.682 -1.77323e-14)
(-42.4605 130.55 3.63251e-14)
(-21.6107 126.761 -4.34846e-14)
(-17.9931 88.3493 -4.92569e-16)
(-19.7357 88.6292 2.48933e-14)
(-21.895 89.9451 -1.65561e-14)
(-24.0047 91.1006 -8.64684e-15)
(-25.5336 91.5338 1.66682e-14)
(-26.6383 92.1159 -3.27727e-14)
(-27.685 93.2198 1.51468e-14)
(-28.7175 94.6804 0)
(-29.7204 96.3791 3.01316e-16)
(-30.7129 98.3255 -1.29047e-14)
(-31.7181 100.551 -2.56375e-14)
(-32.7571 103.027 2.32713e-14)
(-33.8144 105.804 -2.3393e-14)
(-34.9464 108.65 2.19008e-14)
(-36.0599 111.993 2.21654e-14)
(-37.1894 114.954 -1.95566e-14)
(-38.9752 119.34 5.87237e-14)
(-38.0243 121.356 -1.72434e-14)
(-47.2036 128.836 -3.5533e-14)
(-26.4035 126.018 -1.62039e-17)
(-21.9745 88.9564 -8.05173e-15)
(-23.9834 89.4671 3.30455e-14)
(-26.363 90.6767 1.06683e-15)
(-28.3645 91.3197 -3.44951e-14)
(-29.5884 91.2988 -1.77977e-14)
(-30.5112 91.6739 3.19228e-14)
(-31.4814 92.6285 0)
(-32.477 93.9486 1.51206e-14)
(-33.4701 95.5216 -2.76033e-14)
(-34.4806 97.3605 0)
(-35.5302 99.4961 -2.50336e-14)
(-36.6279 101.888 2.3838e-14)
(-37.7764 104.605 0)
(-38.982 107.359 4.38043e-14)
(-40.2301 110.692 -2.11235e-14)
(-41.4407 113.507 0)
(-43.3828 117.952 -5.88524e-14)
(-42.5266 119.847 5.35618e-14)
(-51.874 126.969 3.63051e-14)
(-31.1975 125.08 5.9016e-14)
(-26.9293 89.2508 1.49726e-14)
(-29.121 89.9925 8.69413e-15)
(-31.5339 90.9468 -1.68708e-14)
(-33.0811 90.9725 -1.81059e-14)
(-33.8148 90.5987 3.39065e-14)
(-34.5086 90.883 -3.22858e-14)
(-35.3636 91.7486 1.55605e-14)
(-36.2902 92.9691 -3.03797e-14)
(-37.2485 94.4474 4.14058e-14)
(-38.2586 96.2011 2.71323e-14)
(-39.339 98.2622 -2.44433e-14)
(-40.4828 100.579 5.75867e-16)
(-41.7173 103.241 -2.23116e-14)
(-42.9799 105.907 -6.63155e-14)
(-44.3742 109.228 4.23177e-14)
(-45.6306 111.891 1.04664e-15)
(-47.7602 116.411 3.94818e-14)
(-46.9663 118.159 0)
(-56.4696 124.96 -3.54437e-14)
(-35.9845 123.938 2.95714e-14)
(-32.7194 89.1457 0)
(-35.2122 90.0078 0)
(-37.1907 90.4324 -1.91155e-14)
(-37.886 89.8416 -1.21615e-15)
(-38.0571 89.3448 5.17391e-14)
(-38.5417 89.6847 -1.60663e-14)
(-39.2619 90.5324 1.64908e-14)
(-40.1021 91.7066 -2.90673e-14)
(-41.012 93.1315 0)
(-42.0125 94.8293 2.65281e-14)
(-43.1175 96.8361 2.51726e-14)
(-44.3004 99.0925 0)
(-45.6199 101.705 -2.34983e-14)
(-46.9263 104.293 4.33298e-14)
(-48.4822 107.596 4.29513e-14)
(-49.7457 110.115 -1.85129e-14)
(-52.107 114.698 -7.71024e-14)
(-51.3336 116.293 0)
(-60.9879 122.817 0)
(-40.7638 122.577 5.15707e-18)
(-39.8113 88.4671 -1.64248e-14)
(-42.057 89.1811 0)
(-42.825 88.7877 8.57728e-16)
(-42.427 87.8721 2.01044e-14)
(-42.1659 87.5775 -3.49518e-14)
(-42.5175 88.0999 0)
(-43.1083 88.9972 1.59023e-14)
(-43.8682 90.1785 0)
(-44.7289 91.5881 0)
(-45.7178 93.255 -2.67189e-14)
(-46.8461 95.2236 0)
(-48.0641 97.4307 2.4576e-14)
(-49.4698 99.9978 -6.89026e-14)
(-50.8091 102.518 4.39459e-14)
(-52.543 105.792 -2.06973e-14)
(-53.7729 108.186 8.03352e-14)
(-56.4202 112.804 0)
(-55.6167 114.24 -3.54886e-14)
(-65.4251 120.556 0)
(-45.533 120.979 5.92939e-14)
(-47.8706 86.9454 0)
(-48.7788 87.0108 1.06011e-15)
(-47.5919 85.8483 1.95857e-15)
(-46.4519 85.2319 -5.92792e-14)
(-46.0358 85.4007 1.76206e-14)
(-46.3377 86.1595 -1.71301e-14)
(-46.8196 87.1584 -1.62544e-14)
(-47.5284 88.3944 3.13229e-14)
(-48.3584 89.8255 -2.79061e-14)
(-49.3474 91.4848 -5.44518e-14)
(-50.5044 93.4298 2.46767e-14)
(-51.7589 95.5989 2.40284e-14)
(-53.2543 98.1228 2.30266e-14)
(-54.6187 100.587 2.2008e-14)
(-56.5454 103.814 0)
(-57.704 106.116 1.06327e-15)
(-60.6986 110.737 -7.75795e-14)
(-59.797 112 -8.26001e-16)
(-69.8024 118.191 3.47071e-14)
(-50.2677 119.125 -5.93586e-14)
(-55.8867 83.8647 2.99944e-14)
(-53.7647 82.7956 2.92343e-14)
(-51.0086 81.9146 2.38952e-14)
(-49.9605 82.2286 -2.1934e-14)
(-49.5764 82.9279 1.75289e-14)
(-49.8968 83.9231 3.61703e-14)
(-50.3187 85.0668 -1.55013e-14)
(-51.0272 86.3877 -6.24422e-14)
(-51.8581 87.8636 -1.53944e-15)
(-52.8698 89.5316 -1.37451e-15)
(-54.0696 91.4637 2.47914e-14)
(-55.3674 93.6033 -4.82133e-14)
(-56.9589 96.0834 0)
(-58.3455 98.5044 2.31817e-14)
(-60.4769 101.659 -8.53614e-14)
(-61.5336 103.913 3.91284e-14)
(-64.9442 108.485 3.94215e-14)
(-63.8526 109.604 0)
(-74.1551 115.715 -3.56791e-14)
(-54.9228 117.013 0)
(-58.1841 79.0687 1.61675e-15)
(-55.567 78.2118 1.2478e-15)
(-53.303 78.2478 2.34433e-14)
(-53.0168 79.2403 -6.47455e-14)
(-52.694 80.3242 5.62566e-14)
(-53.136 81.5129 1.78567e-14)
(-53.5754 82.8154 -1.66368e-14)
(-54.3439 84.2201 3.02453e-14)
(-55.2122 85.7432 2.82897e-14)
(-56.2709 87.4224 2.65089e-17)
(-57.5305 89.3434 0)
(-58.8793 91.4579 -6.1673e-16)
(-60.5738 93.8889 2.25354e-14)
(-61.9839 96.2798 4.53054e-14)
(-64.3252 99.3283 2.2415e-15)
(-65.2591 101.585 -7.93685e-14)
(-69.1492 106.036 4.06595e-14)
(-67.7597 107.083 -6.97337e-14)
(-78.4616 113.106 3.57908e-14)
(-59.4992 114.649 0)
(-58.5455 75.6767 0)
(-56.6893 74.8906 -2.34142e-14)
(-55.1126 75.4644 -2.15005e-14)
(-55.5533 76.4935 0)
(-55.3912 77.7726 5.87563e-14)
(-56.0585 79.0614 -5.27884e-14)
(-56.5925 80.4912 -6.77994e-14)
(-57.4736 81.9478 -9.17429e-16)
(-58.4144 83.5032 0)
(-59.5428 85.1851 1.24539e-17)
(-60.8788 87.0889 2.56872e-14)
(-62.2881 89.1781 0)
(-64.0919 91.5498 4.75819e-14)
(-65.5324 93.9211 -8.84852e-14)
(-68.0819 96.8235 4.17069e-14)
(-68.8855 99.139 -1.33869e-17)
(-73.3029 103.373 -3.96569e-14)
(-71.491 104.423 3.52935e-14)
(-82.7584 110.354 -3.74491e-14)
(-63.9955 112.007 5.81841e-14)
(-59.657 73.6659 0)
(-58.0954 72.3233 0)
(-56.7988 73.2389 -4.26865e-14)
(-57.7975 74.0255 7.92071e-14)
(-57.8035 75.4421 -7.37608e-14)
(-58.7161 76.6912 1.77573e-14)
(-59.4042 78.1707 6.68031e-14)
(-60.4243 79.6215 3.21738e-14)
(-61.4637 81.1769 -2.84623e-14)
(-62.6789 82.8412 2.74066e-14)
(-64.1065 84.7143 -5.2165e-14)
(-65.5869 86.7731 2.36714e-14)
(-67.5058 89.0723 4.76939e-14)
(-68.9907 91.4339 4.66608e-14)
(-71.7432 94.1505 -4.17719e-14)
(-72.4335 96.5914 3.92781e-14)
(-77.4359 100.476 7.9535e-14)
(-75.0234 101.688 -3.42596e-14)
(-87.1002 107.487 0)
(-68.3499 109.014 0)
(-60.5591 73.8001 0)
(-59.5404 70.1439 2.34028e-14)
(-58.2621 71.5651 -2.00125e-14)
(-59.8011 71.7805 -4.07296e-14)
(-60.0207 73.2809 1.62396e-14)
(-61.1515 74.4095 3.40738e-14)
(-62.0136 75.9126 3.02455e-18)
(-63.1876 77.3191 0)
(-64.3568 78.8443 0)
(-65.6794 80.4633 5.54381e-14)
(-67.2142 82.2795 1.35524e-15)
(-68.7775 84.2914 -4.80839e-14)
(-70.815 86.4963 0)
(-72.362 88.8597 -8.88688e-14)
(-75.3051 91.3528 4.40541e-14)
(-75.9361 93.9955 -1.20067e-13)
(-81.5806 97.2701 3.96786e-14)
(-78.382 99.071 3.6136e-14)
(-91.6362 104.378 -7.31752e-14)
(-72.4716 105.463 5.77206e-14)
(-60.7254 75.5269 -9.24577e-16)
(-60.6693 67.2456 -2.29447e-14)
(-59.2339 70.1969 -2.07017e-14)
(-61.1307 69.7986 1.95813e-14)
(-61.5764 71.399 3.74113e-14)
(-63.0275 72.4699 -3.31117e-14)
(-64.1709 73.9554 -3.20874e-14)
(-65.6283 75.3101 3.09817e-14)
(-67.0158 76.755 -2.74647e-14)
(-68.4867 78.2536 -2.72302e-14)
(-70.1652 79.9452 4.9998e-14)
(-71.8202 81.8446 6.206e-16)
(-73.9744 83.8914 -4.65725e-14)
(-75.62 86.2705 4.22791e-14)
(-78.714 88.4713 0)
(-79.3959 91.4212 3.96074e-14)
(-85.4474 93.8277 1.17909e-15)
(-81.6841 96.8259 -3.35721e-14)
(-96.4594 100.764 0)
(-76.4178 101.16 -5.64773e-14)
(-59.6328 76.7865 2.35644e-14)
(-62.3903 68.9525 -9.34821e-17)
(-59.845 70.8591 1.70954e-14)
(-61.6915 70.2769 -3.23678e-14)
(-62.0736 71.5342 -4.88547e-16)
(-63.6418 72.2991 1.48433e-14)
(-64.9168 73.5067 4.37218e-16)
(-66.4982 74.6182 2.22544e-17)
(-68.0078 75.8623 -2.42542e-14)
(-69.6303 77.2158 -2.27012e-14)
(-71.4331 78.7496 6.56146e-16)
(-73.2439 80.5776 -2.02308e-14)
(-75.4983 82.4725 0)
(-77.2804 84.8647 7.39604e-14)
(-80.4038 86.8053 0)
(-81.3174 90.0493 -3.42775e-14)
(-87.1815 91.6845 3.30249e-14)
(-83.7046 95.9207 2.972e-14)
(-98.6832 97.9674 -4.68847e-16)
(-78.8616 99.8028 3.4098e-16)
(-59.6437 76.2295 0)
(-62.7409 68.7338 1.49464e-14)
(-60.0467 70.5738 0)
(-61.9687 70.0664 1.31772e-14)
(-62.331 71.2967 0)
(-63.9356 72.0915 -2.39048e-14)
(-65.2262 73.2869 3.64728e-16)
(-66.8193 74.4049 -3.24953e-16)
(-68.3312 75.6432 2.00051e-14)
(-69.9583 76.9898 1.86857e-14)
(-71.7641 78.5035 -1.78525e-14)
(-73.588 80.3186 3.37138e-14)
(-75.8452 82.1822 0)
(-77.6606 84.5803 -3.14564e-14)
(-80.7625 86.4627 4.92558e-16)
(-81.7492 89.7734 2.4954e-17)
(-87.5755 91.2328 -4.30246e-16)
(-84.1947 95.7234 -2.57426e-14)
(-99.0625 97.2958 -2.32234e-14)
(-79.3529 99.5212 -1.8918e-14)
(-59.8005 75.3792 2.73445e-16)
(-63.1232 68.5639 -2.25312e-16)
(-60.2284 70.3163 0)
(-62.1967 69.9164 1.36807e-14)
(-62.5515 71.0956 1.21331e-14)
(-64.1936 71.9061 2.35697e-14)
(-65.502 73.0736 7.1039e-16)
(-67.1058 74.1901 1.84099e-17)
(-68.6213 75.4178 -3.03989e-16)
(-70.2564 76.7574 -3.73824e-14)
(-72.0696 78.251 1.34404e-17)
(-73.9122 80.0526 -3.37407e-14)
(-76.1729 81.8843 2.45696e-16)
(-78.0268 84.2854 -5.04076e-16)
(-81.1046 86.1115 -3.0182e-14)
(-82.1803 89.486 2.95368e-14)
(-87.9091 90.7784 4.54866e-16)
(-84.6979 95.5195 -3.84087e-16)
(-99.39 96.6196 2.35567e-14)
(-79.8471 99.3039 3.80767e-14)
(-60.0299 74.5081 0)
(-63.4635 68.4185 0)
(-60.4056 70.0778 1.37502e-14)
(-62.4071 69.7895 -1.32689e-14)
(-62.7753 70.9052 -1.21198e-14)
(-64.4558 71.7225 -3.59155e-16)
(-65.7841 72.8577 -2.24039e-14)
(-67.395 73.9706 -6.69634e-16)
(-68.9119 75.1885 3.04053e-16)
(-70.5537 76.5227 1.86949e-14)
(-72.3736 77.9978 3.51416e-14)
(-74.2361 79.7858 9.37184e-18)
(-76.4997 81.5872 1.61432e-14)
(-78.394 83.9882 0)
(-81.445 85.7625 3.01653e-14)
(-82.6137 89.1926 4.4895e-16)
(-88.233 90.3336 2.81244e-14)
(-85.1997 95.322 2.55056e-14)
(-99.7045 95.9634 3.8447e-16)
(-80.3112 99.1014 -1.91492e-14)
(-60.2714 73.651 1.6155e-14)
(-63.7497 68.2625 -1.63441e-17)
(-60.5886 69.8301 2.50288e-16)
(-62.6216 69.6533 -4.27691e-16)
(-63.0187 70.7023 -1.21806e-14)
(-64.7368 71.5233 -1.20285e-14)
(-66.0834 72.6267 2.24397e-14)
(-67.6968 73.7368 3.25955e-16)
(-69.2124 74.9479 1.99913e-14)
(-70.8585 76.2794 0)
(-72.6831 77.739 -1.75692e-14)
(-74.5648 79.5142 3.34784e-14)
(-76.829 81.2877 -1.61504e-14)
(-78.764 83.6863 0)
(-81.7846 85.4142 -4.92612e-16)
(-83.0505 88.89 -2.91708e-14)
(-88.5469 89.8988 -2.81061e-14)
(-85.7035 95.1187 -2.51627e-14)
(-100.008 95.3191 -3.59986e-16)
(-80.753 98.9078 3.01868e-16)
(-60.4985 72.8242 -3.2538e-14)
(-63.9909 68.0979 1.5302e-14)
(-60.7839 69.5702 2.79712e-17)
(-62.8497 69.502 2.01963e-16)
(-63.2874 70.483 2.5159e-14)
(-65.0401 71.3053 1.16701e-14)
(-66.402 72.3781 -2.21162e-14)
(-68.0129 73.4869 -3.26168e-16)
(-69.5238 74.6941 -1.99999e-14)
(-71.1718 76.0261 -2.99377e-16)
(-72.9992 77.4732 2.66973e-16)
(-74.8989 79.2368 -1.67414e-14)
(-77.1618 80.9853 -1.58841e-14)
(-79.1373 83.3794 -2.39696e-16)
(-82.1237 85.0665 3.06461e-14)
(-83.4898 88.5806 2.96642e-14)
(-88.8519 89.4698 2.85076e-14)
(-86.2134 94.906 -3.86897e-16)
(-100.299 94.686 -2.37815e-14)
(-81.1784 98.7238 2.8916e-16)
(-60.6997 72.0309 1.58525e-14)
(-64.1966 67.9243 -1.53165e-14)
(-60.9957 69.2955 -2.75259e-14)
(-63.0971 69.3309 0)
(-63.5846 70.2433 1.19185e-17)
(-65.3677 71.0657 -3.8488e-16)
(-66.7405 72.1099 2.32069e-14)
(-68.3436 73.219 3.44349e-16)
(-69.8469 74.4256 -3.03817e-16)
(-71.4945 75.7613 0)
(-73.3226 77.1993 0)
(-75.239 78.9527 1.67302e-14)
(-77.4986 80.6791 1.61496e-14)
(-79.5139 83.0669 3.15471e-14)
(-82.4629 84.7191 -6.17992e-14)
(-83.9312 88.2636 4.50721e-16)
(-89.1496 89.0447 -2.80383e-14)
(-86.7303 94.6838 0)
(-100.577 94.0611 2.40499e-17)
(-81.5908 98.5494 -1.95909e-14)
(-60.8729 71.2639 1.58334e-14)
(-64.3777 67.7389 1.58951e-14)
(-61.2288 69.0038 1.37519e-14)
(-63.3695 69.136 1.34332e-14)
(-63.9138 69.9799 -2.56551e-14)
(-65.7211 70.802 -1.13428e-14)
(-67.0992 71.8205 1.92566e-17)
(-68.6894 72.932 -2.17887e-14)
(-70.1819 74.1409 0)
(-71.8271 75.4835 1.86286e-14)
(-73.6539 76.9159 -2.81181e-16)
(-75.5855 78.661 -1.62098e-14)
(-77.8398 80.3683 -2.45709e-16)
(-79.8939 82.7483 -4.81372e-18)
(-82.8026 84.3713 3.06606e-14)
(-84.3743 87.9384 0)
(-89.4407 88.6234 0)
(-87.2543 94.4517 -2.5828e-14)
(-100.842 93.4421 2.3717e-17)
(-81.9932 98.3842 -3.51424e-17)
(-61.02 70.5157 -3.19008e-14)
(-64.5445 67.5407 -1.56334e-14)
(-61.4888 68.6921 -1.37906e-14)
(-63.6723 68.9137 -1.34365e-14)
(-64.2775 69.6895 2.52918e-14)
(-66.1012 70.5121 0)
(-67.4781 71.5085 0)
(-69.0501 72.6246 4.81693e-18)
(-70.529 73.8389 0)
(-72.1698 75.1916 -1.86152e-14)
(-73.9934 76.622 -1.72214e-14)
(-75.9385 78.3607 -1.69749e-14)
(-78.1856 80.0522 -1.64051e-14)
(-80.2771 82.4233 -6.2945e-14)
(-83.1432 84.0228 0)
(-84.8193 87.605 0)
(-89.7252 88.2057 0)
(-87.7853 94.2095 2.59e-14)
(-101.095 92.8284 4.65631e-14)
(-82.3882 98.2277 1.97669e-14)
(-61.1447 69.7783 1.58014e-14)
(-64.707 67.3284 0)
(-61.7815 68.3571 1.3762e-14)
(-64.0106 68.6597 4.31355e-16)
(-64.6778 69.369 -1.30469e-14)
(-66.5081 70.1944 0)
(-67.8765 71.1729 0)
(-69.4255 72.2963 2.15091e-14)
(-70.8883 73.5187 3.20371e-16)
(-72.5228 74.8844 -5.80575e-16)
(-74.3416 76.3166 1.77541e-14)
(-76.2982 78.0509 1.67171e-14)
(-78.5364 79.7301 1.61492e-14)
(-80.6634 82.0914 3.11084e-14)
(-83.4848 83.6731 -2.62156e-17)
(-85.2668 87.2641 4.52699e-16)
(-90.0037 87.7917 0)
(-88.3236 93.9564 0)
(-101.333 92.2178 -2.32426e-14)
(-82.7768 98.0791 0)
(-61.2513 69.0445 1.5769e-14)
(-64.8751 67.1003 0)