/*--------------------------------*- C++ -*----------------------------------*\
  =========                 |
  \\      /  F ield         | OpenFOAM: The Open Source CFD Toolbox
   \\    /   O peration     | Website:  https://openfoam.org
    \\  /    A nd           | Version:  10
     \\/     M anipulation  |
\*---------------------------------------------------------------------------*/
FoamFile
{
    format      ascii;
    class       volVectorField;
    location    "800";
    object      Urel;
}
// * * * * * * * * * * * * * * * * * * * * * * * * * * * * * * * * * * * * * //

dimensions      [0 1 -1 0 0 0 0];

internalField   nonuniform List<vector> 
420
(
(0.757663 -0.538266 8.82291e-18)
(-0.347152 0.266099 -6.5807e-17)
(0.197345 0.644608 -2.70335e-16)
(0.354212 0.723639 7.29872e-17)
(0.37742 0.554821 -4.76239e-16)
(0.281144 0.197827 0)
(0.0172836 -0.279084 0)
(-0.264371 -0.870929 3.92399e-16)
(-0.486841 -1.72807 -4.60863e-16)
(-0.631684 -2.92852 0)
(0.820371 -0.640994 3.10017e-17)
(-0.196333 0.10236 -1.68833e-16)
(0.102192 0.545204 8.62643e-16)
(0.202462 0.687484 -1.12562e-15)
(0.177543 0.626252 3.65854e-16)
(0.0305921 0.412857 3.31106e-18)
(-0.209157 0.0531732 2.91921e-15)
(-0.408811 -0.50995 -6.36175e-16)
(-0.507084 -1.4564 1.00265e-15)
(-0.506114 -2.77646 0)
(0.84881 -0.554056 1.39058e-16)
(-0.176936 0.0395056 -8.61008e-16)
(-0.0182743 0.469242 8.55238e-16)
(0.022616 0.662413 1.29079e-15)
(-0.0255396 0.706306 -8.78176e-16)
(-0.153291 0.620432 4.14459e-15)
(-0.295187 0.338089 1.88979e-15)
(-0.388558 -0.239951 4.18063e-15)
(-0.390257 -1.25056 -1.49592e-15)
(-0.27749 -2.64516 -3.30686e-15)
(0.865151 -0.488735 -6.3324e-17)
(-0.204169 0.0163284 7.46221e-16)
(-0.104502 0.41249 -1.10412e-15)
(-0.0938652 0.643267 8.93998e-16)
(-0.134348 0.772503 -1.79196e-15)
(-0.211924 0.781023 1.85742e-15)
(-0.268876 0.562784 -1.06531e-14)
(-0.271486 -0.0157178 0)
(-0.203519 -1.02762 -3.65713e-15)
(-0.00136559 -2.46293 3.21788e-15)
(0.873069 -0.404518 0)
(-0.253022 0.00105247 4.89959e-16)
(-0.168788 0.352687 -4.74435e-16)
(-0.159108 0.601537 0)
(-0.168822 0.791794 -2.92879e-16)
(-0.183989 0.874537 -2.92136e-16)
(-0.163321 0.722255 3.56013e-15)
(-0.0891292 0.194433 -4.38052e-15)
(0.0181496 -0.754486 0)
(0.283718 -2.20374 -1.36876e-14)
(0.864477 -0.296915 2.4184e-17)
(-0.30724 -0.0202973 0)
(-0.216268 0.277945 0)
(-0.183988 0.524305 1.67031e-15)
(-0.147583 0.751673 -2.43382e-15)
(-0.0971167 0.887207 2.71103e-15)
(-0.0246994 0.817119 6.644e-16)
(0.102338 0.405807 1.04056e-14)
(0.242521 -0.427917 -1.22773e-14)
(0.542732 -1.85472 7.09426e-15)
(0.83137 -0.170175 0)
(-0.362091 -0.0501269 -4.94725e-16)
(-0.243574 0.187437 -2.69618e-15)
(-0.174645 0.411667 -9.71589e-16)
(-0.0892068 0.650225 -4.45765e-15)
(0.0115102 0.833549 2.71508e-15)
(0.111439 0.847173 -6.70593e-15)
(0.238223 0.603898 7.61747e-16)
(0.409674 -0.055188 -3.96912e-15)
(0.724977 -1.40568 -1.1548e-14)
(0.754021 -0.0268658 -4.94536e-17)
(-0.405238 -0.087666 4.98057e-16)
(-0.239015 0.0917005 3.46314e-15)
(-0.127891 0.283826 5.26333e-16)
(-0.00378523 0.509915 2.59339e-15)
(0.130103 0.716318 0)
(0.247435 0.826226 6.69411e-15)
(0.344585 0.768451 8.36068e-15)
(0.541495 0.382862 1.06431e-14)
(0.829542 -0.81565 8.99524e-15)
(0.61246 0.107099 -4.91443e-17)
(-0.384237 -0.132764 5.06956e-16)
(-0.157648 -0.0129086 -5.39468e-16)
(-0.0112963 0.122432 -2.15081e-15)
(0.139304 0.297335 7.11281e-15)
(0.301275 0.489199 9.16496e-15)
(0.449414 0.652155 -3.09947e-15)
(0.577132 0.731925 0)
(0.768634 0.639903 0)
(0.923317 -0.232857 -9.47183e-15)
(0.318636 0.167163 1.55993e-17)
(-0.309259 -0.0923167 7.83091e-16)
(-0.127722 -0.0219991 0)
(-0.067731 0.0601662 0)
(-0.013312 0.143053 -3.57663e-15)
(0.0648757 0.24169 -1.12231e-17)
(0.172822 0.367572 6.50781e-15)
(0.331872 0.516899 -1.41546e-14)
(0.528333 0.590216 1.62707e-14)
(0.719361 0.0207181 1.31553e-15)
(-0.66285 -4.49673 0)
(-0.604462 -6.46672 0)
(-0.439145 -8.80166 0)
(-0.274034 -11.2794 -7.56148e-16)
(-0.14046 -13.9125 0)
(0.206558 -16.5926 0)
(-0.49084 -19.364 7.83951e-16)
(1.46218 -23.9616 0)
(0.0643649 -20.8716 0)
(-0.847874 -37.6175 0)
(-0.379606 -4.4649 1.39155e-15)
(-0.146845 -6.51849 2.34386e-15)
(0.200932 -8.86441 1.22494e-16)
(0.53515 -11.3078 8.25262e-16)
(0.857508 -13.9217 5.59342e-17)
(1.33288 -16.6016 1.03764e-15)
(1.0849 -19.3779 7.98152e-17)
(3.15082 -23.5007 1.05626e-16)
(1.65354 -21.2583 -2.9222e-15)
(1.95282 -37.7944 -5.75061e-16)
(-0.0127233 -4.40875 1.2411e-15)
(0.370636 -6.50702 0)
(0.877408 -8.83171 -1.84777e-15)
(1.35552 -11.2295 -1.58008e-15)
(1.84311 -13.8129 4.74661e-15)
(2.44796 -16.4862 -9.9201e-16)
(2.53741 -19.2866 1.62513e-15)
(4.79138 -22.8611 0)
(2.97585 -21.4048 3.19087e-15)
(5.21486 -37.9177 -9.90948e-18)
(0.380554 -4.2855 2.76283e-15)
(0.912373 -6.42011 6.77561e-15)
(1.57879 -8.7108 -7.09678e-15)
(2.20106 -11.0583 2.81983e-15)
(2.85942 -13.6045 3.18985e-17)
(3.61116 -16.259 0)
(4.02434 -19.0684 -1.61104e-15)
(6.4294 -22.1594 -2.87285e-15)
(4.47164 -21.4772 -3.13402e-15)
(8.28224 -37.7839 2.55267e-15)
(0.773029 -4.08755 2.53412e-15)
(1.46514 -6.25723 -2.19703e-15)
(2.29209 -8.50048 7.26487e-15)
(3.05341 -10.7939 -2.88764e-15)
(3.8833 -13.2979 2.46131e-15)
(4.79184 -15.9299 -3.9233e-15)
(5.51093 -18.7182 3.53459e-15)
(8.05483 -21.3479 3.11557e-15)
(6.06941 -21.416 0)
(11.2268 -37.4213 -5.08334e-15)
(1.13493 -3.82053 3.10201e-15)
(2.01674 -6.02354 -1.33552e-14)
(3.00426 -8.19916 -3.84351e-15)
(3.89808 -10.433 9.02141e-15)
(4.90018 -12.8883 7.66834e-15)
(5.97053 -15.4928 2.52697e-16)
(6.96686 -18.2489 1.72371e-16)
(9.67998 -20.4264 -2.98909e-15)
(7.59161 -21.2001 -2.62601e-15)
(14.196 -36.8214 5.39648e-15)
(1.44032 -3.50538 3.18909e-15)
(2.55524 -5.73303 4.72441e-15)
(3.70195 -7.81686 0)
(4.72127 -9.98256 -3.00385e-15)
(5.89493 -12.3781 -4.85898e-15)
(7.1278 -14.9458 2.80922e-16)
(8.3712 -17.6577 -1.04645e-14)
(11.2849 -19.3921 -3.16594e-15)
(9.11889 -20.8496 5.8622e-15)
(17.1427 -35.9595 -2.86384e-15)
(1.71346 -3.16563 1.24592e-14)
(3.07926 -5.39646 -4.36235e-15)
(4.37961 -7.35373 0)
(5.52071 -9.44076 -1.64563e-16)
(6.8577 -11.7595 2.04935e-14)
(8.24876 -14.2748 -8.49829e-15)
(9.70415 -16.9437 -7.94412e-15)
(12.8665 -18.226 6.2757e-15)
(10.6117 -20.3286 -6.85147e-15)
(20.0129 -34.8184 0)
(2.11814 -2.76567 3.19523e-16)
(3.56563 -4.98945 -4.48057e-15)
(5.03283 -6.78843 0)
(6.30984 -8.79518 6.70887e-15)
(7.80084 -11.018 -1.56292e-14)
(9.34168 -13.4584 8.81346e-15)
(10.9654 -16.1037 3.6941e-15)
(14.4723 -16.9403 0)
(12.0402 -19.5948 -2.66086e-16)
(22.7479 -33.3672 2.53944e-15)
(2.92955 -2.09151 4.29102e-16)
(3.99428 -4.49187 2.45392e-17)
(5.61573 -6.16639 0)
(7.08708 -8.09356 -1.33955e-14)
(8.75396 -10.1991 4.99442e-15)
(10.4381 -12.5031 -4.84906e-15)
(12.1026 -15.1057 4.43615e-15)
(16.0379 -15.4671 7.22251e-16)
(13.5842 -19.0238 -8.9742e-17)
(25.2537 -31.5188 -2.51063e-15)
(4.09833 -1.3959 3.0437e-15)
(4.32515 -4.09232 -5.2083e-15)
(6.00305 -5.62893 0)
(7.64168 -7.46491 0)
(9.45297 -9.4682 0)
(11.3276 -11.63 -2.4444e-15)
(13.2785 -14.0827 9.84858e-15)
(17.2717 -13.9012 0)
(13.9758 -18.4567 0)
(27.3189 -30.1706 0)
(4.22674 -1.48696 -2.95092e-15)
(4.49138 -3.74348 -5.2005e-15)
(6.14575 -5.26911 0)
(7.89665 -7.0613 3.65821e-15)
(9.80665 -9.0103 -2.77567e-15)
(11.7817 -11.1575 2.4747e-15)
(13.9715 -13.5794 3.89012e-15)
(17.9829 -12.894 -2.39123e-16)
(14.6237 -17.0518 1.76562e-15)
(28.7301 -29.3101 0)
(3.51115 -2.28088 3.37907e-16)
(4.70605 -3.48023 -2.76177e-17)
(6.33537 -5.00345 0)
(8.21601 -6.67735 2.61839e-16)
(10.2598 -8.48887 6.06001e-15)
(12.3241 -10.6137 -4.33443e-15)
(14.5986 -13.1339 -1.17104e-14)
(18.7168 -12.0908 -8.22498e-15)
(15.8323 -15.138 1.41179e-14)
(30.3753 -27.7816 2.50037e-15)
(3.47953 -1.9614 -1.35402e-14)
(4.99857 -3.05295 5.06181e-15)
(6.76311 -4.36265 0)
(8.77976 -5.85743 -7.32713e-15)
(10.9715 -7.4733 -6.0042e-15)
(13.1625 -9.41193 9.51624e-15)
(15.5302 -11.8983 3.99071e-15)
(19.9476 -10.7435 0)
(16.6384 -14.3513 -6.02255e-15)
(32.2498 -25.2328 4.95283e-16)
(3.8767 -1.83328 -3.43133e-16)
(5.32738 -2.67562 5.16724e-15)
(7.14483 -3.79521 0)
(9.25337 -5.10621 1.46723e-14)
(11.5556 -6.51096 2.85314e-17)
(13.8547 -8.21891 -1.81702e-16)
(16.3048 -10.6818 8.71626e-15)
(20.9841 -9.09908 -7.27443e-15)
(17.4078 -12.7056 -6.89056e-15)
(33.9684 -22.7909 0)
(4.24891 -1.57516 -3.22646e-15)
(5.64285 -2.24958 1.05562e-14)
(7.48686 -3.21368 9.06722e-15)
(9.6693 -4.34537 -1.03798e-14)
(12.0619 -5.53965 -1.78407e-14)
(14.464 -6.99433 -2.87024e-16)
(16.9941 -9.4416 -4.06311e-15)
(21.9383 -7.49074 -3.89708e-15)
(18.0514 -10.9634 -5.78254e-15)
(35.4488 -20.149 -1.95435e-15)
(4.52249 -1.25359 -9.2254e-15)
(5.91256 -1.80459 4.98955e-15)
(7.78958 -2.61712 -3.79943e-15)
(10.0395 -3.56129 -1.04312e-14)
(12.505 -4.5405 8.18889e-15)
(14.9942 -5.72316 -2.54037e-16)
(17.588 -8.11156 7.67274e-15)
(22.6652 -5.88123 4.10484e-15)
(18.5254 -9.42124 2.4706e-15)
(36.7081 -17.1519 -4.22149e-16)
(4.69103 -0.956829 2.52416e-15)
(6.12168 -1.4003 -2.38122e-15)
(8.05122 -2.05097 -1.26934e-16)
(10.3663 -2.7924 9.97468e-15)
(12.8878 -3.54186 -1.38272e-14)
(15.4398 -4.42167 4.40222e-15)
(18.099 -6.69442 -3.99215e-15)
(23.1438 -4.27952 1.0617e-14)
(18.9938 -7.59027 0)
(37.606 -14.0241 -3.9529e-17)
(4.77549 -0.733152 2.6686e-15)
(6.28983 -1.07909 2.3091e-15)
(8.2968 -1.5489 3.98227e-15)
(10.6757 -2.06523 -6.32027e-15)
(13.2347 -2.56815 2.59302e-15)
(15.8165 -3.11618 0)
(18.5239 -5.22317 -1.70634e-15)
(23.5353 -2.72033 -6.98887e-15)
(19.382 -5.7785 -7.51359e-17)
(38.0397 -10.7142 2.44917e-15)
(4.79711 -0.58707 1.1599e-15)
(6.42747 -0.853678 0)
(8.53433 -1.1394 1.90283e-15)
(10.9646 -1.4236 1.66096e-15)
(13.5316 -1.68693 1.14926e-16)
(16.1345 -1.91833 -1.01473e-15)
(18.8839 -3.80328 1.66453e-15)
(23.6162 -1.11348 0)
(19.8024 -3.58178 3.09464e-15)
(37.9328 -7.50742 2.5657e-15)
(4.76536 -0.518381 1.28647e-15)
(6.51128 -0.738919 -2.26156e-15)
(8.72314 -0.903583 -1.35224e-16)
(11.2018 -1.11114 6.29895e-16)
(13.7893 -1.26321 -6.2707e-17)
(16.4097 -1.07973 9.68524e-16)
(19.3981 -2.8241 -1.58516e-15)
(24.2686 0.19937 -1.65122e-16)
(20.0499 -1.25131 2.66312e-15)
(38.0026 -4.90619 -1.95533e-15)
(4.62032 -0.770036 1.95387e-29)
(6.48442 -0.939583 0)
(8.78009 -1.04187 0)
(11.2673 -1.11584 -7.52413e-16)
(13.9062 -1.19523 0)
(16.5775 -0.900898 0)
(19.218 -2.31296 7.7025e-16)
(24.2129 -0.181714 0)
(20.8855 -0.337229 0)
(36.3073 -5.33485 -8.19885e-30)
(1.22917 -0.343287 9.79053e-16)
(1.70586 -1.15609 -7.58033e-15)
(2.32137 -1.19605 7.54365e-15)
(2.86533 -1.03595 -1.06797e-14)
(3.22651 -0.7721 6.6294e-15)
(3.43918 -0.537017 -1.24876e-14)
(3.53066 -0.380898 2.87574e-15)
(3.52116 -0.309131 -2.91581e-15)
(3.43442 -0.290206 0)
(3.17936 -0.554138 -3.49303e-16)
(-0.303414 -0.251089 1.43033e-14)
(0.34139 -0.943261 0)
(0.99102 -0.871652 7.78295e-15)
(1.64978 -0.693884 -3.2486e-15)
(2.09478 -0.446895 -1.07451e-14)
(2.36008 -0.250789 0)
(2.47604 -0.130855 -3.03782e-15)
(2.47279 -0.0797082 -1.24811e-15)
(2.38562 -0.0591158 8.26956e-16)
(2.09018 -0.284755 -3.60921e-16)
(-0.914349 -0.330973 -1.18258e-14)
(-0.550622 -0.854809 0)
(-0.0398336 -0.724161 7.06292e-15)
(0.601672 -0.507245 6.56882e-16)
(1.09825 -0.252645 9.11511e-15)
(1.41294 -0.0686168 -3.65211e-15)
(1.55934 0.0495867 0)
(1.57807 0.107968 3.28033e-15)
(1.51571 0.144212 -5.2591e-16)
(1.26015 -0.0106107 4.16594e-16)
(-0.799789 -0.332111 5.38695e-15)
(-0.976943 -0.693272 -2.29234e-15)
(-0.7904 -0.647184 5.31369e-15)
(-0.323929 -0.412194 -5.95086e-15)
(0.156456 -0.133203 6.53265e-16)
(0.509117 0.0813008 3.8616e-15)
(0.69047 0.204763 -1.01228e-14)
(0.748928 0.273532 1.61576e-15)
(0.73291 0.315026 2.46391e-15)
(0.581732 0.23899 6.48125e-17)
(-0.528028 -0.266773 -8.11805e-15)
(-0.918401 -0.487705 6.55567e-15)
(-1.10208 -0.515836 0)
(-0.933765 -0.33548 2.19487e-15)
(-0.632545 -0.0770906 2.45252e-15)
(-0.333271 0.165968 -2.88433e-16)
(-0.131662 0.321025 1.76353e-15)
(-0.0311285 0.413204 3.94538e-15)
(0.00470972 0.459879 -1.03143e-17)
(-0.0394833 0.439329 3.62023e-16)
(-0.277921 -0.186428 -3.27024e-15)
(-0.671036 -0.274966 5.15569e-15)
(-1.00873 -0.338956 1.93721e-15)
(-1.10561 -0.227674 -3.31703e-15)
(-1.02532 -0.0241649 -2.01763e-15)
(-0.872074 0.187704 -2.50463e-16)
(-0.724744 0.340986 -3.63776e-15)
(-0.620759 0.430162 1.08217e-15)
(-0.552432 0.474729 3.4942e-16)
(-0.526268 0.475367 -3.73992e-16)
(-0.109765 -0.104347 0)
(-0.386563 -0.0871098 -1.72461e-15)
(-0.738309 -0.138474 4.34703e-16)
(-0.974687 -0.0819946 -7.77406e-16)
(-1.05835 0.04816 1.32253e-15)
(-1.0437 0.196148 0)
(-0.98859 0.316218 8.24088e-16)
(-0.917981 0.386628 1.2033e-15)
(-0.843283 0.423999 -1.08748e-15)
(-0.776675 0.425529 -2.78389e-17)
(-0.00581039 -0.0203256 0)
(-0.157151 0.0778836 -4.5273e-16)
(-0.432888 0.0623371 2.91867e-15)
(-0.682683 0.0837819 -2.15958e-15)
(-0.840365 0.143321 0)
(-0.91029 0.21737 -3.89312e-16)
(-0.919828 0.275401 -9.80138e-16)
(-0.890383 0.29604 7.83427e-16)
(-0.829112 0.296844 8.15236e-16)
(-0.74636 0.266244 -3.16174e-16)
(0.0728121 0.0198223 -8.68888e-16)
(-0.00191298 0.162842 4.52602e-16)
(-0.185636 0.130034 4.35618e-16)
(-0.373765 0.0914056 -4.2347e-16)
(-0.510181 0.069021 0)
(-0.586027 0.0581085 4.16561e-16)
(-0.605892 0.0465214 6.23903e-16)
(-0.582597 0.0230604 -7.272e-16)
(-0.51431 -0.0185428 -1.54661e-16)
(-0.431168 -0.11445 1.25039e-17)
(0.514896 0.416462 -2.28187e-16)
(0.758063 0.720726 7.83624e-17)
(0.7979 0.734567 6.4085e-17)
(0.769515 0.694665 0)
(0.718324 0.67667 -2.61225e-17)
(0.659729 0.684016 0)
(0.602428 0.704642 -1.14366e-16)
(0.549055 0.729229 1.61854e-16)
(0.505163 0.758153 3.42388e-17)
(0.42017 0.766655 -1.01104e-17)
)
;

boundaryField
{
    right
    {
        type            cyclic;
    }
    left
    {
        type            cyclic;
    }
    outerWall
    {
        type            noSlip;
    }
    stirrerWall
    {
        type            noSlip;
    }
    top
    {
        type            empty;
    }
    bottom
    {
        type            empty;
    }
}


// ************************************************************************* //
