/*--------------------------------*- C++ -*----------------------------------*\
  =========                 |
  \\      /  F ield         | OpenFOAM: The Open Source CFD Toolbox
   \\    /   O peration     | Website:  https://openfoam.org
    \\  /    A nd           | Version:  10
     \\/     M anipulation  |
\*---------------------------------------------------------------------------*/
FoamFile
{
    format      ascii;
    class       volScalarField;
    location    "2500";
    object      k;
}
// * * * * * * * * * * * * * * * * * * * * * * * * * * * * * * * * * * * * * //

dimensions      [0 2 -2 0 0 0 0];

internalField   nonuniform List<scalar> 
420
(
2.22045e-16
2.22045e-16
2.22045e-16
2.22045e-16
2.22045e-16
2.22045e-16
2.22045e-16
2.22045e-16
2.22045e-16
2.22045e-16
2.22045e-16
2.22045e-16
2.22045e-16
2.22045e-16
2.22045e-16
2.22045e-16
2.22045e-16
2.22045e-16
2.22045e-16
2.22045e-16
2.22045e-16
2.22045e-16
2.22045e-16
2.22045e-16
2.22045e-16
2.22045e-16
2.22045e-16
2.22045e-16
2.22045e-16
2.22045e-16
2.22045e-16
2.22045e-16
2.22045e-16
2.22045e-16
2.22045e-16
2.22045e-16
2.22045e-16
2.22045e-16
2.22045e-16
2.22045e-16
2.22045e-16
2.22045e-16
2.22045e-16
2.22045e-16
2.22045e-16
2.22045e-16
2.22045e-16
2.22045e-16
2.22045e-16
2.22045e-16
2.22045e-16
2.22045e-16
2.22045e-16
2.22045e-16
2.22045e-16
2.22045e-16
2.22045e-16
2.22045e-16
2.22045e-16
2.22045e-16
2.22045e-16
2.22045e-16
2.22045e-16
2.22045e-16
2.22045e-16
2.22045e-16
2.22045e-16
2.22045e-16
2.22045e-16
2.22045e-16
2.22045e-16
2.22045e-16
2.22045e-16
2.22045e-16
2.22045e-16
2.22045e-16
2.22045e-16
2.22045e-16
2.22045e-16
2.22045e-16
2.22045e-16
2.22045e-16
2.22045e-16
2.22045e-16
2.22045e-16
2.22045e-16
2.22045e-16
2.22045e-16
2.22045e-16
2.22045e-16
2.22045e-16
2.22045e-16
2.22045e-16
2.22045e-16
2.22045e-16
2.22045e-16
2.22045e-16
2.22045e-16
2.22045e-16
2.22045e-16
2.22045e-16
2.22045e-16
2.22045e-16
2.49834e-16
2.76699e-16
2.60906e-16
2.33647e-16
2.54316e-16
3.95526e-16
3.30342e-16
2.22045e-16
2.22045e-16
2.22045e-16
2.40286e-16
2.7184e-16
2.59995e-16
2.3218e-16
2.48771e-16
4.5292e-16
3.48251e-16
2.22045e-16
2.22045e-16
2.22045e-16
2.34327e-16
2.71219e-16
2.62554e-16
2.31962e-16
2.33451e-16
5.09705e-16
3.57173e-16
2.22045e-16
2.22045e-16
2.22045e-16
2.30604e-16
2.72371e-16
2.6741e-16
2.34313e-16
2.22045e-16
5.37018e-16
3.52224e-16
2.22045e-16
2.22045e-16
2.22045e-16
2.30003e-16
2.7523e-16
2.73065e-16
2.38956e-16
2.22045e-16
5.09175e-16
3.33967e-16
2.22045e-16
2.22045e-16
2.22045e-16
2.32802e-16
2.80321e-16
2.79124e-16
2.43445e-16
2.22045e-16
4.52991e-16
3.03852e-16
2.22045e-16
2.22045e-16
2.22045e-16
2.39037e-16
2.86784e-16
2.84669e-16
2.46801e-16
2.22045e-16
3.97862e-16
2.73134e-16
2.22045e-16
2.22045e-16
2.22045e-16
2.48912e-16
2.94098e-16
2.89479e-16
2.48353e-16
2.22045e-16
3.51895e-16
2.45787e-16
2.22045e-16
2.22045e-16
2.22045e-16
2.62682e-16
3.0197e-16
2.93594e-16
2.47946e-16
2.22045e-16
3.16838e-16
2.25292e-16
2.22045e-16
2.22045e-16
2.22045e-16
2.79342e-16
3.09838e-16
2.96892e-16
2.46197e-16
2.22045e-16
2.94444e-16
2.22045e-16
2.22045e-16
2.22045e-16
2.28137e-16
2.86052e-16
3.06616e-16
2.90016e-16
2.39036e-16
2.22045e-16
2.88368e-16
2.22045e-16
2.22045e-16
2.22045e-16
2.39652e-16
2.82323e-16
3.02006e-16
2.86232e-16
2.34458e-16
2.22045e-16
2.86406e-16
2.22045e-16
2.22045e-16
2.22045e-16
2.52004e-16
2.8509e-16
3.0574e-16
2.89908e-16
2.33878e-16
2.22045e-16
2.78238e-16
2.22045e-16
2.22045e-16
2.41402e-16
2.67624e-16
2.91774e-16
3.13103e-16
2.9417e-16
2.33369e-16
2.22045e-16
2.62558e-16
2.22045e-16
2.37805e-16
2.53495e-16
2.69102e-16
2.92801e-16
3.15712e-16
2.93794e-16
2.30769e-16
2.22045e-16
2.51028e-16
2.22045e-16
2.41331e-16
2.51436e-16
2.66554e-16
2.91927e-16
3.16159e-16
2.91328e-16
2.29485e-16
2.22045e-16
2.40503e-16
2.22045e-16
2.38776e-16
2.47986e-16
2.63404e-16
2.89868e-16
3.14664e-16
2.87859e-16
2.29922e-16
2.22045e-16
2.33113e-16
2.22045e-16
2.3561e-16
2.43894e-16
2.59216e-16
2.86592e-16
3.10601e-16
2.83404e-16
2.31427e-16
2.22045e-16
2.29803e-16
2.22045e-16
2.31666e-16
2.39296e-16
2.54568e-16
2.82762e-16
3.05569e-16
2.79035e-16
2.33524e-16
2.23843e-16
2.33143e-16
2.22045e-16
2.26547e-16
2.33479e-16
2.4888e-16
2.78057e-16
3.00035e-16
2.74147e-16
2.3531e-16
2.3536e-16
2.45989e-16
2.35083e-16
2.22045e-16
2.25273e-16
2.40724e-16
2.71189e-16
2.92868e-16
2.68003e-16
2.3571e-16
2.47213e-16
2.74608e-16
2.74838e-16
2.22045e-16
2.22045e-16
2.29662e-16
2.62755e-16
2.85003e-16
2.63643e-16
2.35263e-16
2.50763e-16
3.27855e-16
3.10917e-16
2.22045e-16
2.22045e-16
2.22045e-16
2.29677e-16
2.31495e-16
2.2995e-16
2.28122e-16
2.25455e-16
2.22045e-16
2.22045e-16
2.22045e-16
2.22045e-16
2.22045e-16
2.22045e-16
2.22045e-16
2.22045e-16
2.22045e-16
2.22045e-16
2.22045e-16
2.22045e-16
2.22045e-16
2.22045e-16
2.22045e-16
2.22045e-16
2.22045e-16
2.22045e-16
2.22045e-16
2.22045e-16
2.22045e-16
2.22045e-16
2.22045e-16
2.22045e-16
2.22045e-16
2.22045e-16
2.22045e-16
2.22045e-16
2.22045e-16
2.22045e-16
2.22045e-16
2.22045e-16
2.22045e-16
2.22045e-16
2.22045e-16
2.22045e-16
2.22045e-16
2.22045e-16
2.22045e-16
2.22045e-16
2.22045e-16
2.22045e-16
2.22045e-16
2.22045e-16
2.22045e-16
2.22045e-16
2.22045e-16
2.22045e-16
2.22045e-16
2.22045e-16
2.22045e-16
2.22045e-16
2.22045e-16
2.22045e-16
2.22045e-16
2.22045e-16
2.22045e-16
2.22045e-16
2.22045e-16
2.22045e-16
2.22045e-16
2.22045e-16
2.22045e-16
2.22045e-16
2.22045e-16
2.22045e-16
2.22045e-16
2.22045e-16
2.22045e-16
2.22045e-16
2.22045e-16
2.22045e-16
2.22045e-16
2.22045e-16
2.22045e-16
2.22045e-16
2.22045e-16
2.22045e-16
2.22045e-16
2.22045e-16
2.22045e-16
2.22045e-16
2.22045e-16
2.22045e-16
2.22045e-16
2.22045e-16
2.22045e-16
2.22045e-16
2.22045e-16
2.22045e-16
2.22045e-16
2.22045e-16
)
;

boundaryField
{
    right
    {
        type            cyclic;
    }
    left
    {
        type            cyclic;
    }
    outerWall
    {
        type            kqRWallFunction;
        value           nonuniform List<scalar> 
22
(
3.30342e-16
3.48251e-16
3.57173e-16
3.52224e-16
3.33967e-16
3.03852e-16
2.73134e-16
2.45787e-16
2.25292e-16
2.22045e-16
2.22045e-16
2.22045e-16
2.22045e-16
2.22045e-16
2.22045e-16
2.22045e-16
2.22045e-16
2.22045e-16
2.22045e-16
2.35083e-16
2.74838e-16
3.10917e-16
)
;
    }
    stirrerWall
    {
        type            kqRWallFunction;
        value           uniform 2.22045e-16;
    }
    top
    {
        type            empty;
    }
    bottom
    {
        type            empty;
    }
}


// ************************************************************************* //
