/*--------------------------------*- C++ -*----------------------------------*\
  =========                 |
  \\      /  F ield         | OpenFOAM: The Open Source CFD Toolbox
   \\    /   O peration     | Website:  https://openfoam.org
    \\  /    A nd           | Version:  10
     \\/     M anipulation  |
\*---------------------------------------------------------------------------*/
FoamFile
{
    format      ascii;
    class       volScalarField;
    location    "2500";
    object      nut;
}
// * * * * * * * * * * * * * * * * * * * * * * * * * * * * * * * * * * * * * //

dimensions      [0 2 -1 0 0 0 0];

internalField   nonuniform List<scalar> 
420
(
1.04478e-20
4.83469e-20
1.38246e-19
2.82251e-19
4.5973e-19
6.45052e-19
8.00262e-19
8.56617e-19
7.74128e-19
6.44845e-19
1.04473e-20
5.14563e-20
1.40898e-19
2.81161e-19
4.56939e-19
6.43274e-19
7.94755e-19
8.37595e-19
7.38232e-19
6.00566e-19
1.04471e-20
5.59543e-20
1.51218e-19
2.91841e-19
4.6305e-19
6.4215e-19
7.82901e-19
8.12525e-19
7.02138e-19
5.53581e-19
1.04472e-20
5.96408e-20
1.62732e-19
3.05514e-19
4.69238e-19
6.3345e-19
7.56495e-19
7.72617e-19
6.59402e-19
5.01322e-19
1.04476e-20
6.23479e-20
1.71348e-19
3.11518e-19
4.59243e-19
5.99066e-19
6.99871e-19
7.0794e-19
6.02618e-19
4.41373e-19
1.04483e-20
6.28342e-20
1.68548e-19
2.87841e-19
4.0102e-19
5.04737e-19
5.83355e-19
5.97474e-19
5.18802e-19
3.69194e-19
1.04493e-20
6.02227e-20
1.39336e-19
2.10658e-19
2.7437e-19
3.36794e-19
3.93792e-19
4.22951e-19
3.90046e-19
2.78911e-19
1.04506e-20
4.79745e-20
8.12567e-20
1.06882e-19
1.32445e-19
1.60568e-19
1.90836e-19
2.17081e-19
2.23081e-19
1.78011e-19
1.04522e-20
2.16036e-20
2.81657e-20
3.488e-20
4.23232e-20
5.06715e-20
5.99562e-20
6.96759e-20
7.79161e-20
8.0161e-20
2.82342e-21
3.6643e-21
4.61494e-21
5.67535e-21
6.84552e-21
8.12545e-21
9.51514e-21
1.10146e-20
1.26238e-20
1.43428e-20
5.47066e-19
5.04924e-19
5.39266e-19
7.55821e-19
1.01741e-18
9.34419e-19
5.698e-19
2.87252e-19
1.73064e-19
7.81597e-20
5.00508e-19
4.57559e-19
4.93942e-19
6.93279e-19
1.00015e-18
9.88555e-19
6.57516e-19
3.35313e-19
1.65273e-19
7.43494e-20
4.46871e-19
4.00576e-19
4.38503e-19
6.30215e-19
9.77286e-19
1.02973e-18
7.45196e-19
3.97986e-19
1.55588e-19
6.93299e-20
3.87386e-19
3.39986e-19
3.8244e-19
5.73133e-19
9.49895e-19
1.04819e-18
7.96494e-19
4.60547e-19
1.43252e-19
6.51928e-20
3.21935e-19
2.79808e-19
3.31362e-19
5.2932e-19
9.2627e-19
1.0496e-18
8.07926e-19
4.73844e-19
1.27294e-19
6.26799e-20
2.51777e-19
2.24239e-19
2.86359e-19
4.99794e-19
9.15436e-19
1.05077e-18
8.08299e-19
4.75541e-19
1.18925e-19
6.14074e-20
1.81992e-19
1.73598e-19
2.4777e-19
4.87998e-19
9.21423e-19
1.05382e-18
8.00566e-19
4.67265e-19
1.14821e-19
6.0168e-20
1.17502e-19
1.29841e-19
2.18078e-19
4.99112e-19
9.45642e-19
1.05815e-18
7.84354e-19
4.52293e-19
1.14724e-19
5.99054e-20
6.50095e-20
9.49175e-20
2.01083e-19
5.44569e-19
9.89733e-19
1.03925e-18
7.59682e-19
4.3295e-19
1.19687e-19
6.17852e-20
2.83972e-20
7.06054e-20
2.07365e-19
6.49639e-19
7.64244e-19
7.60157e-19
7.17901e-19
4.10127e-19
1.32665e-19
6.19718e-20
1.03958e-20
6.48118e-20
2.90541e-19
6.55551e-19
7.26095e-19
7.35704e-19
6.80126e-19
3.83902e-19
1.36859e-19
6.20994e-20
1.03958e-20
8.02798e-20
3.85365e-19
8.69882e-19
1.08468e-18
1.00986e-18
6.51426e-19
3.68717e-19
1.28744e-19
5.94124e-20
5.07802e-20
1.8465e-19
5.54479e-19
9.10786e-19
1.08668e-18
9.98036e-19
6.27073e-19
3.51941e-19
1.22792e-19
6.19718e-20
2.47409e-19
5.23877e-19
6.67362e-19
7.96267e-19
8.99653e-19
8.77676e-19
5.91322e-19
3.25425e-19
1.22693e-19
6.19801e-20
5.44455e-19
5.98492e-19
6.48992e-19
7.59657e-19
8.52165e-19
8.2194e-19
5.51453e-19
2.99677e-19
1.26283e-19
6.19873e-20
6.49184e-19
6.28738e-19
6.45775e-19
7.48437e-19
8.32789e-19
7.93481e-19
5.15722e-19
2.75218e-19
1.3024e-19
6.19932e-20
6.84592e-19
6.29839e-19
6.31527e-19
7.30672e-19
8.10257e-19
7.66679e-19
4.85465e-19
2.52443e-19
1.35826e-19
6.19978e-20
6.88301e-19
6.18568e-19
6.2061e-19
7.34416e-19
8.2549e-19
7.49241e-19
4.60694e-19
2.32677e-19
1.27526e-19
6.20012e-20
6.70062e-19
6.22628e-19
6.75612e-19
8.35568e-19
9.48972e-19
7.38575e-19
4.4712e-19
2.18343e-19
1.20056e-19
6.20033e-20
6.6845e-19
6.4303e-19
7.0736e-19
8.95493e-19
9.99237e-19
7.31187e-19
4.46801e-19
2.17397e-19
1.176e-19
6.56448e-20
6.2438e-19
5.93407e-19
6.66075e-19
8.74749e-19
1.02358e-18
7.89089e-19
4.64549e-19
2.26585e-19
1.23861e-19
7.67455e-20
5.90433e-19
5.53396e-19
6.13104e-19
8.46578e-19
1.05127e-18
8.30969e-19
5.08755e-19
2.52453e-19
1.48408e-19
7.31947e-20
1.43428e-20
1.16289e-19
4.26778e-19
6.57063e-19
7.51398e-19
7.88919e-19
7.76567e-19
7.50134e-19
7.11162e-19
6.79741e-19
1.26238e-20
8.7326e-20
3.12026e-19
6.09101e-19
7.81511e-19
8.4236e-19
8.53132e-19
8.43806e-19
8.12001e-19
7.71409e-19
1.10146e-20
6.94164e-20
2.25965e-19
4.57899e-19
6.57676e-19
7.78206e-19
8.33383e-19
8.55465e-19
8.61505e-19
8.58496e-19
9.51514e-21
5.36287e-20
1.52604e-19
3.05125e-19
4.74654e-19
6.21137e-19
7.13502e-19
7.61114e-19
7.83055e-19
7.9506e-19
8.12545e-21
4.47925e-20
1.1751e-19
2.20083e-19
3.37988e-19
4.53139e-19
5.50435e-19
6.11149e-19
6.3762e-19
6.45098e-19
6.84552e-21
3.83118e-20
9.91084e-20
1.79069e-19
2.66989e-19
3.51493e-19
4.21652e-19
4.6343e-19
4.75312e-19
4.69344e-19
5.67535e-21
3.25085e-20
8.60708e-20
1.53296e-19
2.1936e-19
2.7359e-19
3.08803e-19
3.20007e-19
3.12322e-19
2.96126e-19
4.61494e-21
2.67224e-20
7.08227e-20
1.18442e-19
1.52548e-19
1.70933e-19
1.76446e-19
1.72277e-19
1.61891e-19
1.48899e-19
3.6643e-21
2.07371e-20
4.36077e-20
5.55918e-20
6.04788e-20
6.22131e-20
6.22263e-20
6.10451e-20
5.81373e-20
5.34516e-20
2.82342e-21
1.04522e-20
1.04506e-20
1.04493e-20
1.04483e-20
1.04476e-20
1.04472e-20
1.04471e-20
1.04473e-20
1.04478e-20
)
;

boundaryField
{
    right
    {
        type            cyclic;
    }
    left
    {
        type            cyclic;
    }
    outerWall
    {
        type            nutkWallFunction;
        Cmu             0.09;
        kappa           0.41;
        E               9.8;
        value           uniform 0;
    }
    stirrerWall
    {
        type            nutkWallFunction;
        Cmu             0.09;
        kappa           0.41;
        E               9.8;
        value           uniform 0;
    }
    top
    {
        type            empty;
    }
    bottom
    {
        type            empty;
    }
}


// ************************************************************************* //
