/*--------------------------------*- C++ -*----------------------------------*\
  =========                 |
  \\      /  F ield         | OpenFOAM: The Open Source CFD Toolbox
   \\    /   O peration     | Website:  https://openfoam.org
    \\  /    A nd           | Version:  10
     \\/     M anipulation  |
\*---------------------------------------------------------------------------*/
FoamFile
{
    format      ascii;
    class       volScalarField;
    location    "2500";
    object      omega;
}
// * * * * * * * * * * * * * * * * * * * * * * * * * * * * * * * * * * * * * //

dimensions      [0 0 -1 0 0 0 0];

internalField   nonuniform List<scalar> 
420
(
21252.7
4592.73
1606.16
786.692
482.989
344.228
277.465
259.211
286.832
344.338
21253.7
4315.21
1575.92
789.741
485.939
345.179
279.388
265.098
300.779
369.725
21254.2
3968.32
1468.37
760.842
479.527
345.783
283.618
273.277
316.24
401.106
21254
3723.03
1364.48
726.789
473.202
350.532
293.518
287.393
336.736
442.918
21253.2
3561.38
1295.87
712.782
483.501
370.651
317.265
313.649
368.467
503.077
21251.7
3533.82
1317.4
771.414
553.7
439.922
380.634
371.639
427.995
601.43
21249.7
3687.06
1593.59
1054.05
809.289
659.288
563.862
524.989
569.277
796.113
21247.1
4628.39
2732.63
2077.48
1676.51
1382.87
1163.54
1022.87
995.352
1247.37
21243.8
10278.1
7883.5
6365.96
5246.41
4382.04
3703.45
3186.82
2849.79
2769.98
78643.9
60596.7
48114.3
39124.4
32436.5
27327.1
23335.9
20159.1
17589.3
15481.3
405.883
439.759
411.754
330.546
271.964
279.217
410.051
885.34
2207.15
3581.27
443.638
485.28
449.536
346.594
271.798
263.005
353.117
741.907
2203.62
3581.17
496.888
554.313
506.369
371.821
277.522
254.973
311.276
586.582
2144.39
3581.13
573.187
653.099
580.599
402.356
286.737
255.115
294.181
482.132
2031.94
3581.18
689.72
793.561
670.097
434.525
297.139
260.161
295.765
468.603
1859.4
3581.3
881.91
990.213
775.407
465.796
306.215
265.638
301.181
466.93
1654.38
3581.49
1220.08
1279.07
896.172
489.832
311.24
270.131
308.283
475.201
1492.09
3581.76
1889.71
1710.12
1018.19
498.71
311.003
273.571
316.634
490.931
1381.73
3582.1
3415.57
2339.34
1104.24
482.366
305.102
276.457
326.382
512.864
1319.91
3582.51
7819.24
3144.87
1070.79
429.995
294.207
279.54
338.527
541.404
1306.46
3582.99
21359.1
3425.99
785.216
345.426
279.582
280.415
351.459
578.388
1351.27
3575.63
21359.1
2765.88
621.882
324.553
278.223
283.436
359.915
602.209
1380.05
3575.63
4372.66
1202.51
454.488
313.016
281.351
290.479
372.968
630.914
1399.58
3582.99
897.479
460.799
340.459
303.694
285.25
299.832
394.655
682.322
1439.16
3582.51
381.892
334.939
323.351
304.192
288.294
308.668
418.475
740.946
1498.73
3582.1
310.009
322.423
325.871
306.272
290.769
317.551
444.977
806.795
1574.42
3581.76
304.942
328.285
331.42
308.206
292.921
326.571
473.611
879.583
1673.76
3581.49
312.806
337.804
337.274
309.595
293.834
333.899
502.344
954.303
1802
3581.3
324.613
349.326
343.934
310.345
292.289
336.157
522.284
1025.19
1941.95
3581.18
338.914
363.091
351.844
310.508
287.978
331.523
526.655
1082.62
2091.74
3581.13
355.624
379.627
361.407
310.019
280.507
318.43
507.396
1091.04
2217.06
3581.17
376.071
401.24
374.589
310.374
271.105
298.141
462.43
993.306
2209.14
3581.27
15481.3
1909.42
520.281
315.796
282.464
280.997
288.372
299.292
312.228
326.661
17589.3
2542.71
711.622
364.545
284.122
263.598
260.27
263.147
269.168
277.325
20159.1
3198.74
982.65
484.921
337.62
285.329
266.438
259.56
257.74
257.896
23335.9
4140.41
1455.03
727.717
467.803
357.481
311.204
291.736
283.562
279.28
27327.1
4957.19
1889.58
1008.91
656.959
490.014
403.398
363.323
348.24
344.203
32436.5
5795.72
2240.42
1240
831.661
631.719
526.606
479.133
467.156
473.095
39124.4
6830.36
2579.79
1448.47
1012.24
811.596
719.049
693.875
710.947
749.832
48114.3
8309.3
3135.22
1874.71
1455.57
1299.02
1258.43
1288.88
1371.57
1491.24
60596.7
10707.6
5091.87
3994.2
3671.44
3569.1
3568.34
3637.38
3819.31
4154.12
78643.9
21243.8
21247.1
21249.7
21251.7
21253.2
21254
21254.2
21253.7
21252.7
)
;

boundaryField
{
    right
    {
        type            cyclic;
    }
    left
    {
        type            cyclic;
    }
    outerWall
    {
        beta1           0.075;
        blended         0;
        type            omegaWallFunction;
        value           nonuniform List<scalar> 
22
(
3581.27
3581.17
3581.13
3581.18
3581.3
3581.49
3581.76
3582.1
3582.51
3582.99
3575.63
3575.63
3582.99
3582.51
3582.1
3581.76
3581.49
3581.3
3581.18
3581.13
3581.17
3581.27
)
;
    }
    stirrerWall
    {
        beta1           0.075;
        blended         0;
        type            omegaWallFunction;
        value           nonuniform List<scalar> 
42
(
21252.7
21253.7
21254.2
21254
21253.2
21251.7
21249.7
21247.1
21243.8
78643.9
78643.9
60596.7
48114.3
39124.4
32436.5
27327.1
23335.9
20159.1
17589.3
15481.3
21359.1
21359.1
15481.3
17589.3
20159.1
23335.9
27327.1
32436.5
39124.4
48114.3
60596.7
78643.9
78643.9
21243.8
21247.1
21249.7
21251.7
21253.2
21254
21254.2
21253.7
21252.7
)
;
    }
    top
    {
        type            empty;
    }
    bottom
    {
        type            empty;
    }
}


// ************************************************************************* //
