/*--------------------------------*- C++ -*----------------------------------*\
  =========                 |
  \\      /  F ield         | OpenFOAM: The Open Source CFD Toolbox
   \\    /   O peration     | Website:  https://openfoam.org
    \\  /    A nd           | Version:  10
     \\/     M anipulation  |
\*---------------------------------------------------------------------------*/
FoamFile
{
    format      ascii;
    class       volScalarField;
    location    "2500";
    object      p;
}
// * * * * * * * * * * * * * * * * * * * * * * * * * * * * * * * * * * * * * //

dimensions      [0 2 -2 0 0 0 0];

internalField   nonuniform List<scalar> 
420
(
-1.06733
12.9534
28.7104
46.9165
66.8307
87.8574
109.509
131.211
152.511
172.975
-2.46366
12.2465
27.9151
45.9209
65.6317
86.5049
108.081
129.786
151.093
171.57
-3.28474
11.5895
27.1005
44.8545
64.3059
84.9753
106.436
128.124
149.481
170.043
-3.77344
11.0347
26.3166
43.7574
62.888
83.2976
104.618
126.315
147.805
168.542
-4.10093
10.6078
25.6277
42.7045
61.4561
81.5569
102.716
124.452
146.149
167.159
-4.33497
10.3281
25.088
41.7717
60.1
79.8478
100.808
122.592
144.566
165.959
-4.50347
10.205
24.7369
41.0174
58.8947
78.2433
98.9444
120.747
143.067
165.01
-4.62518
10.2451
24.599
40.4791
57.8958
76.8022
97.1579
118.86
141.51
164.159
-4.74956
10.4691
24.6796
40.178
57.1678
75.6253
95.5351
116.867
139.418
162.407
-4.94561
10.8364
24.7984
39.9909
56.6933
74.8335
94.3546
115.146
136.863
158.973
192.268
210.941
229.174
246.618
263.275
279.433
294.07
307.419
318.041
400.276
190.846
209.356
227.159
243.873
259.489
274.188
286.724
297.489
308.629
393.96
189.336
207.663
224.993
240.989
255.654
269.067
279.667
287.972
298.945
386.602
187.914
206.075
222.942
238.298
252.133
264.468
273.445
279.572
289.899
378.213
186.686
204.717
221.183
236.043
249.236
260.771
268.536
273.015
282.898
369.794
185.734
203.652
219.818
234.381
247.158
258.218
265.292
268.862
278.861
362.765
185.19
202.919
218.858
233.379
246.017
256.954
263.868
267.364
278.01
358.325
185.088
202.552
218.295
233.064
245.893
257.063
264.341
268.681
280.775
357.033
184.844
202.812
218.441
233.546
246.791
258.455
266.59
272.822
287.542
359.025
183.664
204.237
219.866
235.028
248.699
261.035
270.304
278.731
295.187
363.98
183.828
205.923
222.076
237.49
251.595
264.783
274.986
283.942
295.164
370.55
186.106
207.244
224.019
239.662
254.186
268.048
279.286
288.878
298.276
374.399
191.913
209.324
226.308
242.414
257.538
272.137
284.811
295.696
309.712
379.981
192.884
210.689
228.163
244.97
260.925
276.55
290.914
303.99
320.652
387.271
193.231
211.687
229.745
247.269
264.123
280.89
297.207
313.029
330.793
394.178
193.722
212.506
231.046
249.207
266.898
284.731
302.843
321.111
339.439
400.318
194.235
213.179
232.046
250.696
269.082
287.872
307.653
328.06
346.566
404.716
194.597
213.626
232.685
251.64
270.507
290.086
311.306
333.393
352.36
409.377
194.742
213.807
232.927
251.975
271.011
290.954
312.816
335.621
357.152
417.881
194.625
213.679
232.752
251.696
270.536
290.081
311.024
332.519
357.439
425.718
194.214
213.208
232.144
250.838
269.206
287.743
306.692
324.919
347.89
415.986
193.451
212.325
231.011
249.221
266.894
284.412
301.063
316.091
330.168
402.444
174.787
173.663
173.616
174.158
174.75
175.157
175.318
175.204
174.801
174.08
149.32
150.597
151.92
153.125
154.061
154.645
154.876
154.77
154.333
153.595
123.003
126.198
128.999
131.064
132.481
133.334
133.689
133.607
133.121
132.315
99.2246
102.587
105.976
108.603
110.434
111.558
112.057
112.019
111.52
110.658
78.1237
80.814
83.8798
86.5131
88.4496
89.6917
90.2861
90.3023
89.8308
88.9799
59.2839
61.1382
63.4324
65.5872
67.2785
68.4137
68.9854
69.0235
68.6059
67.8408
42.4464
43.5421
44.9348
46.3505
47.5346
48.3519
48.7581
48.7568
48.3942
47.7595
27.4519
27.9126
28.4711
29.0816
29.6341
30.0295
30.2025
30.1306
29.8346
29.3652
14.2599
14.0928
13.9765
13.958
14.0065
14.0527
14.0344
13.9218
13.716
13.4209
2.07476
0.870873
-0.0920817
-0.64261
-0.94648
-1.14511
-1.31441
-1.47788
-1.5963
-1.55034
)
;

boundaryField
{
    right
    {
        type            cyclic;
    }
    left
    {
        type            cyclic;
    }
    outerWall
    {
        type            zeroGradient;
    }
    stirrerWall
    {
        type            zeroGradient;
    }
    top
    {
        type            empty;
    }
    bottom
    {
        type            empty;
    }
}


// ************************************************************************* //
