/*--------------------------------*- C++ -*----------------------------------*\
  =========                 |
  \\      /  F ield         | OpenFOAM: The Open Source CFD Toolbox
   \\    /   O peration     | Website:  https://openfoam.org
    \\  /    A nd           | Version:  10
     \\/     M anipulation  |
\*---------------------------------------------------------------------------*/
FoamFile
{
    format      ascii;
    class       surfaceScalarField;
    location    "2500";
    object      phi;
}
// * * * * * * * * * * * * * * * * * * * * * * * * * * * * * * * * * * * * * //

dimensions      [0 3 -1 0 0 0 0];

internalField   nonuniform List<scalar> 
788
(
5.2613e-06
-3.58597e-07
3.81035e-06
7.92651e-06
3.90232e-06
1.20846e-05
4.34718e-06
1.33677e-05
4.47547e-06
1.22299e-05
3.83071e-06
9.23009e-06
2.08178e-06
5.20203e-06
-2.31961e-07
-1.22917e-06
-3.38351e-06
-1.02014e-05
-2.20344e-05
-7.36003e-06
3.01989e-06
-3.34179e-06
3.21465e-06
7.83704e-06
3.61569e-06
1.17519e-05
4.08542e-06
1.30009e-05
4.16694e-06
1.23835e-05
3.54513e-06
1.03367e-05
1.89916e-06
7.56453e-06
-3.31058e-07
1.67038e-06
-3.6163e-06
-6.58653e-06
-1.81864e-05
-7.49467e-06
1.49164e-06
-4.79734e-06
2.06491e-06
7.30967e-06
2.80436e-06
1.10055e-05
3.54208e-06
1.23281e-05
3.89292e-06
1.2237e-05
3.59681e-06
1.10516e-05
2.35909e-06
9.36725e-06
1.90412e-07
4.26417e-06
-3.07695e-06
-3.26411e-06
-1.50683e-05
-6.52898e-06
6.92079e-07
-5.48788e-06
1.20399e-06
6.73544e-06
2.11409e-06
9.95418e-06
3.10566e-06
1.12894e-05
3.77077e-06
1.1658e-05
3.7825e-06
1.12966e-05
2.91053e-06
1.05751e-05
7.66076e-07
6.58881e-06
-2.27202e-06
-3.50486e-07
-1.28254e-05
-4.90291e-06
1.24802e-07
-5.65635e-06
5.0624e-07
6.16169e-06
1.48147e-06
8.67532e-06
2.6637e-06
9.91005e-06
3.62172e-06
1.06356e-05
3.98454e-06
1.10131e-05
3.50696e-06
1.11716e-05
1.60079e-06
8.46544e-06
-9.70868e-07
1.94573e-06
-1.17126e-05
-2.49616e-06
-3.72556e-07
-5.37624e-06
-6.32004e-08
5.52131e-06
9.59404e-07
7.17437e-06
2.31783e-06
8.18272e-06
3.6146e-06
9.11343e-06
4.47661e-06
1.00776e-05
4.57762e-06
1.10546e-05
3.20303e-06
9.72488e-06
1.3282e-06
3.52937e-06
-1.14933e-05
7.85849e-07
-8.43997e-07
-4.67365e-06
-4.93344e-07
4.70034e-06
6.42822e-07
5.38604e-06
2.23752e-06
6.04948e-06
4.01488e-06
6.97853e-06
5.65714e-06
8.28522e-06
6.74403e-06
9.938e-06
6.36135e-06
1.00345e-05
4.98778e-06
4.69927e-06
-1.10728e-05
4.37763e-06
-1.33951e-06
-3.52262e-06
-7.73181e-07
3.53786e-06
5.93177e-07
3.21961e-06
2.48851e-06
3.48479e-06
4.87787e-06
4.17202e-06
7.65227e-06
5.391e-06
1.04612e-05
7.18771e-06
1.20281e-05
8.48512e-06
1.08861e-05
5.69111e-06
-8.65555e-06
8.27831e-06
-1.90635e-06
-1.8465e-06
-7.25309e-07
1.72134e-06
8.05766e-07
9.255e-07
2.83833e-06
8.67686e-07
5.71794e-06
1.02199e-06
9.63223e-06
1.52694e-06
1.45673e-05
2.42552e-06
1.96794e-05
3.38383e-06
2.13113e-05
3.79596e-06
-1.78537e-06
1.41225e-05
-2.04858e-06
-6.62626e-07
8.79799e-09
7.72819e-07
1.84992e-06
3.4909e-06
5.9383e-06
9.17364e-06
1.27544e-05
1.09046e-05
-1.17399e-05
-3.79347e-05
-1.65501e-05
-6.4297e-05
-2.15968e-05
-0.000103153
-2.76553e-05
-0.000152569
-3.51116e-05
-0.000210561
-4.53925e-05
-0.000282923
-6.31011e-05
-0.000382511
-7.96151e-05
-0.000451158
-0.000104008
-0.000538847
-0.00115785
-1.12388e-05
-3.44383e-05
-1.46672e-05
-6.09898e-05
-1.77627e-05
-9.97378e-05
-2.17308e-05
-0.000147952
-2.70893e-05
-0.000204742
-3.48093e-05
-0.000275364
-4.82099e-05
-0.00036977
-6.05786e-05
-0.000437618
-8.18609e-05
-0.000518541
-0.00123963
-9.16097e-06
-3.23166e-05
-1.07094e-05
-5.97903e-05
-1.16285e-05
-9.88374e-05
-1.33747e-05
-0.000146143
-1.60221e-05
-0.00020222
-1.94969e-05
-0.00027185
-2.69732e-05
-0.000362332
-3.15017e-05
-0.000433863
-3.91226e-05
-0.000510159
-0.0012787
-6.01518e-06
-3.16048e-05
-5.47425e-06
-6.04812e-05
-4.28105e-06
-9.99708e-05
-3.80576e-06
-0.000146783
-3.46036e-06
-0.000202936
-2.07778e-06
-0.000272709
-2.67137e-06
-0.000361301
3.59388e-06
-0.000440413
1.54604e-05
-0.000521654
-0.0012634
-1.84566e-06
-3.25305e-05
6.87292e-07
-6.2991e-05
3.62395e-06
-0.000102788
6.09717e-06
-0.000149515
9.35235e-06
-0.000206575
1.52521e-05
-0.000277935
2.09233e-05
-0.000367299
3.78669e-05
-0.00045746
6.94913e-05
-0.00055325
-0.00119401
2.79563e-06
-3.46475e-05
6.71153e-06
-6.67718e-05
1.08232e-05
-0.000106852
1.47731e-05
-0.000153896
2.01655e-05
-0.000212367
2.88826e-05
-0.000286014
3.84086e-05
-0.0003775
6.07752e-05
-0.000479721
9.65347e-05
-0.000589021
-0.00109746
7.13199e-06
-3.73674e-05
1.16397e-05
-7.10576e-05
1.6233e-05
-0.000111402
2.10366e-05
-0.000159071
2.76624e-05
-0.000219083
3.74295e-05
-0.000295114
4.80391e-05
-0.000388795
6.94342e-05
-0.000500728
0.000100518
-0.000620088
-0.000996959
1.11946e-05
-4.02855e-05
1.55375e-05
-7.52621e-05
2.00826e-05
-0.000116063
2.5163e-05
-0.000164534
3.21019e-05
-0.000225799
4.13917e-05
-0.000303703
5.06421e-05
-0.000398718
6.66106e-05
-0.000516227
8.98481e-05
-0.000643159
-0.000907449
1.48385e-05
-4.10255e-05
1.86839e-05
-7.90278e-05
2.2863e-05
-0.000120612
2.77314e-05
-0.000169887
3.43594e-05
-0.000232033
4.26061e-05
-0.00031127
4.95363e-05
-0.000406397
5.67472e-05
-0.000523381
6.79556e-05
-0.000653963
-0.000839426
1.82287e-05
-4.83137e-05
2.14025e-05
-8.2081e-05
2.45875e-05
-0.000123998
2.88949e-05
-0.000174616
3.49504e-05
-0.00023805
4.24146e-05
-0.000318758
5.0411e-05
-0.000414599
5.19982e-05
-0.000524788
3.06683e-05
-0.000633139
-0.000807848
3.59666e-06
-5.17622e-05
5.28538e-06
-8.37393e-05
5.23232e-06
-0.000124329
5.39867e-06
-0.000175357
6.81871e-06
-0.000239263
8.71598e-06
-0.000320598
9.46579e-06
-0.000415618
1.76792e-05
-0.000532984
4.46111e-05
-0.000660689
-0.000763199
5.09291e-06
-5.65965e-05
6.73339e-06
-8.51241e-05
6.61306e-06
-0.000124671
6.62713e-06
-0.000176033
7.77656e-06
-0.000240009
9.42667e-06
-0.000322017
9.49511e-06
-0.000416161
1.73071e-05
-0.000540563
4.85895e-05
-0.000692169
-0.000714808
1.44295e-05
-5.32698e-05
-1.73033e-05
1.4482e-05
-8.54162e-05
1.56511e-05
-0.000126049
1.73964e-05
-0.000178212
2.08671e-05
-0.000243152
2.60711e-05
-0.00032728
3.39466e-05
-0.000424342
3.67665e-05
-0.000543222
3.14225e-05
-0.000687295
-0.000683087
1.05428e-05
-5.56236e-05
-8.18419e-06
1.20152e-05
-8.69094e-05
1.36326e-05
-0.000127819
1.5293e-05
-0.000180417
1.81662e-05
-0.000245707
2.20952e-05
-0.000331327
2.68351e-05
-0.000429317
2.62481e-05
-0.000542887
3.22342e-05
-0.000693537
-0.000650758
5.83383e-06
-5.867e-05
-2.83769e-06
7.6181e-06
-8.85721e-05
8.76761e-06
-0.000129079
9.74349e-06
-0.000181872
1.1558e-05
-0.00024723
1.39497e-05
-0.000333959
1.72891e-05
-0.000432881
1.49815e-05
-0.0005404
2.19177e-05
-0.000700821
-0.000628768
2.93699e-06
-6.01154e-05
-1.46438e-06
3.59026e-06
-8.91358e-05
3.66893e-06
-0.000129337
3.60797e-06
-0.000182326
4.30031e-06
-0.000247603
5.57159e-06
-0.000335265
8.22699e-06
-0.000436174
6.34939e-06
-0.000538362
1.16261e-05
-0.000706366
-0.000616974
1.48883e-07
-5.98011e-05
-4.78973e-07
-7.18327e-07
-8.82788e-05
-1.97332e-06
-0.000128394
-3.35176e-06
-0.000181646
-4.0541e-06
-0.000246879
-4.20833e-06
-0.000335124
-2.48526e-06
-0.000438497
-3.41411e-06
-0.000537136
4.0047e-07
-0.000710307
-0.000616357
-3.02117e-06
-5.80606e-05
1.2223e-06
-5.24553e-06
-8.61289e-05
-7.88752e-06
-0.000126136
-1.07868e-05
-0.000179458
-1.31313e-05
-0.000244559
-1.54114e-05
-0.000332766
-1.57373e-05
-0.000438567
-1.52783e-05
-0.0005371
-1.28947e-05
-0.000712784
-0.000629184
-5.71945e-06
-5.51054e-05
2.71684e-06
-9.0829e-06
-8.28371e-05
-1.2975e-05
-0.000122723
-1.7325e-05
-0.000175866
-2.12805e-05
-0.000240592
-2.59172e-05
-0.000327859
-3.03157e-05
-0.000434319
-3.05091e-05
-0.000536296
-2.97605e-05
-0.000713831
-0.000659252
-8.25643e-06
-5.11639e-05
4.28998e-06
-1.26629e-05
-7.85017e-05
-1.77525e-05
-0.000118271
-2.34801e-05
-0.000171007
-2.91479e-05
-0.000234871
-3.64086e-05
-0.000320123
-4.54583e-05
-0.000425328
-5.87765e-05
-0.000522482
-7.49884e-05
-0.000698066
-0.000735272
-1.04434e-05
-4.64007e-05
5.66834e-06
-1.59159e-05
-7.31719e-05
-2.21815e-05
-0.000112923
-2.90453e-05
-0.000165184
-3.61577e-05
-0.000227642
-4.64544e-05
-0.00030936
-5.87557e-05
-0.000414006
-9.62352e-05
-0.000485845
-0.000177148
-0.000616371
-0.000911471
-1.20463e-05
7.13885e-06
-1.793e-05
-2.47871e-05
-3.21179e-05
-4.01076e-05
-5.40779e-05
-6.93918e-05
-9.04398e-05
-0.000140999
-2.18862e-05
4.7921e-06
-3.35658e-05
3.5429e-06
-3.94348e-05
2.94185e-06
-4.23202e-05
1.33943e-06
-4.29425e-05
-3.70807e-08
-4.17848e-05
-1.56635e-07
-3.9219e-05
-6.47859e-08
-3.55421e-05
4.04308e-07
-3.12199e-05
1.01135e-06
2.42486e-06
-6.03705e-06
1.06183e-05
-1.55473e-05
1.25444e-05
-2.23418e-05
9.23047e-06
-2.64087e-05
4.96381e-06
-2.82618e-05
1.34182e-06
-2.81121e-05
-7.39974e-07
-2.64038e-05
-2.03187e-06
-2.34321e-05
-2.57243e-06
-1.9764e-05
-2.39742e-06
-1.00103e-06
3.6062e-07
1.00402e-05
-2.85536e-06
1.53562e-05
-7.43908e-06
1.33577e-05
-1.14722e-05
8.4891e-06
-1.41289e-05
3.46354e-06
-1.4923e-05
-3.61306e-07
-1.42743e-05
-2.82383e-06
-1.24854e-05
-4.15832e-06
-9.91152e-06
-4.38613e-06
-3.35247e-06
2.62546e-06
7.28772e-06
4.6243e-06
1.30813e-05
4.1256e-06
1.3506e-05
2.35055e-06
9.87044e-06
1.65871e-07
5.28714e-06
-1.56148e-06
1.16562e-06
-2.4519e-06
-1.87927e-06
-2.32752e-06
-3.9456e-06
-1.21941e-06
-4.85119e-06
-4.54379e-06
2.80871e-06
4.42091e-06
7.14925e-06
8.55754e-06
9.65832e-06
1.07388e-05
1.03131e-05
8.96509e-06
9.68943e-06
5.71935e-06
8.48822e-06
2.30073e-06
7.32822e-06
-6.08345e-07
6.54889e-06
-2.87282e-06
6.41131e-06
-4.24486e-06
-4.62165e-06
2.22921e-06
2.15951e-06
6.61469e-06
4.01554e-06
1.04861e-05
6.62811e-06
1.28103e-05
6.45251e-06
1.37296e-05
4.68072e-06
1.36547e-05
2.35415e-06
1.30485e-05
9.45823e-08
1.22362e-05
-1.85453e-06
1.15772e-05
-3.29385e-06
-4.10882e-06
1.53758e-06
5.89857e-07
4.76497e-06
6.26526e-07
8.53456e-06
2.62654e-06
1.15657e-05
3.26696e-06
1.34231e-05
2.74248e-06
1.42293e-05
1.54891e-06
1.4293e-05
1.18601e-07
1.38651e-05
-1.26295e-06
1.32742e-05
-2.47861e-06
-3.46671e-06
1.06987e-06
-5.14099e-07
2.96672e-06
-1.43054e-06
5.65483e-06
-2.62622e-07
8.22946e-06
5.69214e-07
1.01451e-05
7.73772e-07
1.12549e-05
4.56198e-07
1.16326e-05
-1.73515e-07
1.14679e-05
-9.51322e-07
1.1132e-05
-1.92531e-06
-2.99959e-06
6.00572e-07
-1.14261e-06
1.19095e-06
-2.14963e-06
2.39722e-06
-1.58416e-06
3.79354e-06
-8.82131e-07
5.00692e-06
-4.39508e-07
5.78919e-06
-2.72864e-07
6.02875e-06
-3.14296e-07
5.7552e-06
-5.44177e-07
5.17309e-06
-1.16448e-06
-2.53282e-06
-1.15929e-06
-3.37044e-06
-4.98472e-06
-5.87358e-06
-6.29677e-06
-6.52964e-06
-6.78219e-06
-7.24451e-06
-8.3003e-06
)
;

boundaryField
{
    right
    {
        type            cyclic;
        value           nonuniform List<scalar> 
20
(
0.00105426
0.000561922
0.000467741
0.000399454
0.000293015
0.00021669
0.000156723
0.000106357
6.77331e-05
4.18211e-05
2.66794e-05
1.49745e-05
5.62009e-06
-1.69085e-06
-7.4789e-06
-1.15859e-05
-1.309e-05
-1.13794e-05
-5.47552e-06
1.04337e-05
)
;
    }
    left
    {
        type            cyclic;
        value           nonuniform List<scalar> 
20
(
-0.00105426
-0.000561922
-0.000467741
-0.000399454
-0.000293015
-0.00021669
-0.000156723
-0.000106357
-6.77331e-05
-4.18211e-05
-2.66794e-05
-1.49745e-05
-5.62009e-06
1.69085e-06
7.4789e-06
1.15859e-05
1.309e-05
1.13794e-05
5.47552e-06
-1.04337e-05
)
;
    }
    outerWall
    {
        type            calculated;
        value           uniform 0;
    }
    stirrerWall
    {
        type            calculated;
        value           uniform 0;
    }
    top
    {
        type            empty;
        value           nonuniform List<scalar> 0();
    }
    bottom
    {
        type            empty;
        value           nonuniform List<scalar> 0();
    }
}


// ************************************************************************* //
