/*--------------------------------*- C++ -*----------------------------------*\
  =========                 |
  \\      /  F ield         | OpenFOAM: The Open Source CFD Toolbox
   \\    /   O peration     | Website:  https://openfoam.org
    \\  /    A nd           | Version:  10
     \\/     M anipulation  |
\*---------------------------------------------------------------------------*/
FoamFile
{
    format      ascii;
    class       volVectorField;
    location    "2500";
    object      U;
}
// * * * * * * * * * * * * * * * * * * * * * * * * * * * * * * * * * * * * * //

dimensions      [0 1 -1 0 0 0 0];

internalField   nonuniform List<vector> 
420
(
(0.768273 8.60009 1.71731e-18)
(0.267739 10.7962 -2.01923e-17)
(-0.00234468 12.494 -1.41919e-16)
(-0.0274638 13.8829 4.39129e-17)
(-0.0718202 15.0335 -3.5688e-16)
(-0.156831 16.0025 0)
(-0.349651 16.8585 0)
(-0.577692 17.5327 3.70034e-16)
(-0.836399 17.985 -4.29353e-16)
(-1.07297 18.2327 0)
(0.0229437 8.90873 4.87323e-18)
(-0.826155 10.9053 -1.29309e-17)
(-0.978293 12.5022 3.4687e-16)
(-1.08567 13.8699 -7.14243e-16)
(-1.21851 15.0497 2.29364e-16)
(-1.38586 16.0799 2.75759e-17)
(-1.64169 17.0095 2.43761e-15)
(-1.92205 17.6964 -5.32078e-16)
(-2.21491 18.1883 8.86358e-16)
(-2.46274 18.4447 0)
(-0.741535 8.70059 -1.82107e-16)
(-1.85776 10.7493 1.34124e-16)
(-1.99877 12.3134 2.91744e-16)
(-2.16547 13.6637 8.34311e-16)
(-2.35988 14.8699 -5.48606e-16)
(-2.59699 15.9551 2.95086e-15)
(-2.89752 16.9775 1.28301e-15)
(-3.22756 17.716 3.27302e-15)
(-3.55972 18.2651 -1.42917e-15)
(-3.81339 18.514 -3.19912e-15)
(-1.43885 8.50345 1.48525e-16)
(-2.77338 10.4976 -7.51164e-17)
(-2.97244 12.0341 -3.56503e-16)
(-3.20978 13.377 5.19754e-16)
(-3.47179 14.6103 -9.84316e-16)
(-3.78439 15.7508 1.22278e-15)
(-4.14164 16.8459 -7.74417e-15)
(-4.53651 17.6419 0)
(-4.9056 18.2238 -3.07103e-15)
(-5.13733 18.4266 2.84801e-15)
(-2.10151 8.31476 0)
(-3.62634 10.1811 2.53561e-17)
(-3.89988 11.6625 -2.41857e-17)
(-4.21708 12.9879 0)
(-4.5548 14.2414 -2.01822e-16)
(-4.94564 15.4305 -3.47583e-16)
(-5.36808 16.5819 2.64384e-15)
(-5.827 17.4519 -2.74293e-15)
(-6.21869 18.0535 0)
(-6.39828 18.1865 -1.21387e-14)
(-2.74535 8.12422 -6.34682e-17)
(-4.43206 9.80441 0)
(-4.77181 11.2099 0)
(-5.16783 12.5042 6.66036e-16)
(-5.58104 13.7658 -1.46155e-15)
(-6.04583 14.9929 1.81624e-15)
(-6.5351 16.2011 5.77109e-16)
(-7.0506 17.1556 6.57533e-15)
(-7.44465 17.78 -8.65369e-15)
(-7.55309 17.8073 5.92447e-15)
(-3.38441 7.92021 0)
(-5.18335 9.36209 2.2382e-17)
(-5.57343 10.6838 -5.7046e-16)
(-6.03596 11.9365 -4.93192e-16)
(-6.51434 13.1932 -2.30454e-15)
(-7.0377 14.4495 1.78941e-15)
(-7.58771 15.7119 -4.715e-15)
(-8.13561 16.7864 6.5844e-16)
(-8.53424 17.4463 -2.58687e-15)
(-8.62726 17.3508 -8.66805e-15)
(-4.03412 7.69428 1.40688e-16)
(-5.86789 8.8525 -3.56967e-17)
(-6.289 10.0889 7.82561e-16)
(-6.80144 11.2951 5.18728e-16)
(-7.33176 12.5308 1.50882e-15)
(-7.89017 13.8039 0)
(-8.47577 15.1142 4.76879e-15)
(-9.01347 16.3493 6.14075e-15)
(-9.44062 17.1378 7.16426e-15)
(-9.65327 16.9633 6.21844e-15)
(-4.72105 7.4273 1.47033e-16)
(-6.46311 8.304 -4.10479e-17)
(-6.91215 9.45775 4.40922e-17)
(-7.46833 10.5902 -9.28916e-16)
(-8.03202 11.7533 3.30538e-15)
(-8.58742 12.9773 5.5117e-15)
(-9.1363 14.2732 -2.02138e-15)
(-9.6334 15.6046 0)
(-10.0466 16.7799 0)
(-10.6077 16.8807 -6.35089e-15)
(-5.51833 7.03811 -2.46633e-16)
(-6.93299 7.74263 4.38589e-16)
(-7.53297 8.7657 0)
(-8.27333 9.79585 0)
(-9.03914 10.8299 -3.07749e-15)
(-9.79303 11.8898 -1.91041e-17)
(-10.5076 12.9823 5.77337e-15)
(-11.1495 14.0948 -1.25591e-14)
(-11.7122 15.1409 1.49038e-14)
(-12.3451 15.5074 1.15689e-15)
(-1.28336 18.2278 0)
(-1.52373 17.9328 0)
(-1.77416 17.2717 0)
(-1.98447 16.5438 -9.6981e-16)
(-2.16633 16.0138 0)
(-2.53373 15.4399 0)
(-2.72153 14.4682 1.35228e-15)
(-4.19595 15.6931 0)
(-7.8419 16.6972 0)
(23.1064 4.74219 0)
(-2.64358 18.389 1.43123e-15)
(-2.79887 18.0327 2.74436e-15)
(-2.907 17.3352 2.6773e-16)
(-2.97155 16.6476 1.19094e-15)
(-3.03852 16.1776 1.9649e-16)
(-3.24094 15.7137 1.46845e-15)
(-3.28633 14.9036 1.23632e-16)
(-5.05953 16.0784 3.51283e-16)
(-8.53411 17.0718 -5.08048e-15)
(28.2094 3.19918 -1.33827e-14)
(-3.9396 18.3952 1.1959e-15)
(-3.97618 17.9785 0)
(-3.91912 17.2708 -2.11242e-15)
(-3.84332 16.6516 -1.91396e-15)
(-3.79546 16.2321 5.34061e-15)
(-3.78624 15.8382 -1.29916e-15)
(-3.70276 15.2373 1.74222e-15)
(-5.60092 16.1253 0)
(-8.98555 17.0768 2.58614e-15)
(35.3847 4.55459 1.26354e-15)
(-5.17094 18.2113 2.6537e-15)
(-5.05868 17.7211 6.98741e-15)
(-4.83135 17.0191 -7.32558e-15)
(-4.62927 16.4735 2.87797e-15)
(-4.46627 16.0966 -4.16707e-16)
(-4.2399 15.7713 0)
(-4.00852 15.3399 -1.7604e-15)
(-5.86611 15.8711 -1.66209e-15)
(-9.22365 16.6031 -2.63724e-15)
(41.9058 8.45589 5.34844e-14)
(-6.3112 17.8562 2.27421e-15)
(-6.03291 17.2998 -2.24636e-15)
(-5.65183 16.6316 6.64509e-15)
(-5.34966 16.1573 -2.76482e-15)
(-5.07698 15.8056 1.96173e-15)
(-4.65019 15.5307 -3.12718e-15)
(-4.273 15.209 1.80278e-15)
(-5.97447 15.2807 9.7849e-16)
(-9.03048 15.5465 0)
(45.0288 14.2751 -1.13307e-13)
(-7.35222 17.3121 2.79837e-15)
(-6.91523 16.7067 -1.1661e-14)
(-6.41822 16.108 -3.28364e-15)
(-6.05109 15.6904 6.57637e-15)
(-5.68751 15.3411 4.8107e-15)
(-5.10737 15.0754 -4.29312e-16)
(-4.62135 14.7741 -5.06473e-16)
(-6.12826 14.3166 -8.25482e-16)
(-8.53202 14.1329 -3.582e-15)
(41.3754 20.4585 8.15317e-14)
(-8.34228 16.6442 2.63667e-15)
(-7.75075 15.9966 3.77356e-15)
(-7.17836 15.4669 0)
(-6.77834 15.0826 -2.1711e-15)
(-6.34711 14.7249 -3.22882e-15)
(-5.66909 14.4532 -5.63571e-16)
(-5.10942 14.1556 -2.9459e-15)
(-6.45495 13.1993 -5.49708e-17)
(-8.39541 12.7064 2.39124e-15)
(35.0024 24.9923 -3.05531e-14)
(-9.28111 15.91 9.13013e-15)
(-8.55607 15.2111 -3.40287e-15)
(-7.92831 14.7503 0)
(-7.52016 14.3799 1.46736e-16)
(-7.05453 14.0115 1.02373e-14)
(-6.33128 13.7279 -3.23475e-15)
(-5.73643 13.437 9.67066e-17)
(-7.00044 12.0728 5.27616e-17)
(-8.61303 11.3424 1.49507e-15)
(27.438 27.8968 0)
(-10.0781 15.1741 1.51419e-16)
(-9.35658 14.3635 -3.21701e-15)
(-8.65604 13.9665 0)
(-8.23803 13.5911 3.38925e-15)
(-7.76652 13.2111 -7.6303e-15)
(-7.03509 12.9152 2.94361e-15)
(-6.412 12.6829 5.42951e-16)
(-7.7243 11.07 0)
(-9.22898 10.1627 -2.07358e-16)
(19.5102 29.0986 2.79288e-14)
(-10.2488 14.5027 3.18539e-16)
(-10.1887 13.3983 1.16975e-16)
(-9.37767 13.0898 0)
(-8.90383 12.6956 -7.16167e-15)
(-8.40769 12.2919 2.93213e-15)
(-7.67296 11.9677 -9.1236e-16)
(-6.93184 11.8494 -4.51245e-16)
(-8.31563 10.2715 -1.20376e-15)
(-10.2226 9.26395 -5.08286e-16)
(12.6353 28.1096 -2.32634e-14)
(-10.8557 13.8374 2.7556e-15)
(-11.2822 12.4211 -3.70037e-15)
(-10.698 12.0523 0)
(-10.2671 11.5888 0)
(-9.83724 11.1128 0)
(-9.19196 10.7272 -8.03947e-16)
(-8.54442 10.6639 2.43239e-15)
(-9.54354 9.20018 0)
(-10.2833 8.97454 0)
(8.22485 28.2308 0)
(-11.509 12.9757 -2.78433e-15)
(-11.7224 11.9476 -4.14081e-15)
(-11.2967 11.4978 0)
(-10.8368 11.0206 2.22699e-15)
(-10.398 10.5337 -1.70155e-15)
(-9.73873 10.1375 1.019e-15)
(-9.0446 10.205 1.9165e-15)
(-9.88419 8.45122 3.52769e-16)
(-10.1625 8.04231 8.53611e-18)
(6.81359 30.2231 0)
(-12.1426 11.6971 3.56241e-16)
(-11.9566 11.3033 -3.15336e-16)
(-11.5193 10.8901 0)
(-10.9526 10.4651 -3.3153e-16)
(-10.4092 10.0174 3.74606e-15)
(-9.634 9.61832 -3.16092e-15)
(-8.71332 9.88288 -5.13135e-15)
(-9.55388 7.80191 -1.40603e-15)
(-10.4928 5.6413 2.58648e-15)
(5.0437 32.2587 2.67472e-14)
(-13.443 10.574 -1.09883e-14)
(-12.9335 10.2858 3.96497e-15)
(-12.3843 9.9363 0)
(-11.7703 9.55925 -6.1496e-15)
(-11.1993 9.14371 -4.35659e-15)
(-10.4165 8.68373 6.59031e-15)
(-9.45525 9.05833 2.93155e-15)
(-10.4138 7.08604 0)
(-11.4742 4.79981 -3.43988e-15)
(0.4441 31.8924 -6.53829e-15)
(-14.1533 9.15749 -8.55371e-17)
(-13.6841 8.99625 4.22157e-15)
(-13.1296 8.70331 0)
(-12.4874 8.36359 1.22601e-14)
(-11.8988 7.97462 6.38879e-17)
(-11.1118 7.43376 2.79016e-16)
(-10.0952 7.96614 7.35616e-15)
(-11.0242 6.19396 -4.86778e-15)
(-11.8558 3.2531 -2.80737e-15)
(-3.83193 30.5923 0)
(-14.6915 7.86792 -2.78582e-15)
(-14.338 7.72586 1.02655e-14)
(-13.8198 7.44411 8.81995e-15)
(-13.1637 7.12321 -1.0366e-14)
(-12.5663 6.76375 -1.76057e-14)
(-11.759 6.14907 -3.79777e-16)
(-10.6755 6.8398 -4.44118e-15)
(-11.5928 5.32877 -3.69523e-15)
(-12.0838 1.86665 -7.41919e-15)
(-7.43441 28.7981 -3.27403e-14)
(-15.2274 6.61328 -1.00736e-14)
(-14.96 6.43448 5.704e-15)
(-14.465 6.13361 -4.30963e-15)
(-13.7925 5.81371 -1.22068e-14)
(-13.188 5.47744 9.10542e-15)
(-12.3551 4.7947 -6.26245e-16)
(-11.214 5.58766 9.61581e-15)
(-12.0865 4.37115 3.4195e-15)
(-12.206 0.463404 5.70059e-15)
(-10.308 26.6052 3.71625e-15)
(-15.8063 5.34253 2.96588e-15)
(-15.5796 5.11792 -2.97441e-15)
(-15.0787 4.78628 -4.28105e-16)
(-14.3788 4.45318 1.26005e-14)
(-13.7559 4.12492 -1.87199e-14)
(-12.8894 3.39052 6.0147e-15)
(-11.7193 4.17539 -6.55871e-15)
(-12.5014 3.25918 1.5233e-14)
(-12.2441 -0.877534 0)
(-12.6401 24.0974 -1.32602e-15)
(-16.3921 4.07515 3.32207e-15)
(-16.1704 3.80586 2.88351e-15)
(-15.6503 3.45035 5.37325e-15)
(-14.9284 3.11029 -8.79129e-15)
(-14.2911 2.78345 3.40263e-15)
(-13.4072 2.04965 0)
(-12.2407 2.70587 -3.52948e-15)
(-12.8001 1.8711 -1.21044e-14)
(-12.1917 -1.99788 -6.88074e-16)
(-14.3887 21.3149 2.89415e-14)
(-16.9556 2.77002 1.44163e-15)
(-16.7218 2.46228 0)
(-16.1681 2.08774 2.70435e-15)
(-15.4267 1.74451 2.69718e-15)
(-14.7776 1.42481 1.96115e-16)
(-13.8993 0.658113 -1.79933e-15)
(-12.8612 1.24218 3.41464e-15)
(-13.2628 0.213701 0)
(-12.3887 -3.55514 5.44397e-15)
(-14.2216 17.0336 3.39491e-14)
(-17.5123 1.43457 1.62284e-15)
(-17.2609 1.09141 -3.0705e-15)
(-16.6612 0.700017 -3.51007e-16)
(-15.9218 0.359205 7.66825e-16)
(-15.3185 0.087542 -3.10295e-16)
(-14.4729 -0.753708 1.43818e-15)
(-13.5872 -0.233285 -4.0291e-15)
(-14.5675 -1.42639 -6.83796e-16)
(-13.8955 -7.07617 7.04657e-15)
(-16.9303 14.7444 -2.56032e-14)
(-17.9317 0.0466076 2.21853e-29)
(-17.6704 -0.266186 0)
(-17.0319 -0.64621 0)
(-16.2515 -0.986145 -1.08896e-15)
(-15.6256 -1.21842 0)
(-14.952 -1.8232 0)
(-13.655 -2.07428 1.67695e-15)
(-15.2505 -2.88001 0)
(-16.258 -7.73938 0)
(-2.4462 18.9888 -1.31995e-28)
(-14.2022 12.7559 9.94349e-16)
(-14.2221 10.7545 -6.3685e-15)
(-14.6335 9.17039 6.65962e-15)
(-14.9505 7.85825 -9.8503e-15)
(-15.3436 6.65863 7.16799e-15)
(-15.8252 5.44617 -1.57013e-14)
(-16.3691 4.25224 3.61361e-15)
(-16.9076 3.00419 -3.77602e-15)
(-17.4559 1.71272 0)
(-17.896 0.309197 -3.88819e-16)
(-14.8006 12.061 1.41214e-14)
(-14.9518 10.2802 0)
(-15.0421 8.90095 6.87421e-15)
(-15.1529 7.71876 -2.88697e-15)
(-15.3766 6.62904 -1.09966e-14)
(-15.7098 5.50155 0)
(-16.1698 4.38585 -4.01127e-15)
(-16.6364 3.20613 -1.59184e-15)
(-17.1345 1.96442 1.04e-15)
(-17.6091 0.578961 -4.07908e-16)
(-14.4203 11.135 -1.15741e-14)
(-15.0426 9.56072 0)
(-15.2594 8.43991 5.77214e-15)
(-15.3031 7.4311 8.0941e-16)
(-15.3979 6.4706 9.12037e-15)
(-15.5979 5.46356 -4.50489e-15)
(-15.9471 4.43075 0)
(-16.3108 3.32646 4.35737e-15)
(-16.6968 2.13623 -5.89243e-16)
(-17.1355 0.819248 4.96492e-16)
(-13.3777 10.35 5.28959e-15)
(-14.4625 8.94833 -1.69802e-15)
(-15.0639 7.9429 4.25856e-15)
(-15.2972 7.09172 -4.51734e-15)
(-15.4262 6.26832 5.91152e-16)
(-15.5497 5.38769 3.18521e-15)
(-15.7336 4.42216 -9.78975e-15)
(-15.9571 3.37511 1.62327e-15)
(-16.1942 2.22726 2.60349e-15)
(-16.514 0.971247 8.47332e-17)
(-12.1791 9.6316 -7.78968e-15)
(-13.3524 8.45759 4.84523e-15)
(-14.272 7.49431 0)
(-14.7442 6.6898 1.7909e-15)
(-15.0284 5.91682 1.99891e-15)
(-15.2105 5.10345 -3.08368e-16)
(-15.3627 4.21676 1.63528e-15)
(-15.5053 3.26014 3.40375e-15)
(-15.6305 2.21102 -8.05687e-18)
(-15.8069 1.05675 3.06368e-16)
(-11.0006 8.91827 -3.06682e-15)
(-12.0202 7.98216 3.58216e-15)
(-13.0633 7.06043 1.5698e-15)
(-13.7124 6.26226 -2.53546e-15)
(-14.1391 5.51357 -1.6601e-15)
(-14.431 4.74273 -2.5124e-16)
(-14.6305 3.91625 -3.00087e-15)
(-14.7691 3.03054 9.30583e-16)
(-14.8514 2.06943 2.42155e-16)
(-14.9413 1.03102 -3.02569e-16)
(-9.86923 8.1925 0)
(-10.6648 7.48335 -1.20244e-15)
(-11.6253 6.63025 4.23046e-16)
(-12.3556 5.84787 -6.11766e-16)
(-12.8825 5.10544 9.65496e-16)
(-13.255 4.35781 0)
(-13.5095 3.57523 6.79938e-16)
(-13.6772 2.75143 9.73675e-16)
(-13.7612 1.88061 -8.30193e-16)
(-13.8313 0.960017 -3.02491e-17)
(-8.78572 7.45814 0)
(-9.39294 6.93184 -2.12711e-16)
(-10.1696 6.17352 1.85106e-15)
(-10.8481 5.42894 -1.37187e-15)
(-11.3856 4.69858 0)
(-11.7876 3.9669 -2.09718e-16)
(-12.0703 3.21663 -6.32001e-16)
(-12.248 2.44102 5.30722e-16)
(-12.346 1.64885 4.85987e-16)
(-12.4266 0.853514 -1.89735e-16)
(-7.73369 6.67732 -6.67797e-16)
(-8.21813 6.26966 2.12807e-16)
(-8.80648 5.56754 2.1178e-16)
(-9.36176 4.84244 -2.15803e-16)
(-9.82533 4.12038 0)
(-10.1842 3.40205 2.27453e-16)
(-10.4375 2.68264 2.36342e-16)
(-10.5833 1.96842 -2.41657e-16)
(-10.6527 1.3018 -5.44317e-17)
(-10.6836 0.709013 8.39629e-21)
(-6.34653 6.24828 -7.578e-17)
(-6.50191 6.0163 -1.30335e-17)
(-6.80986 5.44552 -2.58524e-17)
(-7.14577 4.80771 0)
(-7.46392 4.17596 1.70763e-17)
(-7.74541 3.55577 0)
(-7.97557 2.93895 9.3764e-17)
(-8.13933 2.32517 -4.70652e-17)
(-8.22681 1.73736 1.27899e-17)
(-8.17764 1.2097 -4.80388e-19)
)
;

boundaryField
{
    right
    {
        type            cyclic;
    }
    left
    {
        type            cyclic;
    }
    outerWall
    {
        type            calculated;
        value           nonuniform List<vector> 
22
(
(-1.55201 41.8305 0)
(-4.64749 41.6006 0)
(-7.71741 41.1419 0)
(-10.7449 40.4569 0)
(-13.7132 39.5492 0)
(-16.6061 38.424 0)
(-19.4075 37.0874 0)
(-22.1022 35.5467 0)
(-24.6752 33.8104 0)
(-27.1124 31.8882 0)
(-28.9573 30.2506 0)
(-30.2506 28.9573 0)
(-31.8882 27.1124 0)
(-33.8104 24.6752 0)
(-35.5467 22.1022 0)
(-37.0874 19.4075 0)
(-38.424 16.6061 0)
(-39.5492 13.7132 0)
(-40.4569 10.7449 0)
(-41.1419 7.71741 0)
(-41.6006 4.64749 0)
(-41.8305 1.55201 0)
)
;
    }
    stirrerWall
    {
        type            calculated;
        value           nonuniform List<vector> 
42
(
(-0.310178 8.3662 0)
(-0.928834 8.32046 0)
(-1.54239 8.22894 0)
(-2.14746 8.09214 0)
(-2.74072 7.91082 0)
(-3.31888 7.68598 0)
(-3.87877 7.41885 0)
(-4.41729 7.11092 0)
(-4.93148 6.76387 0)
(-5.4185 6.37963 0)
(-6.07951 6.64185 0)
(-6.92878 7.56862 0)
(-7.77806 8.49539 0)
(-8.62734 9.42216 0)
(-9.47661 10.3489 0)
(-10.3259 11.2757 0)
(-11.1752 12.2025 0)
(-12.0244 13.1292 0)
(-12.8737 14.056 0)
(-13.723 14.9828 0)
(-14.4723 15.1215 0)
(-15.1215 14.4723 0)
(-14.9828 13.723 0)
(-14.056 12.8737 0)
(-13.1292 12.0244 0)
(-12.2025 11.1752 0)
(-11.2757 10.3259 0)
(-10.3489 9.47661 0)
(-9.42216 8.62734 0)
(-8.49539 7.77806 0)
(-7.56862 6.92878 0)
(-6.64185 6.07951 0)
(-6.37963 5.4185 0)
(-6.76387 4.93148 0)
(-7.11092 4.41729 0)
(-7.41885 3.87877 0)
(-7.68598 3.31888 0)
(-7.91082 2.74072 0)
(-8.09214 2.14746 0)
(-8.22894 1.54239 0)
(-8.32046 0.928834 0)
(-8.3662 0.310178 0)
)
;
    }
    top
    {
        type            empty;
    }
    bottom
    {
        type            empty;
    }
}


// ************************************************************************* //
