/*--------------------------------*- C++ -*----------------------------------*\
  =========                 |
  \\      /  F ield         | OpenFOAM: The Open Source CFD Toolbox
   \\    /   O peration     | Website:  https://openfoam.org
    \\  /    A nd           | Version:  10
     \\/     M anipulation  |
\*---------------------------------------------------------------------------*/
FoamFile
{
    format      ascii;
    class       volVectorField;
    location    "2500";
    object      Urel;
}
// * * * * * * * * * * * * * * * * * * * * * * * * * * * * * * * * * * * * * //

dimensions      [0 1 -1 0 0 0 0];

internalField   nonuniform List<vector> 
420
(
(1.10227 -0.408163 1.71731e-18)
(0.64824 0.53486 -2.01923e-17)
(0.424671 0.979143 -1.41919e-16)
(0.446077 1.11429 4.39129e-17)
(0.448254 1.01095 -3.5688e-16)
(0.409781 0.725833 0)
(0.263504 0.327607 0)
(0.0820089 -0.252588 3.70034e-16)
(-0.130149 -1.05464 -4.29353e-16)
(-0.320167 -2.06144 0)
(1.02312 -0.0502299 4.87323e-18)
(0.313267 0.700178 -1.29309e-17)
(0.300418 1.05054 3.4687e-16)
(0.33236 1.17137 -7.14243e-16)
(0.338868 1.10414 2.29364e-16)
(0.310875 0.887098 2.75759e-17)
(0.194414 0.569389 2.43761e-15)
(0.0534403 0.00893433 -5.32078e-16)
(-0.10003 -0.746678 8.86358e-16)
(-0.208468 -1.73773 0)
(0.919326 -0.159797 -1.82107e-16)
(0.0343239 0.656451 1.34124e-16)
(0.124611 0.987774 2.91744e-16)
(0.189261 1.10505 8.34311e-16)
(0.226234 1.07794 -5.48606e-16)
(0.220544 0.929707 2.95086e-15)
(0.15144 0.718655 1.28301e-15)
(0.0528536 0.223516 3.27302e-15)
(-0.0478363 -0.461129 -1.42917e-15)
(-0.0700365 -1.44595 -3.19912e-15)
(0.873562 -0.20962 1.48525e-16)
(-0.139033 0.572664 -7.51164e-17)
(-0.0160521 0.896842 -3.56503e-16)
(0.0687069 1.02726 5.19754e-16)
(0.128864 1.04776 -9.84316e-16)
(0.13846 0.975435 1.22278e-15)
(0.103429 0.857483 -7.74417e-15)
(0.0308157 0.440421 0)
(-0.0160065 -0.190825 -3.07103e-15)
(0.0745464 -1.20124 2.84801e-15)
(0.849736 -0.20307 0)
(-0.264219 0.478585 2.53561e-17)
(-0.126745 0.774823 -2.41857e-17)
(-0.0328504 0.914945 0)
(0.040596 0.982899 -2.01822e-16)
(0.0609699 0.986257 -3.47583e-16)
(0.0497849 0.951912 2.64384e-15)
(0.00215015 0.635961 -2.74293e-15)
(0.0217651 0.051694 0)
(0.253502 -1.00133 -1.21387e-14)
(0.828471 -0.151513 -6.34682e-17)
(-0.360662 0.377628 0)
(-0.202683 0.631662 0)
(-0.100865 0.774315 6.66036e-16)
(-0.0161537 0.884095 -1.46155e-15)
(0.0170351 0.959181 1.81624e-15)
(0.0257906 1.01537 5.77109e-16)
(0.00835073 0.817623 6.57533e-15)
(0.112388 0.289805 -8.65369e-15)
(0.502069 -0.835173 5.92447e-15)
(0.792324 -0.0679095 0)
(-0.425072 0.262912 2.2382e-17)
(-0.233431 0.473223 -5.7046e-16)
(-0.11411 0.614227 -4.93192e-16)
(-0.0105496 0.759159 -2.30454e-15)
(0.0481084 0.903507 1.78941e-15)
(0.0801615 1.05382 -4.715e-15)
(0.114369 1.01611 6.5844e-16)
(0.297893 0.563878 -2.58687e-15)
(0.787039 -0.643948 -8.66805e-15)
(0.722527 0.0377014 1.40688e-16)
(-0.448922 0.130954 -3.56967e-17)
(-0.207498 0.302011 7.82561e-16)
(-0.0572691 0.442718 5.18728e-16)
(0.0751968 0.612741 1.50882e-15)
(0.179641 0.819928 0)
(0.256964 1.06432 4.76879e-15)
(0.382237 1.23337 6.14075e-15)
(0.618095 0.955781 7.16426e-15)
(1.06849 -0.284796 6.21844e-15)
(0.589316 0.144376 1.47033e-16)
(-0.413266 0.00803589 -4.10479e-17)
(-0.122603 0.148431 4.40922e-17)
(0.0610847 0.26734 -9.28916e-16)
(0.23738 0.416671 3.30538e-15)
(0.422057 0.626745 5.5117e-15)
(0.613327 0.908743 -2.02138e-15)
(0.856428 1.22609 0)
(1.18342 1.38726 0)
(1.36262 0.473992 -6.35089e-15)
(0.316505 0.168887 -2.46633e-16)
(-0.285567 -0.0821426 4.38589e-16)
(-0.0727225 -0.0149131 0)
(-6.83318e-05 0.0591812 0)
(0.0472594 0.137042 -3.07749e-15)
(0.10661 0.240607 -1.91041e-17)
(0.205345 0.376649 5.77337e-15)
(0.37685 0.532698 -1.25591e-14)
(0.627531 0.622279 1.49038e-14)
(0.808147 0.0321917 1.15689e-15)
(-0.483749 -3.32749 0)
(-0.674515 -4.95929 0)
(-0.870016 -7.10051 0)
(-1.01951 -9.46713 -9.6981e-16)
(-1.13404 -11.8116 0)
(-1.42689 -14.3943 0)
(-1.53216 -17.5902 1.35228e-15)
(-2.91519 -18.8279 0)
(-6.45996 -20.5504 0)
(24.6003 -35.5242 0)
(-0.249158 -3.04769 1.43123e-15)
(-0.255898 -4.73348 2.74436e-15)
(-0.199555 -6.90288 2.6773e-16)
(-0.0820016 -9.22033 1.19094e-15)
(0.0526548 -11.4947 1.9649e-16)
(0.0734757 -13.9565 1.46845e-15)
(0.275249 -16.9786 1.23632e-16)
(-1.2243 -18.2529 3.51283e-16)
(-4.39589 -19.9711 -5.08048e-15)
(32.6831 -36.846 -1.33827e-14)
(0.0364673 -2.80516 1.1959e-15)
(0.246564 -4.53662 0)
(0.576744 -6.70004 -2.11242e-15)
(0.954941 -8.93112 -1.91396e-15)
(1.33761 -11.1351 5.34061e-15)
(1.71753 -13.5048 -1.29916e-15)
(2.21144 -16.2934 1.74222e-15)
(0.7677 -17.8274 0)
(-2.11381 -19.5577 2.58614e-15)
(42.8135 -35.049 1.26354e-15)
(0.364942 -2.63621 2.6537e-15)
(0.820647 -4.41929 6.98741e-15)
(1.42823 -6.55285 -7.32558e-15)
(2.05133 -8.68339 2.87797e-15)
(2.68048 -10.8151 -4.16707e-16)
(3.42296 -13.0833 0)
(4.22577 -15.6658 -1.7604e-15)
(3.00086 -17.5164 -1.66209e-15)
(0.343813 -19.4214 -2.63724e-15)
(52.2489 -30.4883 5.34844e-14)
(0.754089 -2.524 2.27421e-15)
(1.4707 -4.34425 -2.24636e-15)
(2.33708 -6.41176 6.64509e-15)
(3.17657 -8.43547 -2.76482e-15)
(4.04416 -10.5026 1.96173e-15)
(5.12963 -12.6768 -3.12718e-15)
(6.23611 -15.1014 1.80278e-15)
(5.34208 -17.3579 9.7849e-16)
(3.18007 -19.6699 0)
(58.2291 -23.7954 -1.13307e-13)
(1.20368 -2.48881 2.79837e-15)
(2.17144 -4.32205 -1.1661e-14)
(3.25611 -6.28027 -3.28364e-15)
(4.2739 -8.20312 6.57637e-15)
(5.35789 -10.219 4.8107e-15)
(6.73564 -12.3299 -4.29312e-16)
(8.10477 -14.6742 -5.06473e-16)
(7.57563 -17.3935 -8.25482e-16)
(6.25444 -20.0816 -3.582e-15)
(57.3604 -16.5289 8.15317e-14)
(1.65725 -2.46868 2.63667e-15)
(2.86907 -4.30134 3.77356e-15)
(4.12825 -6.14319 0)
(5.28867 -7.98026 -2.1711e-15)
(6.56182 -9.94655 -3.22882e-15)
(8.172 -11.9991 -5.63571e-16)
(9.76374 -14.2686 -2.9459e-15)
(9.56089 -17.4081 -5.49708e-17)
(8.8856 -20.3181 2.39124e-15)
(53.6841 -10.7085 -3.05531e-14)
(2.10713 -2.40974 9.13013e-15)
(3.53858 -4.2445 -3.40287e-15)
(4.94846 -5.96292 0)
(6.22256 -7.72565 1.46736e-16)
(7.64697 -9.63567 1.02373e-14)
(9.43177 -11.6261 -3.23475e-15)
(11.202 -13.8068 9.67066e-17)
(11.2393 -17.2634 5.27616e-17)
(11.0674 -20.3104 1.49507e-15)
(48.7137 -6.32094 0)
(2.63632 -2.25198 1.51419e-16)
(4.14646 -4.14285 -3.21701e-15)
(5.72014 -5.73589 0)
(7.10487 -7.43556 3.38925e-15)
(8.64675 -9.28181 -7.6303e-15)
(10.5633 -11.2011 2.94361e-15)
(12.4985 -13.2307 5.42951e-16)
(12.6389 -16.8337 0)
(12.7427 -19.9444 -2.07358e-16)
(43.2627 -3.44794 2.79288e-14)
(3.72203 -1.93391 3.18539e-16)
(4.64862 -4.0571 1.16975e-16)
(6.41893 -5.4936 0)
(7.95494 -7.13661 -7.16167e-15)
(9.62711 -8.92311 2.93213e-15)
(11.6639 -10.7782 -9.1236e-16)
(13.8467 -12.5916 -4.51245e-16)
(14.0591 -16.0462 -1.20376e-15)
(13.9193 -19.1317 -5.08286e-16)
(38.7339 -2.58663 -2.32634e-14)
(4.05997 -1.74709 2.7556e-15)
(4.55926 -4.13029 -3.70037e-15)
(6.1685 -5.56978 0)
(7.7344 -7.21858 0)
(9.42079 -9.00709 0)
(11.4573 -10.8458 -8.03947e-16)
(13.6453 -12.518 2.43239e-15)
(14.3516 -15.763 0)
(15.5002 -17.9609 0)
(36.099 -0.888193 0)
(4.07549 -1.93996 -2.78433e-15)
(4.82897 -3.89394 -4.14081e-15)
(6.3253 -5.36872 0)
(7.97065 -6.98084 2.22699e-15)
(9.72184 -8.72431 -1.70155e-15)
(11.8342 -10.5118 1.019e-15)
(14.1372 -11.9846 1.9165e-15)
(15.079 -15.4439 3.52769e-16)
(16.7729 -17.7411 8.53611e-18)
(35.9326 2.34902 0)
(4.29399 -2.27368 3.56241e-16)
(5.49877 -3.53397 -3.15336e-16)
(7.06412 -4.90649 0)
(8.87963 -6.3937 -3.3153e-16)
(10.8058 -8.01743 3.74606e-15)
(13.112 -9.71856 -3.16092e-15)
(15.7277 -10.8956 -5.13135e-15)
(16.7639 -14.5728 -1.40603e-15)
(17.9028 -18.5006 2.58648e-15)
(35.74 6.16011 2.67472e-14)
(3.98304 -2.14046 -1.09883e-14)
(5.57284 -3.21723 3.96497e-15)
(7.31811 -4.43988 0)
(9.25636 -5.78366 -6.1496e-15)
(11.2936 -7.26956 -4.35659e-15)
(13.6998 -8.91461 6.59031e-15)
(16.4584 -9.85212 2.93155e-15)
(17.4899 -13.2772 0)
(18.6329 -17.1718 -3.43988e-15)
(32.9906 8.13994 -6.53829e-15)
(4.16646 -2.23075 -8.55371e-17)
(5.77155 -3.09839 4.22157e-15)
(7.58353 -4.17345 0)
(9.61813 -5.37914 1.22601e-14)
(11.7483 -6.72689 6.38879e-17)
(14.2422 -8.32929 2.79016e-16)
(17.1486 -8.97224 7.35616e-15)
(18.312 -12.0457 -4.86778e-15)
(19.7971 -16.4274 -2.80737e-15)
(30.3858 9.31657 0)
(4.42138 -2.1316 -2.78582e-15)
(5.95995 -2.89396 1.02655e-14)
(7.79034 -3.8625 8.81995e-15)
(9.89917 -4.9438 -1.0366e-14)
(12.1051 -6.14518 -1.76057e-14)
(14.6934 -7.69201 -3.79777e-16)
(17.7487 -8.03335 -4.44118e-15)
(19.0146 -10.6871 -3.69523e-15)
(20.9407 -15.4144 -7.41919e-15)
(28.2664 10.1163 -3.27403e-14)
(4.57352 -1.94262 -1.00736e-14)
(6.06877 -2.65219 5.704e-15)
(7.9233 -3.54072 -4.30963e-15)
(10.101 -4.51128 -1.22068e-14)
(12.3721 -5.56795 9.10542e-15)
(15.0501 -7.04831 -6.26245e-16)
(18.2342 -7.13846 9.61581e-15)
(19.6237 -9.33274 3.4195e-15)
(22.0086 -14.3231 5.70059e-15)
(26.6793 10.6201 3.71625e-15)
(4.57385 -1.72276 2.96588e-15)
(6.06447 -2.38568 -2.97441e-15)
(7.96476 -3.20263 -4.28105e-16)
(10.2139 -4.07305 1.26005e-14)
(12.5523 -4.99623 -1.87199e-14)
(15.3181 -6.3893 6.0147e-15)
(18.591 -6.33372 -6.55871e-15)
(20.1372 -8.05737 1.5233e-14)
(22.9723 -13.0881 0)
(25.4304 10.897 -1.32602e-15)
(4.45543 -1.46073 3.32207e-15)
(5.96997 -2.07347 2.88351e-15)
(7.92158 -2.80923 5.37325e-15)
(10.2285 -3.57031 -8.79129e-15)
(12.6205 -4.3633 3.40263e-15)
(15.4474 -5.61321 0)
(18.7651 -5.52842 -3.52948e-15)
(20.5874 -6.99587 -1.21044e-14)
(23.8329 -11.5653 -6.88074e-16)
(24.5555 10.9719 2.89415e-14)
(4.24475 -1.20605 1.44163e-15)
(5.79331 -1.76047 0)
(7.80276 -2.40813 2.70435e-15)
(10.156 -3.05376 2.69718e-15)
(12.5896 -3.70826 1.96115e-16)
(15.4438 -4.84565 -1.79933e-15)
(18.6695 -4.67202 3.41464e-15)
(20.6899 -6.15492 0)
(24.2458 -10.4269 5.44397e-15)
(25.382 9.60479 3.39491e-14)
(3.92435 -0.959852 1.62284e-15)
(5.50522 -1.45156 -3.0705e-15)
(7.57695 -2.00743 -3.51007e-16)
(9.94607 -2.53035 7.66825e-16)
(12.3538 -3.00363 -3.10295e-16)
(15.1973 -4.06812 1.43818e-15)
(18.2951 -3.79486 -4.0291e-15)
(19.7638 -5.26163 -6.83796e-16)
(23.1474 -11.2144 7.04657e-15)
(23.1149 10.2707 -2.56032e-14)
(3.62356 -0.753 2.21853e-29)
(5.22167 -1.1154 0)
(7.34025 -1.55035 0)
(9.7594 -1.9511 -1.08896e-15)
(12.1998 -2.25071 0)
(14.8822 -2.93004 0)
(18.4035 -3.26366 1.67695e-15)
(19.2706 -4.16077 0)
(20.9896 -9.12132 0)
(37.8202 17.4948 -1.31995e-28)
(1.27301 -0.397304 9.94349e-16)
(2.18466 -1.21583 -6.3685e-15)
(2.61456 -1.55136 6.65962e-15)
(3.04423 -1.55605 -9.8503e-15)
(3.29886 -1.39653 7.16799e-15)
(3.36265 -1.20561 -1.57013e-14)
(3.25873 -0.959642 3.61361e-15)
(3.05232 -0.739164 -3.77602e-15)
(2.72662 -0.541554 0)
(2.39814 -0.443604 -3.88819e-16)
(-0.281997 -0.278784 1.41214e-14)
(0.440793 -0.949862 0)
(1.13985 -1.15776 6.87421e-15)
(1.7296 -1.11337 -2.88697e-15)
(2.11358 -0.927997 -1.09966e-14)
(2.29205 -0.7389 0)
(2.2448 -0.503745 -4.01127e-15)
(2.08978 -0.305748 -1.59184e-15)
(1.80043 -0.150457 1.04e-15)
(1.43058 -0.127289 -4.07908e-16)
(-0.858178 -0.391362 -1.15741e-14)
(-0.664064 -0.929103 0)
(-0.143552 -0.955797 5.77214e-15)
(0.467126 -0.818884 8.0941e-16)
(0.940057 -0.58835 9.12037e-15)
(1.21795 -0.365582 -4.50489e-15)
(1.25439 -0.136575 0)
(1.18168 0.046041 4.35737e-15)
(0.990718 0.160745 -5.89243e-16)
(0.64977 0.159547 4.96492e-16)
(-0.77204 -0.362938 5.28959e-15)
(-1.09803 -0.801294 -1.69802e-15)
(-1.01399 -0.789831 4.25856e-15)
(-0.639064 -0.57615 -4.51734e-15)
(-0.240379 -0.292566 5.91152e-16)
(0.080348 -0.0301748 3.18521e-15)
(0.254821 0.177088 -9.78975e-15)
(0.30182 0.326141 1.62327e-15)
(0.245901 0.391153 2.60349e-15)
(0.0168948 0.358092 8.47332e-17)
(-0.529853 -0.268043 -7.78968e-15)
(-1.00187 -0.551892 4.84523e-15)
(-1.28802 -0.575505 0)
(-1.19812 -0.396003 1.7909e-15)
(-0.99469 -0.146046 1.99891e-15)
(-0.766292 0.0968354 -3.08368e-16)
(-0.587299 0.293916 1.63528e-15)
(-0.479925 0.44261 3.40375e-15)
(-0.43769 0.514293 -8.05687e-18)
(-0.530238 0.490142 3.06368e-16)
(-0.307681 -0.168133 -3.06682e-15)
(-0.68356 -0.287242 3.58216e-15)
(-1.14516 -0.346523 1.5698e-15)
(-1.2783 -0.241532 -2.53546e-15)
(-1.25744 -0.0513114 -1.6601e-15)
(-1.17245 0.147332 -2.5124e-16)
(-1.06801 0.315596 -3.00087e-15)
(-0.977197 0.444425 9.30583e-16)
(-0.905776 0.512056 2.42155e-16)
(-0.918771 0.51095 -3.02569e-16)
(-0.132564 -0.0807635 0)
(-0.341864 -0.0460683 -1.20244e-15)
(-0.772881 -0.113919 4.23046e-16)
(-1.03337 -0.0739779 -6.11766e-16)
(-1.15263 0.0384778 9.65496e-16)
(-1.18198 0.173576 0)
(-1.15971 0.296735 6.79938e-16)
(-1.1185 0.396698 9.73675e-16)
(-1.06269 0.462583 -8.30193e-16)
(-1.06268 0.486476 -3.02491e-17)
(-0.00510735 -0.00210917 0)
(-0.0836222 0.142296 -2.12711e-16)
(-0.382796 0.0920217 1.85106e-15)
(-0.637476 0.088944 -1.37187e-15)
(-0.807427 0.129454 0)
(-0.899977 0.193769 -2.09718e-16)
(-0.933064 0.260249 -6.32001e-16)
(-0.922382 0.317636 5.30722e-16)
(-0.894295 0.370136 4.85987e-16)
(-0.911762 0.426498 -1.89735e-16)
(0.0910788 0.0299031 -6.67797e-16)
(0.0778338 0.219823 2.12807e-16)
(-0.0849367 0.148568 2.1178e-16)
(-0.262575 0.0841624 -2.15803e-16)
(-0.398545 0.04898 0)
(-0.481635 0.0399276 2.27453e-16)
(-0.512489 0.048291 2.36342e-16)
(-0.49052 0.0763303 -2.41657e-16)
(-0.447538 0.162379 -5.44317e-17)
(-0.422234 0.328513 8.39629e-21)
(0.522687 0.413442 -7.578e-17)
(0.781015 0.705934 -1.30335e-17)
(0.846711 0.688872 -2.58524e-17)
(0.842353 0.630979 0)
(0.811811 0.602132 1.70763e-17)
(0.772416 0.604529 0)
(0.737503 0.62654 9.3764e-17)
(0.721058 0.664306 -4.70652e-17)
(0.732147 0.737186 1.27899e-17)
(0.830609 0.875704 -4.80388e-19)
)
;

boundaryField
{
    right
    {
        type            cyclic;
    }
    left
    {
        type            cyclic;
    }
    outerWall
    {
        type            noSlip;
    }
    stirrerWall
    {
        type            noSlip;
    }
    top
    {
        type            empty;
    }
    bottom
    {
        type            empty;
    }
}


// ************************************************************************* //
