/*--------------------------------*- C++ -*----------------------------------*\
  =========                 |
  \\      /  F ield         | OpenFOAM: The Open Source CFD Toolbox
   \\    /   O peration     | Website:  https://openfoam.org
    \\  /    A nd           | Version:  10
     \\/     M anipulation  |
\*---------------------------------------------------------------------------*/
FoamFile
{
    format      ascii;
    class       volScalarField;
    location    "71000";
    object      nut;
}
// * * * * * * * * * * * * * * * * * * * * * * * * * * * * * * * * * * * * * //

dimensions      [0 2 -1 0 0 0 0];

internalField   nonuniform List<scalar> 
17981
(
0.0011802
0.00117127
0.00116468
0.00116058
0.00115907
0.0011602
0.00116392
0.00117015
0.00117873
0.00118948
0.00120215
0.00121652
0.00123232
0.00124931
0.00126726
0.00128593
0.00130513
0.00132467
0.00134439
0.00136414
0.00138381
0.00140329
0.00142249
0.00144135
0.0014598
0.00147781
0.00149534
0.00151236
0.00152885
0.00154481
0.00156022
0.0015751
0.00158944
0.00160324
0.00161652
0.00162929
0.00164156
0.00165335
0.00166466
0.00167552
0.00168595
0.00169595
0.00170554
0.00171474
0.00172356
0.00173202
0.00174014
0.00174792
0.00114419
0.00113695
0.00113207
0.0011297
0.00112995
0.00113284
0.00113833
0.00114632
0.00115665
0.0011691
0.00118343
0.00119939
0.00121672
0.00123516
0.00125446
0.0012744
0.00129476
0.00131538
0.00133607
0.0013567
0.00137716
0.00139735
0.00141717
0.00143658
0.0014555
0.00147391
0.00149178
0.00150907
0.00152579
0.00154192
0.00155746
0.00157242
0.0015868
0.00160062
0.00161388
0.00162659
0.00163879
0.00165047
0.00166167
0.00167239
0.00168266
0.00169249
0.0017019
0.00171091
0.00171954
0.00172779
0.00173569
0.00174325
0.00110736
0.00110217
0.00109936
0.00109908
0.00110142
0.0011064
0.00111397
0.001124
0.00113632
0.00115069
0.00116687
0.00118459
0.00120357
0.00122354
0.00124427
0.00126551
0.00128707
0.00130875
0.00133041
0.0013519
0.00137311
0.00139394
0.00141433
0.0014342
0.00145353
0.00147226
0.00149037
0.00150786
0.00152471
0.00154093
0.00155651
0.00157146
0.00158579
0.00159953
0.00161267
0.00162525
0.00163728
0.00164878
0.00165978
0.00167028
0.00168032
0.0016899
0.00169906
0.0017078
0.00171615
0.00172413
0.00173174
0.00173902
0.00107389
0.00108128
0.0010912
0.00110354
0.00111807
0.00113456
0.00115274
0.00117233
0.00119305
0.00121462
0.0012368
0.00125936
0.00128209
0.00130482
0.00132738
0.00134966
0.00137155
0.00139296
0.00141382
0.00143407
0.00145369
0.00147264
0.00149091
0.00150849
0.00152537
0.00154156
0.00155706
0.0015719
0.00158609
0.00159964
0.00161258
0.00162492
0.00163669
0.00164792
0.00165862
0.00166881
0.00167853
0.00168779
0.0016966
0.001705
0.00171301
0.00172063
0.0017279
0.00173482
0.00104778
0.00105785
0.0010704
0.00108525
0.00110219
0.00112094
0.00114124
0.00116278
0.00118528
0.00120847
0.00123209
0.00125593
0.00127979
0.00130349
0.00132688
0.00134986
0.00137233
0.0013942
0.00141542
0.00143594
0.00145573
0.00147479
0.00149308
0.00151062
0.00152741
0.00154346
0.00155878
0.00157339
0.00158731
0.00160057
0.00161319
0.00162519
0.00163661
0.00164745
0.00165776
0.00166756
0.00167686
0.0016857
0.0016941
0.00170208
0.00170966
0.00171686
0.0017237
0.00173021
0.00102352
0.00103653
0.00105191
0.00106946
0.00108894
0.00111006
0.00113253
0.00115604
0.00118032
0.0012051
0.00123011
0.00125516
0.00128005
0.00130461
0.00132873
0.00135228
0.00137519
0.00139739
0.00141883
0.00143948
0.00145931
0.00147832
0.00149651
0.00151388
0.00153044
0.00154621
0.00156122
0.00157547
0.00158901
0.00160186
0.00161405
0.00162559
0.00163654
0.00164691
0.00165673
0.00166603
0.00167483
0.00168317
0.00169106
0.00169853
0.00170561
0.00171231
0.00171866
0.00172467
0.00101768
0.00103605
0.00105642
0.00107851
0.00110204
0.00112669
0.00115216
0.00117816
0.00120443
0.00123074
0.00125687
0.00128266
0.00130796
0.00133264
0.00135662
0.00137982
0.00140218
0.00142369
0.0014443
0.00146401
0.00148283
0.00150075
0.0015178
0.00153399
0.00154934
0.00156389
0.00157767
0.00159069
0.00160301
0.00161464
0.00162562
0.00163599
0.00164577
0.001655
0.00166371
0.00167192
0.00167967
0.00168697
0.00169386
0.00170036
0.00170649
0.00171228
0.00171774
0.00104629
0.00107102
0.00109692
0.00112369
0.00115103
0.00117864
0.00120629
0.00123374
0.0012608
0.00128732
0.00131317
0.00133824
0.00136246
0.00138577
0.00140812
0.00142951
0.00144991
0.00146934
0.00148779
0.00150529
0.00152186
0.00153752
0.00155232
0.00156627
0.00157943
0.00159181
0.00160346
0.00161442
0.00162473
0.00163441
0.00164351
0.00165205
0.00166008
0.00166761
0.00167468
0.00168132
0.00168755
0.0016934
0.00169889
0.00170406
0.0017089
0.0010664
0.00109461
0.00112338
0.00115244
0.00118151
0.00121035
0.00123875
0.00126655
0.0012936
0.0013198
0.00134506
0.00136932
0.00139253
0.00141468
0.00143576
0.00145577
0.00147472
0.00149264
0.00150954
0.00152547
0.00154046
0.00155454
0.00156776
0.00158016
0.00159177
0.00160264
0.00161282
0.00162234
0.00163123
0.00163955
0.00164731
0.00165456
0.00166133
0.00166766
0.00167355
0.00167906
0.0016842
0.001689
0.00169348
0.00169766
0.00112548
0.00115607
0.00118639
0.0012162
0.00124533
0.00127364
0.00130099
0.00132731
0.00135253
0.0013766
0.00139951
0.00142125
0.00144182
0.00146124
0.00147954
0.00149674
0.00151289
0.00152802
0.00154217
0.0015554
0.00156775
0.00157926
0.00158998
0.00159995
0.00160923
0.00161786
0.00162588
0.00163332
0.00164022
0.00164663
0.00165256
0.00165807
0.00166317
0.00166789
0.00167226
0.00167632
0.00168007
0.00168354
0.00125294
0.00128149
0.0013089
0.00133509
0.00136003
0.00138369
0.00140607
0.00142718
0.00144704
0.00146568
0.00148314
0.00149945
0.00151467
0.00152885
0.00154203
0.00155426
0.0015656
0.00157611
0.00158582
0.0015948
0.0016031
0.00161075
0.0016178
0.00162429
0.00163026
0.00163575
0.0016408
0.00164543
0.00164968
0.00165357
0.00165714
0.00166041
0.0016634
0.00166614
0.00126097
0.00128949
0.00131667
0.00134247
0.00136688
0.0013899
0.00141153
0.0014318
0.00145075
0.00146842
0.00148486
0.00150012
0.00151426
0.00152734
0.0015394
0.00155052
0.00156074
0.00157013
0.00157875
0.00158665
0.00159388
0.00160047
0.00160649
0.00161198
0.00161696
0.00162149
0.0016256
0.00162931
0.00163268
0.00163571
0.00163845
0.00164091
0.00164313
0.00164511
0.00126874
0.00129693
0.00132361
0.00134877
0.0013724
0.00139453
0.00141519
0.00143442
0.00145226
0.00146879
0.00148405
0.00149811
0.00151103
0.00152288
0.00153371
0.0015436
0.00155261
0.00156081
0.00156826
0.001575
0.00158109
0.00158658
0.00159152
0.00159595
0.00159991
0.00160345
0.00160659
0.00160937
0.00161183
0.001614
0.00161589
0.00161755
0.00161898
0.00162022
0.00127555
0.00130311
0.00132901
0.00135326
0.00137588
0.0013969
0.00141638
0.00143438
0.00145096
0.00146618
0.00148012
0.00149285
0.00150443
0.00151494
0.00152444
0.00153303
0.00154076
0.00154771
0.00155392
0.00155946
0.00156438
0.00156873
0.00157256
0.00157592
0.00157884
0.00158137
0.00158355
0.0015854
0.00158696
0.00158825
0.00158932
0.00159017
0.00159084
0.00159135
0.00130733
0.00133219
0.00135528
0.00137666
0.00139638
0.00141451
0.00143112
0.00144628
0.00146007
0.00147256
0.00148385
0.00149399
0.00150308
0.00151121
0.00151844
0.00152485
0.0015305
0.00153545
0.00153977
0.0015435
0.00154671
0.00154943
0.00155171
0.0015536
0.00155514
0.00155636
0.00155729
0.00155797
0.00155843
0.00155869
0.00155878
0.00155872
0.00155852
0.00130893
0.0013325
0.00135423
0.00137418
0.00139243
0.00140905
0.00142413
0.00143776
0.00145001
0.00146098
0.00147074
0.00147939
0.00148703
0.00149374
0.00149959
0.00150466
0.001509
0.0015127
0.00151579
0.00151835
0.00152042
0.00152205
0.00152328
0.00152417
0.00152474
0.00152504
0.0015251
0.00152494
0.0015246
0.0015241
0.00152347
0.00152272
0.00152188
0.00130733
0.00132941
0.00134959
0.00136796
0.0013846
0.00139961
0.00141306
0.00142507
0.00143572
0.0014451
0.00145331
0.00146045
0.00146662
0.00147191
0.00147638
0.00148012
0.00148318
0.00148563
0.00148754
0.00148895
0.00148992
0.0014905
0.00149074
0.00149067
0.00149033
0.00148976
0.00148899
0.00148806
0.00148698
0.00148578
0.00148449
0.00148313
0.00148171
0.00132251
0.00134101
0.00135768
0.00137262
0.00138593
0.0013977
0.00140805
0.00141706
0.00142483
0.00143148
0.00143713
0.00144185
0.00144574
0.00144887
0.00145131
0.00145312
0.00145439
0.00145515
0.00145548
0.00145541
0.001455
0.0014543
0.00145334
0.00145216
0.0014508
0.00144928
0.00144764
0.0014459
0.00144408
0.00144221
0.0014403
0.00143837
0.00131152
0.00132826
0.00134317
0.00135635
0.00136793
0.001378
0.00138667
0.00139403
0.00140022
0.00140536
0.00140955
0.00141287
0.00141541
0.00141724
0.00141845
0.00141909
0.00141923
0.00141892
0.00141823
0.00141721
0.0014159
0.00141434
0.00141257
0.00141064
0.00140856
0.00140638
0.00140412
0.0014018
0.00139945
0.00139708
0.00139471
0.00139235
0.00129636
0.00131129
0.00132441
0.00133583
0.00134567
0.00135405
0.00136106
0.00136682
0.00137149
0.00137517
0.00137796
0.00137995
0.00138121
0.00138183
0.00138188
0.00138143
0.00138053
0.00137925
0.00137764
0.00137575
0.00137363
0.00137131
0.00136883
0.00136624
0.00136355
0.0013608
0.00135801
0.00135521
0.00135241
0.00134963
0.00134689
0.00134421
0.0012771
0.00129022
0.00130155
0.00131124
0.00131938
0.00132611
0.00133151
0.00133575
0.00133897
0.00134128
0.00134275
0.00134349
0.00134357
0.00134307
0.00134206
0.00134061
0.00133879
0.00133663
0.00133421
0.00133156
0.00132872
0.00132575
0.00132267
0.00131951
0.00131631
0.00131309
0.00130987
0.00130668
0.00130353
0.00130045
0.00129743
0.0012945
0.00125398
0.00126531
0.00127491
0.0012829
0.00128941
0.00129454
0.00129844
0.00130125
0.00130311
0.00130413
0.00130439
0.00130398
0.00130298
0.00130147
0.00129952
0.00129719
0.00129454
0.00129162
0.00128849
0.00128518
0.00128175
0.00127823
0.00127465
0.00127104
0.00126742
0.00126384
0.00126029
0.00125682
0.00125342
0.00125011
0.00124692
0.00124383
0.00122736
0.00123696
0.00124489
0.00125127
0.00125622
0.00125985
0.00126232
0.0012638
0.00126441
0.00126425
0.00126341
0.00126196
0.00126
0.0012576
0.00125481
0.00125171
0.00124836
0.00124479
0.00124106
0.00123722
0.0012333
0.00122934
0.00122536
0.0012214
0.00121748
0.00121363
0.00120986
0.00120619
0.00120263
0.0011992
0.00119591
0.00119276
0.00119772
0.00120566
0.00121199
0.00121684
0.00122033
0.00122256
0.00122372
0.00122398
0.00122345
0.00122222
0.00122038
0.00121802
0.00121522
0.00121203
0.00120853
0.00120478
0.00120083
0.00119672
0.00119252
0.00118824
0.00118394
0.00117964
0.00117538
0.00117117
0.00116705
0.00116302
0.00115912
0.00115534
0.00115172
0.00114825
0.00114495
0.00114182
0.00116557
0.00117193
0.00117676
0.00118017
0.00118186
0.00118253
0.00118321
0.00118236
0.00118079
0.00117861
0.00117589
0.00117273
0.00116919
0.00116533
0.00116123
0.00115694
0.0011525
0.00114798
0.00114339
0.0011388
0.00113422
0.00112969
0.00112523
0.00112087
0.00111663
0.00111253
0.00110857
0.00110479
0.00110117
0.00109774
0.0010945
0.00109146
0.00113146
0.00113634
0.00113975
0.00114183
0.00114205
0.00114006
0.00113884
0.00113847
0.00113699
0.00113396
0.00113048
0.00112662
0.00112245
0.00111804
0.00111344
0.00110872
0.0011039
0.00109905
0.0010942
0.00108937
0.00108461
0.00107994
0.00107538
0.00107096
0.00106669
0.00106259
0.00105867
0.00105494
0.00105141
0.00104809
0.00104498
0.00104209
0.00109595
0.00109942
0.00110152
0.00110237
0.00110209
0.00110041
0.00109698
0.00109451
0.0010926
0.00108883
0.00108467
0.00108022
0.00107552
0.00107065
0.00106565
0.00106058
0.00105549
0.0010504
0.00104536
0.0010404
0.00103555
0.00103082
0.00102625
0.00102184
0.00101761
0.00101359
0.00100977
0.00100616
0.00100278
0.000999631
0.000996712
0.000994026
0.00105955
0.00106171
0.00106258
0.0010623
0.00106099
0.00105876
0.00105576
0.00105216
0.0010481
0.00104366
0.00103893
0.00103396
0.00102882
0.00102357
0.00101826
0.00101294
0.00100765
0.00100241
0.000997272
0.000992253
0.000987379
0.00098267
0.000978146
0.000973821
0.000969708
0.000965818
0.000962159
0.000958738
0.000955559
0.000952627
0.000949943
0.000947508
0.00102275
0.00102367
0.00102341
0.00102209
0.00101983
0.00101675
0.00101295
0.00100861
0.00100389
0.000998869
0.000993624
0.000988222
0.000982721
0.000977175
0.00097163
0.000966127
0.000960704
0.000955392
0.000950219
0.000945208
0.000940381
0.000935753
0.000931341
0.000927157
0.00092321
0.000919508
0.000916059
0.000912866
0.000909933
0.000907261
0.000904851
0.000902702
0.000985748
0.000984412
0.000982118
0.000978987
0.000975132
0.000970656
0.000965674
0.000960345
0.000954801
0.000949111
0.000943337
0.000937534
0.00093175
0.000926029
0.000920407
0.000914916
0.000909584
0.000904435
0.000899488
0.00089476
0.000890265
0.000886014
0.000882017
0.00087828
0.00087481
0.000871609
0.000868682
0.000866028
0.000863648
0.000861541
0.000859705
0.000948288
0.00094595
0.000942746
0.000938803
0.000934233
0.000929142
0.000923622
0.000917779
0.000911756
0.000905666
0.000899566
0.000893507
0.000887532
0.000881681
0.000875986
0.000870473
0.000865167
0.000860087
0.000855247
0.000850661
0.000846338
0.000842287
0.000838514
0.000835022
0.000831814
0.000828892
0.000826257
0.000823908
0.000821843
0.00082006
0.000818555
0.000911672
0.000908368
0.000904294
0.000899573
0.000894324
0.00088865
0.000882646
0.000876397
0.000869977
0.000863515
0.00085712
0.000850836
0.000844702
0.000838753
0.000833016
0.000827515
0.000822267
0.000817287
0.000812586
0.000808173
0.000804053
0.000800229
0.000796706
0.000793484
0.000790562
0.00078794
0.000785617
0.000783589
0.000781854
0.000780409
0.000779247
0.000876141
0.000871911
0.000867004
0.000861541
0.000855633
0.000849389
0.00084291
0.000836277
0.000829566
0.000822837
0.000816173
0.000809674
0.000803395
0.000797363
0.000791603
0.000786131
0.000780961
0.000776103
0.000771561
0.000767341
0.000763442
0.000759866
0.000756611
0.000753675
0.000751055
0.000748747
0.000746747
0.000745052
0.000743656
0.000742554
0.000741742
0.000824909
0.000818359
0.000811557
0.000804597
0.000797568
0.00079055
0.000783605
0.000776784
0.000770123
0.000763699
0.000757588
0.000751808
0.000746372
0.000741288
0.00073656
0.000732188
0.000728171
0.000724506
0.000721188
0.000718213
0.000715573
0.000713262
0.000711276
0.000709606
0.000708248
0.000707195
0.00070644
0.000705977
0.000789856
0.000782659
0.000775292
0.000767848
0.000760412
0.000753058
0.000745855
0.000738861
0.000732116
0.000725649
0.000719477
0.000713663
0.000708256
0.000703254
0.000698655
0.000694454
0.000690643
0.000687215
0.00068416
0.000681467
0.000679127
0.000677131
0.000675468
0.000674131
0.000673111
0.0006724
0.00067199
0.000671876
0.000756524
0.00074867
0.00074072
0.000732769
0.000724901
0.000717192
0.000709706
0.000702496
0.000695608
0.000689079
0.000682927
0.000677159
0.000671783
0.000666845
0.000662363
0.000658324
0.000654715
0.00065152
0.000648725
0.000646314
0.000644274
0.000642591
0.000641252
0.000640245
0.000639561
0.000639189
0.000639122
0.000639351
0.000725033
0.000716507
0.000707951
0.000699463
0.000691127
0.000683022
0.000675213
0.000667753
0.000660687
0.000654044
0.00064785
0.000642118
0.000636844
0.000632014
0.00062764
0.000623748
0.000620328
0.000617358
0.000614817
0.000612683
0.000610939
0.000609565
0.000608545
0.000607865
0.000607513
0.000607476
0.000607745
0.000608311
0.000695487
0.000686265
0.000677074
0.000668011
0.000659164
0.000650615
0.000642431
0.000634669
0.000627373
0.000620576
0.000614296
0.000608542
0.000603318
0.000598612
0.000594403
0.000590666
0.000587417
0.000584659
0.000582361
0.000580497
0.000579041
0.000577971
0.000577265
0.000576906
0.000576879
0.000577171
0.00057777
0.000578666
0.000667943
0.000658005
0.000648149
0.000638473
0.000629069
0.000620022
0.000611406
0.000603282
0.000595697
0.000588686
0.000582267
0.00057645
0.000571228
0.000566587
0.000562511
0.000558968
0.000555914
0.000553353
0.000551286
0.00054968
0.000548503
0.000547728
0.000547329
0.000547284
0.000547576
0.000548189
0.00054911
0.000550329
0.000642447
0.000631775
0.000621225
0.000610897
0.000600887
0.000591287
0.000582177
0.000573625
0.000565684
0.000558392
0.000551772
0.000545829
0.000540559
0.000535941
0.00053195
0.000528552
0.000525709
0.00052337
0.000521522
0.000520159
0.00051925
0.00051876
0.000518658
0.00051892
0.000519522
0.000520449
0.000521684
0.000523218
0.000619082
0.000607639
0.000596357
0.000585331
0.000574662
0.000564448
0.000554776
0.000545725
0.000537356
0.000529711
0.000522818
0.000516685
0.000511304
0.000506654
0.000502703
0.000499409
0.000496726
0.000494607
0.000492994
0.000491865
0.00049121
0.000490993
0.00049118
0.000491738
0.000492643
0.000493874
0.000495416
0.000497256
0.00059788
0.000585628
0.000573574
0.000561807
0.000550427
0.000539536
0.000529234
0.000519609
0.000510732
0.000502656
0.000495413
0.000489016
0.000483457
0.000478712
0.000474745
0.000471508
0.000468947
0.000467004
0.000465619
0.00046473
0.000464316
0.000464361
0.000464825
0.00046567
0.000466868
0.000468396
0.000470236
0.000472373
0.000578881
0.000565767
0.000552899
0.000540348
0.000528206
0.00051658
0.000505578
0.0004953
0.000485833
0.00047724
0.000469564
0.000462822
0.000457009
0.000452102
0.000448058
0.000444823
0.000442336
0.00044053
0.000439335
0.000438684
0.000438515
0.000438806
0.000439533
0.000440655
0.000442137
0.000443952
0.00044608
0.000448508
0.000562164
0.000548103
0.000534361
0.000520975
0.000508021
0.000495601
0.000483831
0.000472824
0.000462682
0.000453483
0.000445282
0.000438107
0.000431959
0.000426812
0.000422624
0.000419333
0.00041687
0.000415156
0.000414115
0.000413667
0.000413737
0.000414274
0.000415251
0.000416636
0.000418391
0.000420484
0.000422893
0.000425601
0.000547826
0.000532687
0.000517983
0.000503702
0.000489885
0.000476617
0.000464015
0.000452204
0.0004413
0.000431403
0.000422584
0.000414881
0.000408306
0.000402837
0.000398429
0.000395017
0.000392521
0.000390853
0.000389925
0.000389646
0.000389932
0.000390703
0.000391922
0.00039356
0.000395578
0.00039794
0.000400621
0.000403602
0.000535994
0.000519587
0.000503792
0.000488534
0.000473797
0.000459631
0.000446141
0.000433456
0.000421711
0.000411025
0.000401488
0.000393158
0.000386059
0.000380176
0.000375466
0.000371859
0.000369267
0.000367594
0.000366734
0.000366587
0.000367057
0.000368053
0.000369506
0.000371384
0.000373654
0.000376274
0.000379218
0.000382464
0.00052687
0.000508927
0.000491842
0.000475483
0.000459753
0.000444639
0.00043021
0.000416593
0.000403933
0.000392369
0.000382017
0.000372958
0.000365231
0.000358835
0.000353731
0.000349848
0.000347093
0.000345355
0.000344518
0.000344465
0.000345086
0.00034628
0.000347954
0.000350064
0.000352574
0.000355444
0.000358642
0.000362145
0.000520737
0.000500934
0.000482264
0.000464597
0.000447754
0.000431626
0.000416215
0.000401616
0.000387977
0.000375457
0.000364196
0.000354303
0.000345841
0.000338826
0.00033323
0.000328983
0.000325986
0.000324119
0.000323252
0.00032325
0.000323989
0.000325352
0.000327236
0.000329565
0.000332303
0.000335412
0.000338854
0.000342605
0.000517898
0.000495904
0.000475269
0.000455979
0.000437823
0.000420579
0.000404132
0.000388513
0.000373846
0.000360302
0.000348048
0.000337221
0.000327915
0.000320171
0.000313975
0.000309266
0.000305942
0.000303875
0.000302918
0.000302922
0.000303742
0.000305245
0.000307315
0.000309848
0.000312803
0.000316142
0.00031982
0.000323812
0.000518352
0.000494193
0.000471181
0.000449844
0.000430048
0.000411499
0.000393935
0.000377256
0.000361527
0.00034691
0.000333589
0.000321737
0.000311481
0.000302894
0.000295985
0.000290708
0.000286963
0.000284614
0.000283502
0.000283459
0.00028432
0.000285933
0.000288161
0.000290892
0.000294053
0.000297606
0.00030151
0.000305733
0.000520642
0.000495798
0.000470424
0.000446542
0.000424637
0.000404455
0.000385607
0.000367807
0.000350991
0.000335268
0.000320828
0.000307873
0.000296568
0.000287026
0.000279288
0.000273329
0.000269058
0.000266339
0.000264998
0.00026485
0.000265707
0.000267394
0.000269757
0.000272664
0.000276017
0.000279772
0.000283893
0.000288338
0.000523126
0.000499106
0.000473028
0.000446567
0.000421964
0.00039964
0.000379188
0.000360133
0.000342192
0.000325348
0.000309759
0.000295641
0.000283203
0.000272599
0.000263914
0.000257153
0.000252245
0.000249055
0.000247403
0.000247083
0.000247886
0.00024961
0.000252078
0.000255139
0.00025867
0.000262618
0.000266941
0.000271601
0.000525332
0.000502357
0.000477216
0.000449991
0.000422584
0.000397434
0.000374846
0.000354243
0.000335079
0.000317099
0.000300353
0.000285041
0.000271403
0.000259644
0.000249897
0.000242212
0.000236546
0.000232777
0.00023072
0.000230154
0.000230844
0.000232563
0.000235105
0.000238296
0.000241995
0.000246123
0.000250636
0.000255498
0.0005051
0.000481105
0.000454918
0.000426655
0.000398464
0.000372965
0.000350273
0.000329633
0.000310459
0.000292559
0.000276049
0.000261174
0.000248185
0.000237273
0.000228542
0.000221993
0.000217525
0.00021496
0.000214063
0.000214576
0.000216241
0.000218823
0.000222119
0.000225967
0.000230261
0.000234953
0.000240004
0.000507067
0.000484256
0.000459318
0.000432186
0.000403002
0.000374221
0.000348588
0.000325946
0.00030538
0.000286306
0.000268616
0.000252499
0.000238234
0.000226071
0.000216181
0.000208619
0.000203326
0.000200138
0.000198816
0.000199077
0.000200634
0.000203215
0.000206587
0.000210564
0.00021501
0.000219868
0.000225099
0.000462752
0.000436976
0.00040901
0.000379043
0.000349892
0.000324346
0.000301903
0.000281521
0.000262665
0.000245333
0.000229781
0.000216311
0.000205162
0.000196465
0.000190214
0.000186279
0.000184423
0.000184348
0.000185732
0.000188268
0.000191686
0.000195768
0.000200349
0.000205363
0.000210762
0.000464925
0.000440563
0.000414068
0.000385395
0.00035481
0.000325538
0.000300301
0.000278195
0.000258106
0.0002396
0.00022279
0.000207991
0.000195512
0.000185567
0.000178227
0.00017341
0.000170902
0.000170393
0.000171533
0.000173973
0.000177401
0.000181563
0.000186267
0.00019142
0.000196973
0.000442642
0.000417688
0.00039061
0.000361371
0.000330359
0.000301241
0.000276526
0.00025488
0.000235197
0.000217189
0.000201085
0.000187241
0.000175958
0.000167402
0.000161567
0.000158275
0.000157225
0.000158037
0.000160321
0.000163718
0.000167933
0.00017274
0.000178017
0.000183711
0.000442914
0.00041955
0.000394149
0.000366634
0.000336979
0.00030577
0.000277106
0.000253099
0.000232025
0.000212871
0.00019553
0.000180332
0.000167658
0.000157779
0.000150787
0.000146574
0.000144858
0.000145247
0.000147306
0.000150626
0.000154861
0.00015975
0.000165133
0.000170955
0.000441094
0.000419347
0.000395683
0.00036999
0.000342195
0.000312281
0.000281149
0.00025325
0.000230109
0.000209709
0.00019122
0.000174736
0.000160663
0.000149384
0.000141111
0.000135832
0.000133317
0.000133172
0.000134926
0.000138114
0.000142334
0.000147278
0.00015275
0.000158684
0.000416797
0.000394902
0.000371102
0.000345283
0.000317372
0.000287361
0.000256628
0.000229803
0.000207645
0.000188017
0.000170356
0.00015494
0.00014223
0.000132573
0.000126088
0.000122629
0.000121827
0.000123184
0.000126177
0.00013034
0.00013531
0.000140852
0.000146882
0.000411644
0.000391528
0.000369661
0.000345902
0.000320132
0.000292275
0.000262335
0.000232361
0.000206889
0.000185798
0.000167053
0.000150408
0.000136297
0.000125196
0.000117381
0.000112829
0.000111234
0.000112087
0.000114812
0.000118869
0.000123834
0.000129421
0.000135528
0.000385323
0.000365396
0.000343743
0.000320211
0.000294674
0.000267054
0.000237365
0.000208522
0.000184626
0.000164662
0.000146935
0.000131528
0.000118982
0.000109742
0.000103956
0.000101419
0.000101648
0.000104018
0.000107915
0.000112838
0.000118445
0.000124605
0.000376104
0.000358089
0.000338543
0.000317297
0.00029419
0.000269083
0.000241896
0.000212665
0.000185289
0.000163118
0.000144341
0.000127808
0.000113895
0.000103191
9.60461e-05
9.2417e-05
9.18851e-05
9.3801e-05
9.74726e-05
0.000102312
0.000107912
0.000114098
0.00036376
0.00034759
0.000330106
0.000311135
0.000290497
0.000268014
0.000243538
0.000216992
0.000188489
0.000162847
0.000142461
0.000124962
0.000109849
9.77187e-05
8.91328e-05
8.42659e-05
8.28257e-05
8.41721e-05
8.75409e-05
9.22475e-05
9.78049e-05
0.000103987
0.000333841
0.000318327
0.000301561
0.000283355
0.000263512
0.000241836
0.000218163
0.000192417
0.000165059
0.000141402
0.000122776
0.000106694
9.32735e-05
8.32313e-05
7.7005e-05
7.45029e-05
7.51489e-05
7.81243e-05
8.26395e-05
8.81132e-05
9.42606e-05
0.000316889
0.000303217
0.000288534
0.000272662
0.000255396
0.000236514
0.000215789
0.00019303
0.000168141
0.000142529
0.000121166
0.000104223
8.97475e-05
7.8327e-05
7.06673e-05
6.69557e-05
6.6757e-05
6.92339e-05
7.34899e-05
7.88323e-05
8.49073e-05
0.000296895
0.000284909
0.00027215
0.000258459
0.000243648
0.000227488
0.000209725
0.000190093
0.000168362
0.000144418
0.000121103
0.00010225
8.69622e-05
7.43542e-05
6.52663e-05
6.02237e-05
5.90293e-05
6.08879e-05
6.48058e-05
6.99621e-05
7.59198e-05
0.000263657
0.000252634
0.000240932
0.00022839
0.000214802
0.00019992
0.000183457
0.000165114
0.000144634
0.000121919
0.000101062
8.46621e-05
7.11645e-05
6.07745e-05
5.43382e-05
5.20039e-05
5.3112e-05
5.66008e-05
6.15079e-05
6.72945e-05
0.000239822
0.000230338
0.000220401
0.00020989
0.000198637
0.000186429
0.000172996
0.000158025
0.000141188
0.000122227
0.000101152
8.26218e-05
6.84917e-05
5.70941e-05
4.93082e-05
4.57208e-05
4.59394e-05
4.88963e-05
5.34819e-05
5.90331e-05
0.000213868
0.000205728
0.000197325
0.000188578
0.000179367
0.000169524
0.000158821
0.000146961
0.000133583
0.000118294
0.00010077
8.19409e-05
6.60366e-05
5.40512e-05
4.51061e-05
4.02145e-05
3.94097e-05
4.17219e-05
4.59057e-05
5.11446e-05
0.000186329
0.000179363
0.00017228
0.000165037
0.000157559
0.000149733
0.000141389
0.000132284
0.00012208
0.000110346
9.65832e-05
8.03596e-05
6.42997e-05
5.14387e-05
4.16478e-05
3.54992e-05
3.35628e-05
3.51143e-05
3.88114e-05
4.36497e-05
0.00015779
0.000151865
0.000145926
0.000139958
0.000133929
0.000127777
0.000121396
0.000114621
0.000107199
9.87666e-05
8.88436e-05
7.68864e-05
6.25038e-05
4.89107e-05
3.86919e-05
3.15285e-05
2.84267e-05
2.91135e-05
3.22419e-05
3.65862e-05
0.000128868
0.000123893
0.000118967
0.0001141
0.000109287
0.000104506
9.97099e-05
9.48057e-05
8.96365e-05
8.39493e-05
7.73596e-05
6.93359e-05
5.92694e-05
4.70548e-05
3.58279e-05
2.81682e-05
2.40044e-05
2.37542e-05
2.6245e-05
3.00161e-05
0.00010021
9.61312e-05
9.21403e-05
8.82568e-05
8.44948e-05
8.08584e-05
7.73357e-05
7.38904e-05
7.04454e-05
6.68564e-05
6.28674e-05
5.80472e-05
5.17278e-05
4.30557e-05
3.32695e-05
2.526e-05
2.02692e-05
1.90554e-05
2.08546e-05
2.4001e-05
7.25271e-05
6.93272e-05
6.62329e-05
6.32699e-05
6.04609e-05
5.7821e-05
5.53566e-05
5.30613e-05
5.09096e-05
4.88428e-05
4.67399e-05
4.43652e-05
4.12858e-05
3.67927e-05
3.00213e-05
2.2371e-05
1.70823e-05
1.50006e-05
1.60721e-05
1.85358e-05
4.67147e-05
4.43981e-05
4.21911e-05
4.01211e-05
3.82122e-05
3.64803e-05
3.49338e-05
3.35753e-05
3.24006e-05
3.13951e-05
3.0522e-05
2.96957e-05
2.87283e-05
2.72318e-05
2.44895e-05
1.96889e-05
1.41499e-05
1.15105e-05
1.18303e-05
1.26885e-05
2.41594e-05
2.27419e-05
2.14215e-05
2.02212e-05
1.9161e-05
1.82488e-05
1.74866e-05
1.68744e-05
1.64123e-05
1.61009e-05
1.59369e-05
1.5896e-05
1.5922e-05
1.58886e-05
1.54111e-05
1.39172e-05
1.09657e-05
8.35671e-06
8.20854e-06
8.02204e-06
7.47815e-06
6.92591e-06
6.42942e-06
5.99996e-06
5.64485e-06
5.3606e-06
5.14317e-06
4.99094e-06
4.90559e-06
4.89235e-06
4.956e-06
5.05021e-06
5.11213e-06
5.16084e-06
5.27255e-06
5.4184e-06
5.54558e-06
5.42498e-06
5.17288e-06
4.87801e-06
4.06244e-07
3.57094e-07
3.12801e-07
2.73938e-07
2.4088e-07
2.1356e-07
1.91548e-07
1.74289e-07
1.61245e-07
1.51987e-07
1.46345e-07
1.48636e-07
1.6163e-07
1.81471e-07
2.09864e-07
2.50315e-07
3.15872e-07
4.5626e-07
1.11468e-06
2.63725e-06
0.002639
0.0026159
0.002592
0.00256712
0.00254107
0.00251366
0.0024847
0.00245399
0.00242134
0.00238657
0.00234951
0.00231001
0.00226793
0.00222316
0.00217561
0.00212524
0.00207202
0.00201599
0.00195719
0.00189574
0.00183177
0.00176547
0.00169705
0.00162679
0.00155497
0.0014819
0.00140794
0.00133345
0.0012588
0.00118438
0.00111057
0.00103776
0.000966305
0.000896563
0.000828859
0.000763492
0.000700728
0.000640791
0.000583862
0.000530074
0.000479502
0.000432162
0.000388001
0.000346891
0.000308621
0.000272889
0.000239294
0.000207336
0.000176421
0.000145889
0.000115102
8.36671e-05
5.20903e-05
2.36476e-05
5.96732e-06
0.00263794
0.00261454
0.00259029
0.00256503
0.00253855
0.00251068
0.00248122
0.00244998
0.00241677
0.00238142
0.00234376
0.00230365
0.00226096
0.00221558
0.00216745
0.00211652
0.00206279
0.00200629
0.0019471
0.00188531
0.00182109
0.00175462
0.00168613
0.00161589
0.00154418
0.00147132
0.00139767
0.00132357
0.00124939
0.00117552
0.00110232
0.00103017
0.000959427
0.000890419
0.000823463
0.000758844
0.000696812
0.000637577
0.000581306
0.000528115
0.000478067
0.000431164
0.000387339
0.000346454
0.000308288
0.000272533
0.000238787
0.000206555
0.00017526
0.00014429
0.000113111
8.15874e-05
5.07633e-05
2.43334e-05
8.39808e-06
0.00263681
0.00261308
0.00258848
0.00256281
0.0025359
0.00250755
0.00247758
0.00244579
0.00241202
0.00237607
0.00233781
0.00229708
0.00225378
0.0022078
0.00215909
0.00210762
0.00205339
0.00199644
0.00193686
0.00187476
0.00181031
0.00174369
0.00167515
0.00160494
0.00153337
0.00146074
0.0013874
0.00131371
0.00124002
0.0011667
0.00109413
0.00102265
0.000952607
0.000884329
0.000818115
0.000754234
0.000692922
0.000634375
0.000578744
0.000526133
0.000476589
0.000430101
0.000386592
0.000345912
0.000307834
0.000272044
0.000238146
0.000205657
0.000174037
0.00014275
0.000111416
8.01724e-05
5.04088e-05
2.62136e-05
1.18275e-05
0.00263559
0.00261153
0.00258655
0.00256047
0.0025331
0.00250427
0.00247377
0.00244143
0.00240707
0.00237053
0.00233166
0.00229031
0.0022464
0.00219982
0.00215054
0.00209853
0.00204381
0.00198643
0.00192648
0.00186409
0.00179942
0.00173268
0.0016641
0.00159396
0.00152254
0.00145016
0.00137716
0.00130388
0.00123069
0.00115794
0.00108599
0.00101518
0.000945844
0.000878293
0.000812814
0.000749661
0.000689057
0.000631183
0.000576176
0.000524125
0.000475065
0.000428973
0.00038576
0.000345268
0.000307264
0.000271436
0.000237396
0.000204688
0.000172824
0.000141368
0.000110116
7.94559e-05
5.10703e-05
2.94441e-05
1.64285e-05
0.00263428
0.00260987
0.0025845
0.00255799
0.00253016
0.00250082
0.00246979
0.00243688
0.00240194
0.00236479