/*--------------------------------*- C++ -*----------------------------------*\
  =========                 |
  \\      /  F ield         | OpenFOAM: The Open Source CFD Toolbox
   \\    /   O peration     | Website:  https://openfoam.org
    \\  /    A nd           | Version:  10
     \\/     M anipulation  |
\*---------------------------------------------------------------------------*/
FoamFile
{
    format      ascii;
    class       volScalarField;
    location    "3900";
    object      k;
}
// * * * * * * * * * * * * * * * * * * * * * * * * * * * * * * * * * * * * * //

dimensions      [0 2 -2 0 0 0 0];

internalField   nonuniform List<scalar> 
420
(
2.22045e-16
2.22045e-16
2.22045e-16
2.22045e-16
2.22045e-16
2.22045e-16
2.22045e-16
2.22045e-16
2.22045e-16
2.22045e-16
2.22045e-16
2.22045e-16
2.22045e-16
2.22045e-16
2.22045e-16
2.22045e-16
2.22045e-16
2.22045e-16
2.22045e-16
2.22045e-16
2.22045e-16
2.22045e-16
2.22045e-16
2.22045e-16
2.22045e-16
2.22045e-16
2.22045e-16
2.22045e-16
2.22045e-16
2.22045e-16
2.22045e-16
2.22045e-16
2.22045e-16
2.22045e-16
2.22045e-16
2.22045e-16
2.22045e-16
2.22045e-16
2.22045e-16
2.22045e-16
2.22045e-16
2.22045e-16
2.22045e-16
2.22045e-16
2.22045e-16
2.22045e-16
2.22045e-16
2.22045e-16
2.22045e-16
2.22045e-16
2.22045e-16
2.22045e-16
2.22045e-16
2.22045e-16
2.22045e-16
2.22045e-16
2.22045e-16
2.22045e-16
2.22045e-16
2.22045e-16
2.22045e-16
2.22045e-16
2.22045e-16
2.22045e-16
2.22045e-16
2.22045e-16
2.22045e-16
2.22045e-16
2.22045e-16
2.22045e-16
2.22045e-16
2.22045e-16
2.22045e-16
2.22045e-16
2.22045e-16
2.22045e-16
2.22045e-16
2.22045e-16
2.22045e-16
2.22045e-16
2.22045e-16
2.22045e-16
2.22045e-16
2.22045e-16
2.22045e-16
2.22045e-16
2.22045e-16
2.22045e-16
2.22045e-16
2.22045e-16
2.22045e-16
2.22045e-16
2.22045e-16
2.22045e-16
2.22045e-16
2.22045e-16
2.22045e-16
2.22045e-16
2.22045e-16
2.22045e-16
2.22045e-16
2.22045e-16
2.22045e-16
2.50279e-16
2.9418e-16
2.9927e-16
2.47568e-16
2.22045e-16
2.35908e-16
2.79114e-16
2.22045e-16
2.22045e-16
2.22045e-16
2.49542e-16
2.9319e-16
2.9702e-16
2.38116e-16
2.22045e-16
2.2744e-16
2.73322e-16
2.22045e-16
2.22045e-16
2.22045e-16
2.51601e-16
2.94383e-16
2.94808e-16
2.31003e-16
2.22045e-16
2.22045e-16
2.70783e-16
2.22045e-16
2.22045e-16
2.22045e-16
2.54954e-16
2.9597e-16
2.9223e-16
2.26279e-16
2.22045e-16
2.22045e-16
2.69493e-16
2.22045e-16
2.22045e-16
2.22045e-16
2.59749e-16
2.98163e-16
2.8972e-16
2.22453e-16
2.22045e-16
2.22045e-16
2.68657e-16
2.22045e-16
2.22045e-16
2.22045e-16
2.65756e-16
3.00552e-16
2.87008e-16
2.22045e-16
2.22045e-16
2.22045e-16
2.68454e-16
2.22045e-16
2.22045e-16
2.22045e-16
2.7232e-16
3.02715e-16
2.84247e-16
2.22045e-16
2.22045e-16
2.22045e-16
2.69033e-16
2.22045e-16
2.22045e-16
2.22045e-16
2.78844e-16
3.04208e-16
2.81523e-16
2.22045e-16
2.22045e-16
2.22045e-16
2.70226e-16
2.22045e-16
2.22045e-16
2.22045e-16
2.84615e-16
3.04629e-16
2.78597e-16
2.22045e-16
2.22045e-16
2.22561e-16
2.71989e-16
2.22045e-16
2.22045e-16
2.22045e-16
2.89917e-16
3.05949e-16
2.77499e-16
2.22045e-16
2.22045e-16
2.25744e-16
2.74162e-16
2.22045e-16
2.22045e-16
2.39394e-16
2.97391e-16
3.1041e-16
2.80109e-16
2.22045e-16
2.22045e-16
2.28178e-16
2.76663e-16
2.22045e-16
2.22045e-16
2.54859e-16
3.01815e-16
3.12303e-16
2.8026e-16
2.22045e-16
2.22045e-16
2.29909e-16
2.8066e-16
2.22045e-16
2.22045e-16
2.69429e-16
3.00551e-16
3.07978e-16
2.75549e-16
2.22045e-16
2.22045e-16
2.34396e-16
2.85758e-16
2.22045e-16
2.48548e-16
2.70599e-16
2.91721e-16
3.00335e-16
2.71106e-16
2.22045e-16
2.22045e-16
2.41602e-16
2.91115e-16
2.31e-16
2.50051e-16
2.6317e-16
2.83838e-16
2.96318e-16
2.70399e-16
2.22045e-16
2.22045e-16
2.45056e-16
2.93416e-16
2.32171e-16
2.42577e-16
2.54205e-16
2.76079e-16
2.92955e-16
2.70923e-16
2.22045e-16
2.22045e-16
2.48611e-16
2.93219e-16
2.26842e-16
2.34009e-16
2.44682e-16
2.67814e-16
2.89515e-16
2.72139e-16
2.22045e-16
2.22045e-16
2.52842e-16
2.91568e-16
2.22045e-16
2.26588e-16
2.3579e-16
2.59944e-16
2.8655e-16
2.74152e-16
2.24064e-16
2.22113e-16
2.56574e-16
2.88775e-16
2.22045e-16
2.22045e-16
2.28687e-16
2.53456e-16
2.84344e-16
2.77436e-16
2.29578e-16
2.24741e-16
2.59237e-16
2.83e-16
2.22045e-16
2.22045e-16
2.23725e-16
2.48843e-16
2.83489e-16
2.82383e-16
2.35929e-16
2.27185e-16
2.60003e-16
2.73965e-16
2.22045e-16
2.22045e-16
2.2282e-16
2.48885e-16
2.87613e-16
2.89651e-16
2.41942e-16
2.27723e-16
2.61661e-16
2.68344e-16
2.23108e-16
2.22175e-16
2.23293e-16
2.50141e-16
2.9263e-16
2.96214e-16
2.43789e-16
2.26867e-16
2.66169e-16
2.71455e-16
2.22045e-16
2.22045e-16
2.22045e-16
2.22045e-16
2.22045e-16
2.22045e-16
2.22045e-16
2.22045e-16
2.22045e-16
2.2247e-16
2.22045e-16
2.22045e-16
2.22045e-16
2.22045e-16
2.22045e-16
2.22045e-16
2.22045e-16
2.22045e-16
2.22045e-16
2.22045e-16
2.22045e-16
2.22045e-16
2.22045e-16
2.22045e-16
2.22045e-16
2.22045e-16
2.22045e-16
2.22045e-16
2.22045e-16
2.22045e-16
2.22045e-16
2.22045e-16
2.22045e-16
2.22045e-16
2.22045e-16
2.22045e-16
2.22045e-16
2.22045e-16
2.22045e-16
2.22045e-16
2.22045e-16
2.22045e-16
2.22045e-16
2.22045e-16
2.22045e-16
2.22045e-16
2.22045e-16
2.22045e-16
2.22045e-16
2.22045e-16
2.22045e-16
2.22045e-16
2.22045e-16
2.22045e-16
2.22045e-16
2.22045e-16
2.22045e-16
2.22045e-16
2.22045e-16
2.22045e-16
2.22045e-16
2.22045e-16
2.22045e-16
2.22045e-16
2.22045e-16
2.22045e-16
2.22045e-16
2.22045e-16
2.22045e-16
2.22045e-16
2.22045e-16
2.22045e-16
2.22045e-16
2.22045e-16
2.22045e-16
2.22045e-16
2.22045e-16
2.22045e-16
2.22045e-16
2.22045e-16
2.22045e-16
2.22045e-16
2.22045e-16
2.22045e-16
2.22045e-16
2.22045e-16
2.22045e-16
2.22045e-16
2.22045e-16
2.22045e-16
2.22045e-16
2.22045e-16
2.22045e-16
2.22045e-16
2.22045e-16
2.22045e-16
2.22045e-16
2.22045e-16
2.22045e-16
2.22045e-16
)
;

boundaryField
{
    right
    {
        type            cyclic;
    }
    left
    {
        type            cyclic;
    }
    outerWall
    {
        type            kqRWallFunction;
        value           nonuniform List<scalar> 
22
(
2.79114e-16
2.73322e-16
2.70783e-16
2.69493e-16
2.68657e-16
2.68454e-16
2.69033e-16
2.70226e-16
2.71989e-16
2.74162e-16
2.76663e-16
2.8066e-16
2.85758e-16
2.91115e-16
2.93416e-16
2.93219e-16
2.91568e-16
2.88775e-16
2.83e-16
2.73965e-16
2.68344e-16
2.71455e-16
)
;
    }
    stirrerWall
    {
        type            kqRWallFunction;
        value           uniform 2.22045e-16;
    }
    top
    {
        type            empty;
    }
    bottom
    {
        type            empty;
    }
}


// ************************************************************************* //
