/*--------------------------------*- C++ -*----------------------------------*\
  =========                 |
  \\      /  F ield         | OpenFOAM: The Open Source CFD Toolbox
   \\    /   O peration     | Website:  https://openfoam.org
    \\  /    A nd           | Version:  10
     \\/     M anipulation  |
\*---------------------------------------------------------------------------*/
FoamFile
{
    format      ascii;
    class       volScalarField;
    location    "3900";
    object      nut;
}
// * * * * * * * * * * * * * * * * * * * * * * * * * * * * * * * * * * * * * //

dimensions      [0 2 -1 0 0 0 0];

internalField   nonuniform List<scalar> 
420
(
1.04478e-20
5.71672e-20
1.5836e-19
3.0602e-19
4.77586e-19
6.50092e-19
7.86974e-19
8.2772e-19
7.47418e-19
6.13138e-19
1.04473e-20
5.72912e-20
1.56214e-19
2.99554e-19
4.68971e-19
6.41906e-19
7.75265e-19
8.01699e-19
7.04926e-19
5.64262e-19
1.04471e-20
5.83441e-20
1.58239e-19
3.00427e-19
4.68115e-19
6.38859e-19
7.63932e-19
7.70864e-19
6.55929e-19
5.10093e-19
1.04472e-20
5.9967e-20
1.63344e-19
3.0592e-19
4.69154e-19
6.3063e-19
7.39516e-19
7.24714e-19
5.95345e-19
4.49263e-19
1.04476e-20
6.18497e-20
1.68599e-19
3.06449e-19
4.5356e-19
5.90916e-19
6.74574e-19
6.44654e-19
5.15902e-19
3.80822e-19
1.04483e-20
6.27277e-20
1.65533e-19
2.79941e-19
3.88702e-19
4.84263e-19
5.39423e-19
5.14242e-19
4.14935e-19
3.0579e-19
1.04493e-20
6.01045e-20
1.36536e-19
2.03171e-19
2.61117e-19
3.12935e-19
3.47839e-19
3.4653e-19
2.98784e-19
2.26177e-19
1.04506e-20
4.77156e-20
7.95274e-20
1.03563e-19
1.26785e-19
1.4991e-19
1.70729e-19
1.85456e-19
1.81719e-19
1.45378e-19
1.04522e-20
2.14904e-20
2.79292e-20
3.44684e-20
4.16745e-20
4.93716e-20
5.749e-20
6.61723e-20
7.57488e-20
6.94435e-20
2.82342e-21
3.6643e-21
4.61494e-21
5.67535e-21
6.84552e-21
8.12545e-21
9.51514e-21
1.10146e-20
1.26238e-20
1.43428e-20
5.02271e-19
4.49878e-19
4.82499e-19
6.81949e-19
1.00354e-18
8.35281e-19
4.99989e-19
4.96943e-19
2.22763e-19
7.21486e-20
4.554e-19
4.11678e-19
4.60319e-19
6.78507e-19
1.01365e-18
8.52179e-19
5.36112e-19
4.83091e-19
2.35109e-19
7.35395e-20
4.05601e-19
3.72505e-19
4.38417e-19
6.83776e-19
1.02942e-18
8.46823e-19
5.7587e-19
4.69178e-19
2.31229e-19
7.34089e-20
3.52573e-19
3.32487e-19
4.17457e-19
6.95173e-19
1.04592e-18
8.6828e-19
5.98171e-19
4.57137e-19
2.35677e-19
7.29115e-20
2.96308e-19
2.91736e-19
3.97554e-19
7.13084e-19
1.06248e-18
8.81585e-19
6.12775e-19
4.45776e-19
2.32976e-19
7.24601e-20
2.37518e-19
2.5067e-19
3.7916e-19
7.37484e-19
9.94941e-19
8.87495e-19
6.36076e-19
4.3517e-19
2.29524e-19
7.21845e-20
1.77681e-19
2.09914e-19
3.62621e-19
7.64704e-19
9.69744e-19
8.60255e-19
6.57889e-19
4.25104e-19
2.25364e-19
7.19959e-20
1.19778e-19
1.69969e-19
3.49198e-19
7.75886e-19
9.38183e-19
8.2473e-19
6.59318e-19
4.15632e-19
2.20418e-19
7.19414e-20
6.85015e-20
1.32136e-19
3.4077e-19
8.17603e-19
9.45063e-19
8.27046e-19
6.57494e-19
4.07036e-19
2.15077e-19
7.18919e-20
3.06739e-20
9.93033e-20
3.42389e-19
8.90448e-19
1.1107e-18
9.87993e-19
6.62138e-19
4.0185e-19
2.11962e-19
7.15835e-20
1.03958e-20
7.80864e-20
4.01985e-19
9.43535e-19
1.11424e-18
1.01437e-18
6.7064e-19
4.01228e-19
2.08629e-19
7.19053e-20
1.03958e-20
9.7215e-20
5.11279e-19
7.57335e-19
8.56269e-19
8.3248e-19
6.72668e-19
4.09998e-19
2.12412e-19
7.30738e-20
6.00539e-20
2.6843e-19
6.31457e-19
7.14067e-19
8.00599e-19
7.95777e-19
6.73043e-19
4.18207e-19
2.20035e-19
7.39999e-20
2.74538e-19
5.58848e-19
6.72817e-19
7.56224e-19
8.58317e-19
8.65486e-19
6.81148e-19
4.15392e-19
2.21884e-19
7.35101e-20
5.85621e-19
6.20456e-19
7.0379e-19
7.88018e-19
8.94899e-19
9.18054e-19
6.94074e-19
4.21826e-19
2.16936e-19
7.27113e-20
6.75111e-19
6.51467e-19
7.04793e-19
7.88743e-19
8.95855e-19
9.57608e-19
7.09493e-19
4.35846e-19
2.14456e-19
7.22607e-20
7.12312e-19
6.646e-19
7.06045e-19
8.00443e-19
9.24789e-19
1.0188e-18
7.25489e-19
4.54377e-19
2.14176e-19
7.17592e-20
7.07319e-19
6.55064e-19
6.69966e-19
8.05134e-19
1.01428e-18
1.02839e-18
7.45346e-19
4.63161e-19
2.1626e-19
7.01291e-20
6.77767e-19
6.08302e-19
6.17544e-19
7.58295e-19
9.90632e-19
1.03642e-18
7.69323e-19
4.61712e-19
2.1903e-19
6.78025e-20
6.39429e-19
5.70052e-19
5.70697e-19
7.16772e-19
9.6911e-19
1.04316e-18
7.84703e-19
4.51707e-19
2.36864e-19
6.75948e-20
5.94687e-19
5.27474e-19
5.33466e-19
6.89978e-19
9.65722e-19
1.05454e-18
7.91454e-19
4.71824e-19
2.61263e-19
7.31845e-20
5.49579e-19
4.85435e-19
5.0327e-19
6.76239e-19
9.79459e-19
8.80369e-19
4.57496e-19
5.24032e-19
2.49378e-19
7.43944e-20
1.43428e-20
1.11327e-19
4.0916e-19
6.933e-19
7.87025e-19
7.98248e-19
7.8234e-19
7.50382e-19
7.08303e-19
6.61812e-19
1.26238e-20
8.36473e-20
2.94821e-19
5.9698e-19
7.86908e-19
8.59543e-19
8.77165e-19
8.62893e-19
8.3113e-19
7.89677e-19
1.10146e-20
6.38446e-20
2.10246e-19
4.47407e-19
6.70107e-19
8.10623e-19
8.81299e-19
8.98004e-19
8.85096e-19
8.57086e-19
9.51514e-21
5.1203e-20
1.45938e-19
2.99221e-19
4.79554e-19
6.37761e-19
7.47905e-19
8.02008e-19
8.15072e-19
8.04024e-19
8.12545e-21
4.35819e-20
1.14997e-19
2.18867e-19
3.42742e-19
4.65878e-19
5.68397e-19
6.3465e-19
6.62e-19
6.61228e-19
6.84552e-21
3.73895e-20
9.6682e-20
1.76261e-19
2.65943e-19
3.53801e-19
4.27375e-19
4.75059e-19
4.92591e-19
4.88803e-19
5.67535e-21
3.17524e-20
8.27002e-20
1.4729e-19
2.13009e-19
2.6942e-19
3.0889e-19
3.26452e-19
3.25888e-19
3.16485e-19
4.61494e-21
2.62661e-20
6.79634e-20
1.13886e-19
1.49232e-19
1.69987e-19
1.7835e-19
1.76682e-19
1.70755e-19
1.63954e-19
3.6643e-21
2.06256e-20
4.41563e-20
5.75232e-20
6.25124e-20
6.3699e-20
6.32921e-20
6.21452e-20
6.07532e-20
5.89158e-20
2.82342e-21
1.04522e-20
1.04506e-20
1.04493e-20
1.04483e-20
1.04476e-20
1.04472e-20
1.04471e-20
1.04473e-20
1.04478e-20
)
;

boundaryField
{
    right
    {
        type            cyclic;
    }
    left
    {
        type            cyclic;
    }
    outerWall
    {
        type            nutkWallFunction;
        Cmu             0.09;
        kappa           0.41;
        E               9.8;
        value           uniform 0;
    }
    stirrerWall
    {
        type            nutkWallFunction;
        Cmu             0.09;
        kappa           0.41;
        E               9.8;
        value           uniform 0;
    }
    top
    {
        type            empty;
    }
    bottom
    {
        type            empty;
    }
}


// ************************************************************************* //
