/*--------------------------------*- C++ -*----------------------------------*\
  =========                 |
  \\      /  F ield         | OpenFOAM: The Open Source CFD Toolbox
   \\    /   O peration     | Website:  https://openfoam.org
    \\  /    A nd           | Version:  10
     \\/     M anipulation  |
\*---------------------------------------------------------------------------*/
FoamFile
{
    format      ascii;
    class       volScalarField;
    location    "3900";
    object      omega;
}
// * * * * * * * * * * * * * * * * * * * * * * * * * * * * * * * * * * * * * //

dimensions      [0 0 -1 0 0 0 0];

internalField   nonuniform List<scalar> 
420
(
21252.7
3884.13
1402.15
725.59
464.931
341.559
282.15
268.261
297.082
362.145
21253.7
3875.72
1421.42
741.25
473.472
345.914
286.411
276.967
314.99
393.513
21254.2
3805.77
1403.22
739.097
474.338
347.564
290.66
288.046
338.519
435.302
21254
3702.78
1359.37
725.826
473.288
352.1
300.257
306.389
372.968
494.242
21253.2
3590.07
1317
724.573
489.559
375.763
329.163
344.44
430.401
583.067
21251.7
3539.82
1341.39
793.185
571.246
458.521
411.633
431.79
535.132
726.133
21249.7
3694.31
1626.27
1092.9
850.363
709.554
638.355
640.767
743.16
981.728
21247.1
4653.5
2792.05
2144.04
1751.35
1481.19
1300.56
1197.29
1221.91
1527.36
21243.8
10332.3
7950.27
6441.98
5328.06
4497.42
3862.32
3355.55
2931.33
3197.48
78643.9
60596.7
48114.3
39124.4
32436.5
27327.1
23335.9
20159.1
17589.3
15481.3
442.081
493.566
460.197
367.006
293.143
277.626
314.918
446.821
901.664
3581.27
487.581
539.364
482.371
367.78
289.242
276.964
316.178
459.633
911.885
3581.17
547.445
596.086
506.469
367.958
285.969
276.788
318.763
473.263
931.244
3581.13
629.784
667.829
531.898
366.748
282.975
276.789
322.345
485.728
942.157
3581.18
749.371
761.116
558.527
364.262
280.63
277.269
326.43
498.108
953.078
3581.3
934.853
885.804
585.623
360.355
278.947
278.095
330.625
510.248
967.412
3581.49
1249.68
1057.79
612.333
354.706
277.383
278.777
334.169
522.33
985.269
3581.76
1853.8
1306.38
635.869
346.697
275.803
279.011
336.779
534.233
1007.38
3582.1
3241.46
1680.43
651.596
336.595
274.168
278.309
337.713
545.516
1034.8
3582.51
7238.89
2236.03
648.515
325.585
273.094
276.555
335.345
552.555
1065.02
3582.99
21359.1
2843.58
595.529
315.188
274.433
276.141
331.093
553.413
1093.7
3575.63
21359.1
2284.06
498.474
308.459
275.902
276.67
330.095
541.575
1082.37
3575.63
3697.42
827.198
367.074
299.925
275.673
276.312
329.911
530.944
1065.26
3582.99
808.794
402.62
322.03
296.833
274.509
273.632
325.986
534.542
1076.83
3582.51
378.579
329.664
318.224
299.627
274.954
270.898
319.915
526.389
1075.89
3582.1
311.932
323.423
325.377
305.452
276.655
268.745
312.962
509.457
1059.41
3581.76
306.253
331.712
336.891
313.185
279.093
267.119
306.062
488.679
1038.69
3581.49
313.924
345.902
351.943
322.858
282.516
266.583
300.617
464.851
1003.86
3581.3
327.612
365.023
370.317
334.244
287.033
267.687
298.415
442.815
956.469
3581.18
347.254
389.517
392.021
347.172
292.525
270.699
300.66
433.129
920.544
3581.13
373.381
420.958
417.683
360.715
297.822
274.67
305.694
428.581
904.049
3581.17
405.962
457.683
443.684
369.9
298.767
277.484
312.74
432.926
913.263
3581.27
15481.3
1994.53
542.684
320.272
282.132
278.165
283.821
295.909
313.488
336.153
17589.3
2654.53
753.15
371.947
282.174
258.329
253.139
257.326
267.16
281.184
20159.1
3477.89
1056.12
496.292
331.357
273.918
251.951
247.265
250.871
259.069
23335.9
4336.55
1521.5
742.075
463.023
348.162
296.889
276.861
272.423
276.167
27327.1
5094.89
1930.87
1014.52
647.847
476.616
390.651
349.87
335.415
335.807
32436.5
5938.68
2296.65
1259.75
834.934
627.597
519.554
467.404
450.769
454.262
39124.4
6993
2684.93
1507.53
1042.42
824.157
718.846
680.175
681.353
701.596
48114.3
8453.65
3267.12
1949.71
1487.92
1306.25
1244.99
1256.75
1300.37
1354.31
60596.7
10765.5
5028.6
3860.08
3552.01
3485.84
3508.25
3573
3654.86
3768.84
78643.9
21243.8
21247.1
21249.7
21251.7
21253.2
21254
21254.2
21253.7
21252.7
)
;

boundaryField
{
    right
    {
        type            cyclic;
    }
    left
    {
        type            cyclic;
    }
    outerWall
    {
        beta1           0.075;
        blended         0;
        type            omegaWallFunction;
        value           nonuniform List<scalar> 
22
(
3581.27
3581.17
3581.13
3581.18
3581.3
3581.49
3581.76
3582.1
3582.51
3582.99
3575.63
3575.63
3582.99
3582.51
3582.1
3581.76
3581.49
3581.3
3581.18
3581.13
3581.17
3581.27
)
;
    }
    stirrerWall
    {
        beta1           0.075;
        blended         0;
        type            omegaWallFunction;
        value           nonuniform List<scalar> 
42
(
21252.7
21253.7
21254.2
21254
21253.2
21251.7
21249.7
21247.1
21243.8
78643.9
78643.9
60596.7
48114.3
39124.4
32436.5
27327.1
23335.9
20159.1
17589.3
15481.3
21359.1
21359.1
15481.3
17589.3
20159.1
23335.9
27327.1
32436.5
39124.4
48114.3
60596.7
78643.9
78643.9
21243.8
21247.1
21249.7
21251.7
21253.2
21254
21254.2
21253.7
21252.7
)
;
    }
    top
    {
        type            empty;
    }
    bottom
    {
        type            empty;
    }
}


// ************************************************************************* //
