/*--------------------------------*- C++ -*----------------------------------*\
  =========                 |
  \\      /  F ield         | OpenFOAM: The Open Source CFD Toolbox
   \\    /   O peration     | Website:  https://openfoam.org
    \\  /    A nd           | Version:  10
     \\/     M anipulation  |
\*---------------------------------------------------------------------------*/
FoamFile
{
    format      ascii;
    class       volScalarField;
    location    "3900";
    object      p;
}
// * * * * * * * * * * * * * * * * * * * * * * * * * * * * * * * * * * * * * //

dimensions      [0 2 -2 0 0 0 0];

internalField   nonuniform List<scalar> 
420
(
-0.220074
14.2239
29.8436
47.7997
67.4398
88.2029
109.683
131.338
152.721
173.31
-1.1396
13.5564
29.0081
46.7313
66.1867
86.9055
108.529
130.501
152.226
173.125
-1.60478
13.0597
28.3
45.7669
65.015
85.6752
107.431
129.684
151.736
172.945
-1.79962
12.7416
27.7553
44.9482
63.9641
84.5263
106.366
128.865
151.236
172.75
-1.89087
12.5774
27.3816
44.2891
63.0379
83.4445
105.293
127.986
150.653
172.481
-1.93856
12.5466
27.1725
43.7869
62.2265
82.3977
104.143
126.948
149.897
172.084
-1.96968
12.6329
27.1175
43.426
61.5056
81.3392
102.839
125.629
148.865
171.562
-2.00539
12.8259
27.2088
43.1925
60.8624
80.2486
101.328
123.894
147.369
170.746
-2.0929
13.1353
27.4315
43.0831
60.3399
79.2202
99.7147
121.736
145
168.702
-2.2986
13.5281
27.6188
42.9872
59.9276
78.3786
98.2762
119.517
141.842
164.858
192.627
211.174
229.164
246.292
262.594
278.37
294.017
311.914
305.214
382.532
192.665
211.298
229.241
246.303
262.614
278.395
293.763
311.366
304.811
372.803
192.696
211.378
229.226
246.179
262.423
278.091
293.047
309.683
303.445
367.131
192.699
211.392
229.088
245.889
261.991
277.465
291.998
307.607
301.897
364.535
192.633
211.307
228.819
245.448
261.351
276.583
290.616
305.257
300.312
362.334
192.486
211.106
228.434
244.912
260.567
275.489
288.946
302.646
298.153
359.46
192.37
210.817
227.921
244.311
259.719
274.299
287.14
299.888
295.57
356.207
192.325
210.468
227.254
243.676
258.928
273.183
285.462
297.429
293.392
353.463
191.792
210.317
226.763
243.185
258.352
272.32
284.191
295.853
292.982
351.482
190.211
210.96
227.075
243.131
258.143
271.918
283.54
295.173
291.978
350.958
189.856
211.363
227.579
243.362
258.074
271.627
283.005
294.905
281.032
354.063
190.72
211.215
227.737
243.238
257.626
270.845
281.852
292.699
275.093
352.382
195.19
211.641
227.915
243.286
257.424
270.259
280.779
288.956
278.953
346.957
194.8
211.312
227.71
243.263
257.451
270.184
280.555
288.026
281.132
344.033
193.594
210.664
227.399
243.241
257.66
270.581
281.503
289.502
282.965
343.584
192.731
210.11
227.188
243.373
258.135
271.425
283.143
291.707
285.095
346.075
192.274
209.86
227.228
243.766
258.949
272.813
285.652
295.102
288.82
350.589
192.131
209.916
227.537
244.405
260.035
274.645
288.916
299.612
294.608
358.897
192.208
210.198
228.036
245.17
261.178
276.46
291.939
304.009
302.66
376.229
192.365
210.55
228.545
245.834
262.05
277.592
293.258
305.885
309.292
401.448
192.461
210.791
228.836
246.131
262.376
277.835
293.173
305.99
308.667
414.175
192.529
210.95
228.949
246.133
262.377
278.006
293.398
309.174
306.884
397.093
179.398
176.878
175.393
174.606
174.183
173.96
173.861
173.789
173.653
173.477
154.653
154.694
154.875
154.902
154.854
154.725
154.517
154.208
153.757
153.222
128.318
130.685
132.711
133.846
134.39
134.516
134.308
133.833
133.1
132.21
104.262
107.104
110.035
111.986
113.085
113.517
113.404
112.866
111.98
110.86
82.8508
85.1578
87.9481
90.1125
91.4671
92.0981
92.1067
91.5988
90.6899
89.5028
63.6574
65.2069
67.2951
69.1041
70.3418
70.9718
71.0412
70.6101
69.7835
68.6811
46.427
47.2974
48.5048
49.6322
50.4543
50.8689
50.8698
50.4867
49.7858
48.858
31.035
31.3582
31.7591
32.1237
32.3787
32.4545
32.3123
31.9475
31.385
30.6717
17.5071
17.2736
17.0296
16.8108
16.6206
16.4155
16.152
15.8063
15.369
14.8483
5.05977
3.8739
2.81665
2.1119
1.62374
1.23146
0.868021
0.496418
0.108191
-0.205158
)
;

boundaryField
{
    right
    {
        type            cyclic;
    }
    left
    {
        type            cyclic;
    }
    outerWall
    {
        type            zeroGradient;
    }
    stirrerWall
    {
        type            zeroGradient;
    }
    top
    {
        type            empty;
    }
    bottom
    {
        type            empty;
    }
}


// ************************************************************************* //
