/*--------------------------------*- C++ -*----------------------------------*\
  =========                 |
  \\      /  F ield         | OpenFOAM: The Open Source CFD Toolbox
   \\    /   O peration     | Website:  https://openfoam.org
    \\  /    A nd           | Version:  10
     \\/     M anipulation  |
\*---------------------------------------------------------------------------*/
FoamFile
{
    format      ascii;
    class       surfaceScalarField;
    location    "3900";
    object      phi;
}
// * * * * * * * * * * * * * * * * * * * * * * * * * * * * * * * * * * * * * //

dimensions      [0 3 -1 0 0 0 0];

internalField   nonuniform List<scalar> 
788
(
1.53468e-06
-2.99492e-06
2.42281e-06
7.07165e-06
3.73342e-06
1.16071e-05
4.97731e-06
1.28594e-05
5.78708e-06
1.20977e-05
5.93207e-06
9.60826e-06
5.5711e-06
4.58494e-06
5.45682e-06
-4.46136e-06
5.56058e-06
-1.61275e-05
-3.12217e-05
5.61525e-06
1.38867e-06
-4.39029e-06
2.47792e-06
5.92863e-06
3.90679e-06
1.01097e-05
5.26513e-06
1.14565e-05
6.05341e-06
1.12906e-05
6.06718e-06
9.58927e-06
5.55254e-06
5.05726e-06
5.08886e-06
-4.1242e-06
4.7207e-06
-1.5926e-05
-3.08928e-05
4.2688e-06
1.08999e-06
-5.49877e-06
2.18768e-06
4.7615e-06
3.63672e-06
8.5808e-06
4.96577e-06
1.009e-05
5.77983e-06
1.0473e-05
5.91785e-06
9.45565e-06
5.5366e-06
5.40056e-06
4.82664e-06
-3.52904e-06
3.96651e-06
-1.51919e-05
-3.01866e-05
3.20834e-06
7.15433e-07
-6.24177e-06
1.64476e-06
3.75325e-06
3.06079e-06
7.07793e-06
4.4336e-06
8.68262e-06
5.42895e-06
9.48599e-06
5.91263e-06
8.98932e-06
5.87339e-06
5.41693e-06
5.08889e-06
-2.82926e-06
3.84742e-06
-1.40303e-05
-2.90431e-05
2.7047e-06
2.84478e-07
-6.56078e-06
9.91629e-07
2.9555e-06
2.3744e-06
5.59798e-06
3.91468e-06
7.10588e-06
5.32126e-06
8.09789e-06
6.3463e-06
8.00194e-06
6.73246e-06
5.04024e-06
5.96435e-06
-2.10015e-06
4.35082e-06
-1.24569e-05
-2.72441e-05
2.57145e-06
-2.09983e-07
-6.3911e-06
2.56816e-07
2.38408e-06
1.59924e-06
4.14756e-06
3.34792e-06
5.32267e-06
5.23448e-06
6.24658e-06
6.94502e-06
6.35477e-06
7.93746e-06
4.08871e-06
7.40049e-06
-1.56615e-06
5.31059e-06
-1.03767e-05
-2.4337e-05
2.43821e-06
-7.86981e-07
-5.64911e-06
-5.61276e-07
2.03973e-06
7.00478e-07
2.76896e-06
2.55421e-06
3.43979e-06
4.76727e-06
4.08842e-06
6.9894e-06
4.22359e-06
8.37814e-06
2.77103e-06
7.90607e-06
-1.06708e-06
5.15983e-06
-7.61694e-06
-2.01412e-05
1.0103e-06
-1.47585e-06
-4.22268e-06
-1.38459e-06
1.81684e-06
-2.3565e-07
1.49849e-06
1.49839e-06
1.68696e-06
3.66934e-06
1.99478e-06
5.91645e-06
2.09502e-06
7.2841e-06
1.50028e-06
6.48263e-06
-2.19654e-07
2.61536e-06
-3.73051e-06
-1.44956e-05
-2.98956e-06
-2.2878e-06
-1.98902e-06
-1.88761e-06
1.28927e-06
-9.29676e-07
4.51061e-07
3.98422e-07
3.75803e-07
2.11796e-06
3.77312e-07
4.01414e-06
3.27767e-07
5.40316e-06
2.04187e-07
5.02617e-06
1.86081e-07
1.03912e-06
2.51891e-07
-6.34209e-06
-7.08628e-06
-2.03387e-06
-7.86965e-07
-3.27713e-07
1.00689e-07
5.43914e-07
9.16553e-07
1.13151e-06
1.30826e-06
1.56177e-06
-4.74952e-06
5.83207e-06
-5.07338e-05
6.67493e-06
-8.2723e-05
8.48044e-06
-0.000125368
1.09278e-05
-0.000177989
1.37527e-05
-0.000241728
1.68113e-05
-0.000322159
2.41992e-05
-0.000439042
3.6581e-05
-0.000550094
4.05885e-06
-0.000507199
-0.0012838
4.0003e-06
-5.04763e-05
4.53958e-06
-8.31697e-05
5.9856e-06
-0.000126676
7.92264e-06
-0.000179766
1.03041e-05
-0.00024397
1.25321e-05
-0.000324374
1.66839e-05
-0.000443155
2.3503e-05
-0.000556931
1.29416e-05
-0.000496843
-0.00127084
2.6393e-06
-4.98616e-05
2.90435e-06
-8.33632e-05
3.83222e-06
-0.000127614
4.93012e-06
-0.000180926
6.35141e-06
-0.00024534
7.1553e-06
-0.000325108
7.68589e-06
-0.000443627
6.70143e-06
-0.000556053
9.4179e-06
-0.00049981
-0.00126132
1.71469e-06
-4.87793e-05
1.64359e-06
-8.31969e-05
2.03498e-06
-0.00012804
2.37326e-06
-0.000181381
3.08004e-06
-0.000245973
3.16981e-06
-0.00032519
2.69912e-06
-0.000443302
6.10077e-07
-0.000553758
6.90062e-06
-0.000506192
-0.00125435
1.03566e-06
-4.71543e-05
6.8094e-07
-8.27678e-05
6.04948e-07
-0.000128019
3.43896e-07
-0.000181227
5.6027e-07
-0.000246078
4.02623e-07
-0.000324947
-5.63475e-07
-0.000442461
-1.99082e-06
-0.000552179
6.43594e-06
-0.000514721
-0.00124787
3.46408e-07
-4.49817e-05
-1.11573e-07
-8.22691e-05
-6.12832e-07
-0.000127605
-1.43662e-06
-0.000180505
-1.68075e-06
-0.00024577
-1.95772e-06
-0.000324688
-3.32612e-06
-0.000441174
-4.56758e-06
-0.000550876
5.11964e-06
-0.000524552
-0.0012427
-1.01179e-06
-4.2885e-05
-1.18524e-06
-8.20744e-05
-2.00882e-06
-0.000126876
-3.30378e-06
-0.000179275
-3.94701e-06
-0.000245063
-4.34919e-06
-0.000324401
-5.86127e-06
-0.000439711
-7.00069e-06
-0.000549694
3.14461e-06
-0.000534855
-0.00123947
-3.42224e-06
-4.23862e-05
-2.90558e-06
-8.25633e-05
-3.84507e-06
-0.000125994
-5.53025e-06
-0.000177582
-6.62187e-06
-0.000243856
-7.28483e-06
-0.000323888
-8.90093e-06
-0.000438124
-9.69081e-06
-0.000548825
1.81255e-06
-0.000546484
-0.00123762
-5.41809e-06
-4.39878e-05
-4.24121e-06
-8.37148e-05
-5.73404e-06
-0.000124539
-8.1562e-06
-0.000175102
-1.02681e-05
-0.000241592
-1.21284e-05
-0.00032218
-1.51944e-05
-0.000435096
-1.56887e-05
-0.000548182
2.81904e-06
-0.00056491
-0.00123491
-5.52676e-07
-4.81638e-05
-1.53212e-06
-8.26845e-05
-4.65677e-06
-0.000121458
-7.77913e-06
-0.000171977
-1.07038e-05
-0.000238587
-1.34129e-05
-0.000319503
-1.82265e-05
-0.000430163
-2.03357e-05
-0.000546139
2.69395e-08
-0.000585058
-0.00123493
1.64464e-06
-4.97904e-05
6.43142e-07
-8.17145e-05
-8.46034e-07
-0.000120046
-2.07937e-06
-0.0001707
-3.0195e-06
-0.000237519
-3.96161e-06
-0.000318618
-6.44888e-06
-0.000427592
-1.99641e-05
-0.000532749
-8.01131e-06
-0.000596873
-0.00124296
3.04383e-06
-5.28249e-05
2.98725e-06
-8.16986e-05
1.83331e-06
-0.000119001
9.7944e-07
-0.000169774
4.11106e-07
-0.000236796
-5.20154e-07
-0.000317822
-3.59922e-06
-0.000424475
-1.60045e-05
-0.000520339
-1.06145e-05
-0.000602188
-0.00125362
8.03379e-07
-4.58561e-05
-7.74651e-06
-2.81972e-06
-7.78865e-05
-5.85822e-06
-0.000116067
-8.23973e-06
-0.000167377
-1.01097e-05
-0.000234826
-1.14978e-05
-0.000316496
-1.52144e-05
-0.000420623
-9.986e-06
-0.000525661
-6.01979e-06
-0.000606121
-0.00125959
-5.30651e-06
-4.39344e-05
3.56649e-06
-7.89064e-06
-7.51765e-05
-1.0244e-05
-0.000113855
-1.22281e-05
-0.00016535
-1.41687e-05
-0.00023273
-1.51934e-05
-0.000315558
-1.66607e-05
-0.00041905
-2.00955e-05
-0.000522309
-5.84805e-06
-0.00062034
-0.00126541
-7.70948e-06
-4.42788e-05
8.19955e-06
-8.71918e-06
-7.40394e-05
-1.01144e-05
-0.000112587
-1.13857e-05
-0.000164033
-1.29333e-05
-0.000231032
-1.40066e-05
-0.000314586
-1.64645e-05
-0.000416537
-2.30559e-05
-0.000515677
-8.39527e-06
-0.000634978
-0.00127377
-7.83552e-06
-4.45897e-05
8.28846e-06
-8.21785e-06
-7.35215e-05
-9.04348e-06
-0.000111879
-9.95682e-06
-0.000163081
-1.13126e-05
-0.000229521
-1.25263e-05
-0.000313422
-1.53182e-05
-0.000413754
-2.10202e-05
-0.000509945
-7.22969e-06
-0.000648724
-0.00128096
-6.30759e-06
-4.47177e-05
6.5911e-06
-6.407e-06
-7.32811e-05
-6.78455e-06
-0.000111624
-7.33986e-06
-0.000162522
-8.48665e-06
-0.00022828
-9.76538e-06
-0.000312216
-1.2501e-05
-0.000411012
-1.8242e-05
-0.000504147
-8.35097e-06
-0.000658556
-0.0012893
-3.6347e-06
-4.49374e-05
4.0049e-06
-3.45142e-06
-7.33656e-05
-3.34877e-06
-0.000111873
-3.38523e-06
-0.000162491
-4.11116e-06
-0.000227451
-5.25671e-06
-0.000311118
-7.19889e-06
-0.000409022
-1.23921e-05
-0.000498892
-8.29375e-06
-0.000662614
-0.00129763
-2.29853e-07
-4.54797e-05
8.98463e-07
4.69391e-07
-7.40647e-05
1.34952e-06
-0.000112939
2.23247e-06
-0.000163365
2.38882e-06
-0.000227451
1.79528e-06
-0.000310516
1.80819e-06
-0.000408977
9.94666e-07
-0.000498069
-1.76163e-06
-0.000659862
-0.00129945
3.73213e-06
-4.66411e-05
-2.50539e-06
5.4914e-06
-7.5968e-05
7.85021e-06
-0.0001155
1.0505e-05
-0.000165943
1.24679e-05
-0.000229176
1.31372e-05
-0.000311167
1.57053e-05
-0.000411603
2.10622e-05
-0.000503561
6.89485e-06
-0.000645731
-0.00129235
7.53537e-06
-4.88944e-05
-5.30946e-06
1.09075e-05
-7.96167e-05
1.55323e-05
-0.000120223
2.11103e-05
-0.000171255
2.65337e-05
-0.000234356
2.96307e-05
-0.00031462
3.35068e-05
-0.000415964
4.54543e-05
-0.000515401
1.20973e-05
-0.000612159
-0.00128041
8.07909e-06
-6.80023e-06
1.00961e-05
1.3553e-05
1.81567e-05
2.29284e-05
2.71242e-05
4.25775e-05
6.51039e-05
-7.19017e-06
-1.80335e-05
1.04319e-05
-2.4133e-05
9.8665e-06
-2.70344e-05
1.12937e-05
-2.79789e-05
9.43037e-06
-2.80035e-05
6.81522e-06
-2.77763e-05
3.93659e-06
-2.77519e-05
9.35603e-07
-2.8251e-05
-2.07858e-06
-2.95312e-05
-4.19422e-06
-5.86012e-06
-4.87228e-06
1.53842e-05
-9.91479e-06
1.5015e-05
-1.31364e-05
1.45684e-05
-1.44733e-05
1.08606e-05
-1.46244e-05
7.08419e-06
-1.42476e-05
3.66742e-06
-1.38885e-05
6.36607e-07
-1.39214e-05
-2.07297e-06
-1.44545e-05
-3.79557e-06
-5.1512e-06
1.52234e-06
1.38781e-05
-4.16168e-07
1.69114e-05
-2.33631e-06
1.64088e-05
-3.56225e-06
1.20699e-05
-3.86914e-06
7.39476e-06
-3.6306e-06
3.42554e-06
-3.40637e-06
3.67622e-07
-3.50266e-06
-2.08843e-06
-3.73358e-06
-3.74892e-06
-4.90929e-06
3.49143e-06
1.03508e-05
4.96618e-06
1.53031e-05
5.29076e-06
1.59375e-05
4.91898e-06
1.23429e-05
4.44131e-06
7.78111e-06
4.13851e-06
3.63662e-06
3.98837e-06
4.13784e-07
3.92327e-06
-2.13733e-06
4.06951e-06
-4.01422e-06
-5.22246e-06
3.39937e-06
6.89426e-06
6.85326e-06
1.17166e-05
9.50286e-06
1.31767e-05
1.0734e-05
1.10219e-05
1.09801e-05
7.44815e-06
1.07879e-05
3.74757e-06
1.05307e-05
5.97636e-07
1.02256e-05
-1.88951e-06
9.92575e-06
-3.75061e-06
-5.03389e-06
2.86611e-06
3.98725e-06
6.76027e-06
7.75237e-06
1.05957e-05
9.3284e-06
1.32826e-05
8.31181e-06
1.46828e-05
6.01894e-06
1.50921e-05
3.30895e-06
1.493e-05
7.34487e-07
1.44194e-05
-1.39861e-06
1.3727e-05
-3.06476e-06
-4.27222e-06
2.20057e-06
1.77811e-06
5.78893e-06
4.17531e-06
9.85317e-06
5.33819e-06
1.31875e-05
5.01525e-06
1.53864e-05
3.84149e-06
1.64725e-05
2.23322e-06
1.6693e-05
5.15495e-07
1.62861e-05
-9.9989e-07
1.54537e-05
-2.23976e-06
-3.17296e-06
1.69718e-06
9.46417e-08
4.81948e-06
1.1242e-06
8.45195e-06
1.82179e-06
1.15794e-05
1.9583e-06
1.38273e-05
1.63994e-06
1.51165e-05
9.69644e-07
1.55217e-05
1.14816e-07
1.52324e-05
-7.2742e-07
1.44273e-05
-1.45997e-06
-2.06755e-06
9.93607e-07
-8.79765e-07
3.23098e-06
-1.02088e-06
5.82648e-06
-6.68821e-07
8.06088e-06
-2.04358e-07
9.68922e-06
6.07499e-08
1.06051e-05
8.15123e-08
1.07942e-05
-6.89474e-08
1.03565e-05
-3.07031e-07
9.42852e-06
-5.67503e-07
-1.01827e-06
-8.65846e-07
-1.83522e-06
-2.47106e-06
-2.65411e-06
-2.58256e-06
-2.49994e-06
-2.57689e-06
-2.9009e-06
-3.50049e-06
)
;

boundaryField
{
    right
    {
        type            cyclic;
        value           nonuniform List<scalar> 
20
(
0.00128817
0.000539744
0.000537735
0.000431374
0.000318417
0.000238543
0.000175425
0.000123555
8.18708e-05
5.03816e-05
3.07792e-05
1.55585e-05
4.26938e-06
-4.28452e-06
-9.71027e-06
-1.29012e-05
-1.42116e-05
-1.31442e-05
-8.25774e-06
4.55298e-06
)
;
    }
    left
    {
        type            cyclic;
        value           nonuniform List<scalar> 
20
(
-0.00128817
-0.000539744
-0.000537735
-0.000431374
-0.000318417
-0.000238543
-0.000175425
-0.000123555
-8.18708e-05
-5.03816e-05
-3.07792e-05
-1.55585e-05
-4.26938e-06
4.28452e-06
9.71027e-06
1.29012e-05
1.42116e-05
1.31442e-05
8.25774e-06
-4.55298e-06
)
;
    }
    outerWall
    {
        type            calculated;
        value           uniform 0;
    }
    stirrerWall
    {
        type            calculated;
        value           uniform 0;
    }
    top
    {
        type            empty;
        value           nonuniform List<scalar> 0();
    }
    bottom
    {
        type            empty;
        value           nonuniform List<scalar> 0();
    }
}


// ************************************************************************* //
