/*--------------------------------*- C++ -*----------------------------------*\
  =========                 |
  \\      /  F ield         | OpenFOAM: The Open Source CFD Toolbox
   \\    /   O peration     | Website:  https://openfoam.org
    \\  /    A nd           | Version:  10
     \\/     M anipulation  |
\*---------------------------------------------------------------------------*/
FoamFile
{
    format      ascii;
    class       volVectorField;
    location    "3900";
    object      U;
}
// * * * * * * * * * * * * * * * * * * * * * * * * * * * * * * * * * * * * * //

dimensions      [0 1 -1 0 0 0 0];

internalField   nonuniform List<vector> 
420
(
(0.633822 8.72753 5.44794e-18)
(-0.241455 10.8981 -4.40378e-17)
(-0.0714496 12.5559 -2.23286e-16)
(-0.0189432 13.9057 6.23542e-17)
(-0.013624 15.0686 -4.35818e-16)
(-0.0510522 16.078 0)
(-0.0941299 16.8935 0)
(-0.142713 17.4136 5.38233e-16)
(-0.156825 17.7194 -6.3263e-16)
(-0.2387 17.7088 0)
(-0.0140841 8.75942 2.0661e-17)
(-1.05246 10.7555 -1.00889e-16)
(-0.983648 12.3855 6.739e-16)
(-1.01189 13.7459 -9.94328e-16)
(-1.09057 14.9561 3.07576e-16)
(-1.21988 16.034 2.32889e-18)
(-1.32542 16.8978 2.711e-15)
(-1.43253 17.3929 -7.4145e-16)
(-1.52223 17.6545 1.36943e-15)
(-1.64058 17.639 0)
(-0.679198 8.63121 6.09574e-18)
(-1.88271 10.5484 -4.69235e-16)
(-1.9126 12.1594 6.8025e-16)
(-2.04735 13.5339 1.15105e-15)
(-2.22178 14.7932 -7.6379e-16)
(-2.42159 15.9268 3.61661e-15)
(-2.56856 16.8226 1.63713e-15)
(-2.72093 17.2996 5.00796e-15)
(-2.90434 17.5291 -1.98879e-15)
(-3.0237 17.5013 -4.29699e-15)
(-1.33212 8.46276 2.75107e-17)
(-2.71238 10.271 4.318e-16)
(-2.84647 11.8472 -8.55721e-16)
(-3.08382 13.2245 7.94861e-16)
(-3.3406 14.5164 -1.54959e-15)
(-3.60134 15.6909 1.6902e-15)
(-3.78394 16.6128 -9.19185e-15)
(-3.98316 17.1066 0)
(-4.23438 17.333 -4.63122e-15)
(-4.35217 17.2963 4.05432e-15)
(-1.97326 8.28373 0)
(-3.5272 9.94 3.41658e-16)
(-3.75938 11.4569 -3.31066e-16)
(-4.08466 12.8187 0)
(-4.4066 14.1242 -3.03227e-16)
(-4.70723 15.3272 -2.93693e-16)
(-4.94636 16.284 3.09688e-15)
(-5.19491 16.8374 -4.27494e-15)
(-5.50315 17.0915 0)
(-5.64129 17.0407 -1.64929e-14)
(-2.61301 8.09289 -8.70418e-18)
(-4.32137 9.55831 0)
(-4.63997 10.9913 0)
(-5.03865 12.3136 1.42038e-15)
(-5.41442 13.6111 -2.20272e-15)
(-5.75732 14.8343 2.42686e-15)
(-6.04967 15.8294 6.42905e-16)
(-6.34801 16.483 9.13576e-15)
(-6.71242 16.807 -1.24098e-14)
(-6.92508 16.7588 7.95065e-15)
(-3.26252 7.88756 0)
(-5.09255 9.12873 -3.61404e-16)
(-5.48422 10.4567 -2.22318e-15)
(-5.94748 11.7154 -8.74661e-16)
(-6.37941 12.9772 -3.90569e-15)
(-6.77597 14.194 2.43413e-15)
(-7.14201 15.2385 -5.86393e-15)
(-7.53148 15.988 7.464e-16)
(-7.98119 16.4314 -3.54587e-15)
(-8.3043 16.4376 -1.18646e-14)
(-3.94133 7.66753 1.58491e-17)
(-5.83184 8.6543 3.66941e-16)
(-6.28035 9.86892 2.93866e-15)
(-6.80807 11.0476 5.75626e-16)
(-7.31151 12.2435 2.36679e-15)
(-7.78919 13.4188 0)
(-8.26183 14.4883 6.06982e-15)
(-8.80206 15.3479 7.55061e-15)
(-9.41132 15.9538 9.03727e-15)
(-9.89909 16.0352 8.79636e-15)
(-4.67561 7.41131 1.6545e-17)
(-6.50138 8.14803 3.74711e-16)
(-7.00602 9.26378 -4.04995e-16)
(-7.61841 10.3641 -1.96917e-15)
(-8.23012 11.4837 6.30922e-15)
(-8.82896 12.6038 8.45163e-15)
(-9.43426 13.686 -2.90361e-15)
(-10.1074 14.679 0)
(-10.8842 15.5108 0)
(-11.5733 15.6236 -9.65459e-15)
(-5.50924 7.04416 -8.92614e-17)
(-6.93364 7.73541 6.62697e-16)
(-7.54011 8.73292 0)
(-8.28425 9.72388 0)
(-9.0463 10.6948 -3.36419e-15)
(-9.80699 11.6521 -2.36934e-17)
(-10.5767 12.6012 6.02165e-15)
(-11.3608 13.5601 -1.32084e-14)
(-12.1317 14.4891 1.5776e-14)
(-12.7412 14.8334 1.25943e-15)
(-0.301849 17.3775 0)
(-0.302555 16.7537 0)
(-0.195236 15.9924 0)
(-0.0364139 15.2681 -8.55274e-16)
(0.139222 14.6424 0)
(0.0346011 13.9465 0)
(-0.322396 12.5509 8.56058e-16)
(3.95249 12.6311 0)
(-3.92385 18.3101 0)
(3.29253 -2.08388 0)
(-1.70091 17.3017 1.73018e-15)
(-1.66646 16.6364 2.79187e-15)
(-1.50372 15.8317 1.31338e-16)
(-1.31037 15.0985 9.3749e-16)
(-1.10002 14.4791 5.89841e-17)
(-1.12645 13.7887 1.15082e-15)
(-1.47606 12.2396 1.71416e-16)
(2.45142 12.449 9.2521e-17)
(-5.15606 18.687 -3.0785e-15)
(3.45769 -1.57503 -5.84789e-16)
(-3.06125 17.1531 1.55878e-15)
(-2.98277 16.4305 0)
(-2.76528 15.5847 -2.19249e-15)
(-2.55371 14.8443 -1.86722e-15)
(-2.32783 14.2235 5.57323e-15)
(-2.32382 13.5561 -1.11928e-15)
(-2.56758 11.9612 1.89612e-15)
(0.86165 12.405 0)
(-6.90519 18.1299 3.5847e-15)
(3.40667 -0.818084 -4.73899e-17)
(-4.38055 16.9368 3.43874e-15)
(-4.25964 16.1475 8.26323e-15)
(-3.9844 15.2707 -8.52082e-15)
(-3.75574 14.5353 3.35638e-15)
(-3.51048 13.9206 6.74536e-17)
(-3.45758 13.29 0)
(-3.58709 11.6888 -1.89774e-15)
(-0.387511 12.4288 -4.04324e-15)
(-8.36465 17.3503 -3.58117e-15)
(3.43957 -0.363523 2.79936e-15)
(-5.68112 16.6606 3.09496e-15)
(-5.50419 15.793 -2.67315e-15)
(-5.16226 14.9009 8.73253e-15)
(-4.91478 14.1751 -3.48879e-15)
(-4.64087 13.5608 3.04225e-15)
(-4.5209 12.9661 -4.72522e-15)
(-4.5473 11.3654 4.37076e-15)
(-1.53348 12.3512 4.41117e-15)
(-9.60534 16.3799 0)
(3.5444 0.169785 -5.73204e-15)
(-6.99523 16.3226 3.7337e-15)
(-6.72051 15.3587 -1.59698e-14)
(-6.30284 14.4724 -4.59294e-15)
(-6.04167 13.76 1.07989e-14)
(-5.73541 13.1375 9.42596e-15)
(-5.54793 12.5719 3.87045e-16)
(-5.46922 11.0132 2.02248e-16)
(-2.66946 12.1609 -4.0803e-15)
(-10.763 15.2689 -3.28957e-15)
(3.64436 0.685933 6.21505e-15)
(-8.38131 15.8775 3.75859e-15)
(-7.92295 14.8085 5.51782e-15)
(-7.41991 13.9708 0)
(-7.15234 13.2803 -3.54396e-15)
(-6.80552 12.6445 -5.76536e-15)
(-6.54637 12.0941 4.10096e-16)
(-6.35573 10.6007 -1.24582e-14)
(-3.78561 11.8724 -4.20441e-15)
(-11.8131 14.0003 7.11233e-15)
(3.74943 1.20429 -3.22068e-15)
(-9.83145 15.2249 1.41741e-14)
(-9.09954 14.0876 -5.0136e-15)
(-8.51176 13.3774 0)
(-8.25094 12.7238 -2.97886e-16)
(-7.8621 12.0723 2.42067e-14)
(-7.52936 11.5217 -1.00805e-14)
(-7.21469 10.1125 -9.08985e-15)
(-4.90055 11.4416 7.86784e-15)
(-12.7344 12.6988 -7.28268e-15)
(3.86895 1.69766 0)
(-11.0504 14.2776 3.96875e-16)
(-10.1667 13.2581 -5.00105e-15)
(-9.58553 12.7331 0)
(-9.34483 12.1201 7.47351e-15)
(-8.93683 11.4427 -1.80148e-14)
(-8.55905 10.8784 1.03559e-14)
(-8.14631 9.56095 4.25919e-15)
(-6.1643 10.799 0)
(-13.4832 11.3546 1.91261e-16)
(3.97822 2.2049 3.1082e-15)
(-11.4529 13.5867 4.67906e-16)
(-11.0482 12.5737 -5.85648e-17)
(-10.5817 12.1959 0)
(-10.3286 11.5892 -1.47556e-14)
(-9.89079 10.8904 5.56291e-15)
(-9.47942 10.2972 -5.62232e-15)
(-8.98083 9.09611 4.67067e-15)
(-7.12641 10.1599 1.29785e-16)
(-14.1648 9.51728 -2.35747e-16)
(4.02145 2.95431 -3.05497e-15)
(-11.0497 13.5775 2.91936e-15)
(-11.482 12.1428 -5.26649e-15)
(-11.1224 11.7983 0)
(-10.7828 11.2324 0)
(-10.256 10.5801 0)
(-9.77048 10.0199 -2.66572e-15)
(-9.22253 8.92052 1.04716e-14)
(-7.99119 9.99484 0)
(-14.7978 7.32935 0)
(4.34292 3.42456 0)
(-11.7029 12.8523 -2.78072e-15)
(-12.0452 11.7341 -4.98601e-15)
(-11.744 11.3824 0)
(-11.3541 10.824 3.6655e-15)
(-10.7688 10.188 -2.82508e-15)
(-10.2176 9.67226 2.58431e-15)
(-9.69545 8.65579 3.93273e-15)
(-8.72192 10.012 5.75891e-17)
(-14.8124 6.42733 1.55821e-15)
(4.40535 3.19921 0)
(-13.2161 11.5287 1.88225e-16)
(-12.9791 10.966 6.27469e-17)
(-12.7409 10.4988 0)
(-12.3184 9.92782 3.15466e-16)
(-11.6954 9.29559 6.05993e-15)
(-11.0902 8.83738 -4.37545e-15)
(-10.4905 8.08245 -1.17531e-14)
(-9.63406 9.36156 -6.47972e-15)
(-14.7072 6.78139 1.04777e-14)
(4.26716 3.1697 2.59754e-15)
(-14.6365 10.2585 -1.22067e-14)
(-14.1511 9.84681 4.8526e-15)
(-13.7648 9.40211 0)
(-13.2246 8.8709 -7.12482e-15)
(-12.5249 8.27092 -5.93074e-15)
(-11.8243 7.81478 9.50898e-15)
(-11.0653 7.30234 3.75781e-15)
(-10.5402 8.17497 0)
(-14.6219 5.10828 -4.85804e-15)
(4.29518 3.51889 7.04131e-17)
(-15.4798 9.0455 -3.09048e-16)
(-14.9978 8.73995 4.83437e-15)
(-14.5297 8.39582 0)
(-13.9159 7.95238 1.38038e-14)
(-13.1731 7.42856 3.72667e-17)
(-12.4056 6.97833 -2.11335e-16)
(-11.5814 6.65554 7.22147e-15)
(-11.404 7.31695 -6.16707e-15)
(-14.6708 3.432 -4.27776e-15)
(4.53082 4.14419 0)
(-16.0751 7.86592 -2.91365e-15)
(-15.6487 7.63536 9.73075e-15)
(-15.1454 7.36218 8.37415e-15)
(-14.4891 6.9946 -9.61152e-15)
(-13.7256 6.53638 -1.61675e-14)
(-12.9087 6.10553 -2.24023e-16)
(-12.0719 5.97701 -3.6204e-15)
(-12.1525 6.50944 -2.88477e-15)
(-14.5327 1.97913 -3.42676e-15)
(4.69729 5.01224 -2.09388e-15)
(-16.5637 6.74985 -8.75506e-15)
(-16.1627 6.55442 4.74296e-15)
(-15.6344 6.33838 -3.66921e-15)
(-14.9565 6.04693 -9.74491e-15)
(-14.1903 5.65637 7.58712e-15)
(-13.3441 5.25009 -2.00654e-16)
(-12.5231 5.31656 6.80279e-15)
(-12.7907 5.74251 2.43605e-15)
(-14.2498 0.643732 1.09408e-15)
(4.69652 5.4242 6.56589e-17)
(-16.9567 5.66032 2.54903e-15)
(-16.5609 5.49846 -2.40981e-15)
(-16.0072 5.33545 -1.24577e-16)
(-15.319 5.12278 9.62038e-15)
(-14.5604 4.80923 -1.29419e-14)
(-13.7008 4.43126 4.06628e-15)
(-12.9146 4.66811 -3.35826e-15)
(-13.3194 5.14659 8.36054e-15)
(-14.0085 -0.480874 0)
(4.62272 5.63466 -2.80303e-17)
(-17.2598 4.57511 2.9136e-15)
(-16.8527 4.46302 2.43667e-15)
(-16.2675 4.36411 4.12651e-15)
(-15.5754 4.24543 -6.42402e-15)
(-14.8369 4.02804 2.51834e-15)
(-13.9776 3.69423 0)
(-13.2091 4.0209 -1.66437e-15)
(-13.6746 4.85054 -5.09694e-15)
(-13.8664 -1.42193 4.19384e-16)
(4.40883 6.48496 1.94568e-15)
(-17.4449 3.48153 1.35728e-15)
(-16.9942 3.45073 0)
(-16.3631 3.44713 2.10842e-15)
(-15.6598 3.45874 1.76648e-15)
(-14.9414 3.37542 6.11244e-17)
(-14.0919 3.10582 -1.02809e-15)
(-13.2606 3.43647 1.6771e-15)
(-13.5576 4.81218 0)
(-13.7988 -2.24432 1.37129e-15)
(3.74821 7.66152 2.09251e-15)
(-17.5139 2.35612 1.59862e-15)
(-16.9967 2.43736 -2.7477e-15)
(-16.3371 2.57294 -1.38778e-16)
(-15.643 2.76627 7.82015e-16)
(-14.9533 2.8894 -4.28946e-17)
(-14.133 2.70142 1.03342e-15)
(-13.3834 3.08266 -1.75537e-15)
(-13.6333 5.01038 1.80678e-16)
(-14.2091 -2.2221 1.73793e-15)
(3.29129 6.60604 -1.50327e-15)
(-17.4171 1.1122 2.51587e-29)
(-16.812 1.12486 0)
(-16.0855 1.2403 0)
(-15.379 1.43825 -8.54756e-16)
(-14.765 1.64338 0)
(-14.1257 1.50195 0)
(-12.9737 1.3786 8.25325e-16)
(-12.927 5.67598 0)
(-16.6057 -1.59936 0)
(1.84099 1.40918 -6.94659e-30)
(-14.4588 12.2411 8.51816e-16)
(-15.1262 10.5429 -7.26227e-15)
(-15.7301 9.01964 7.02787e-15)
(-16.2165 7.81068 -9.34312e-15)
(-16.6685 6.7072 6.13569e-15)
(-17.0784 5.63713 -1.28058e-14)
(-17.4194 4.56893 3.21544e-15)
(-17.6553 3.48709 -3.59621e-15)
(-17.78 2.32985 0)
(-17.7476 1.12705 -4.74499e-16)
(-14.913 11.5976 1.50729e-14)
(-15.3794 10.183 0)
(-15.7887 8.71331 7.3008e-15)
(-16.1705 7.62773 -2.83028e-15)
(-16.5523 6.60533 -9.39473e-15)
(-16.9423 5.59318 0)
(-17.2971 4.55886 -3.57746e-15)
(-17.5725 3.48838 -1.67383e-15)
(-17.7439 2.32703 1.18049e-15)
(-17.7566 1.14615 -5.22616e-16)
(-14.5573 10.825 -1.2511e-14)
(-15.2427 9.56093 0)
(-15.6103 8.25946 6.70898e-15)
(-15.9335 7.3115 5.07016e-16)
(-16.2487 6.39483 7.74254e-15)
(-16.5921 5.46011 -3.64084e-15)
(-16.9196 4.47708 0)
(-17.1856 3.4351 4.5346e-15)
(-17.3648 2.2902 -7.51918e-16)
(-17.4215 1.08856 6.33266e-16)
(-13.5102 10.088 5.69187e-15)
(-14.6223 8.91668 -2.40619e-15)
(-15.134 7.76271 5.51596e-15)
(-15.4865 6.94354 -5.93537e-15)
(-15.7558 6.14911 6.15711e-16)
(-16.022 5.29271 3.53404e-15)
(-16.3003 4.34438 -1.07741e-14)
(-16.5461 3.33105 1.8456e-15)
(-16.7483 2.24693 2.93281e-15)
(-16.8615 1.09516 8.61508e-17)
(-12.3085 9.40455 -8.475e-15)
(-13.5478 8.31427 6.72785e-15)
(-14.3107 7.28005 0)
(-14.8074 6.50272 2.1805e-15)
(-15.1399 5.76174 2.31289e-15)
(-15.3974 4.97335 -2.83776e-16)
(-15.6336 4.10225 1.74635e-15)
(-15.8422 3.15777 3.90559e-15)
(-16.0029 2.14574 4.81269e-18)
(-16.0784 1.07002 3.43625e-16)
(-11.1312 8.74457 -3.36365e-15)
(-12.3083 7.74955 4.95872e-15)
(-13.1655 6.82275 1.94255e-15)
(-13.7955 6.08792 -3.27367e-15)
(-14.2363 5.38697 -1.92887e-15)
(-14.5521 4.65362 -2.50509e-16)
(-14.7874 3.85118 -3.38453e-15)
(-14.9664 2.97256 1.04526e-15)
(-15.0858 2.0292 3.18308e-16)
(-15.1174 1.03273 -3.46426e-16)
(-10.0012 8.0865 0)
(-10.9999 7.2047 -1.60489e-15)
(-11.8563 6.40091 4.85062e-16)
(-12.5352 5.71006 -7.39464e-16)
(-13.057 5.03307 1.21466e-15)
(-13.4415 4.32399 0)
(-13.7104 3.5648 7.49693e-16)
(-13.894 2.7431 1.12744e-15)
(-13.9929 1.86588 -9.92613e-16)
(-13.9928 0.943548 -2.95175e-17)
(-8.90094 7.41411 0)
(-9.71061 6.67917 -3.36856e-16)
(-10.493 6.01305 2.53518e-15)
(-11.1505 5.36742 -1.87248e-15)
(-11.6897 4.70431 0)
(-12.0984 4.00662 -2.90746e-16)
(-12.3872 3.27152 -7.98268e-16)
(-12.5742 2.48877 6.55455e-16)
(-12.6653 1.66547 6.63031e-16)
(-12.6556 0.809947 -2.59586e-16)
(-7.81236 6.67047 -8.36806e-16)
(-8.45298 6.08546 3.40063e-16)
(-9.12144 5.50027 3.30353e-16)
(-9.7081 4.86168 -3.2073e-16)
(-10.1957 4.18962 0)
(-10.5667 3.49206 3.06606e-16)
(-10.825 2.77101 3.92384e-16)
(-10.9779 2.02955 -4.33648e-16)
(-11.03 1.26978 -9.72536e-17)
(-10.9965 0.512716 5.48229e-18)
(-6.37579 6.25686 -2.02754e-16)
(-6.57286 6.02624 3.77516e-17)
(-6.96215 5.52392 2.39913e-17)
(-7.35559 4.92287 0)
(-7.71933 4.3129 -4.59965e-18)
(-8.03576 3.70469 0)
(-8.29203 3.09333 1.6456e-18)
(-8.48278 2.46975 4.81629e-17)
(-8.59423 1.83332 2.40548e-17)
(-8.64343 1.22749 -5.28322e-18)
)
;

boundaryField
{
    right
    {
        type            cyclic;
    }
    left
    {
        type            cyclic;
    }
    outerWall
    {
        type            calculated;
        value           nonuniform List<vector> 
22
(
(-1.55201 41.8305 0)
(-4.64749 41.6006 0)
(-7.71741 41.1419 0)
(-10.7449 40.4569 0)
(-13.7132 39.5492 0)
(-16.6061 38.424 0)
(-19.4075 37.0874 0)
(-22.1022 35.5467 0)
(-24.6752 33.8104 0)
(-27.1124 31.8882 0)
(-28.9573 30.2506 0)
(-30.2506 28.9573 0)
(-31.8882 27.1124 0)
(-33.8104 24.6752 0)
(-35.5467 22.1022 0)
(-37.0874 19.4075 0)
(-38.424 16.6061 0)
(-39.5492 13.7132 0)
(-40.4569 10.7449 0)
(-41.1419 7.71741 0)
(-41.6006 4.64749 0)
(-41.8305 1.55201 0)
)
;
    }
    stirrerWall
    {
        type            calculated;
        value           nonuniform List<vector> 
42
(
(-0.310178 8.3662 0)
(-0.928834 8.32046 0)
(-1.54239 8.22894 0)
(-2.14746 8.09214 0)
(-2.74072 7.91082 0)
(-3.31888 7.68598 0)
(-3.87877 7.41885 0)
(-4.41729 7.11092 0)
(-4.93148 6.76387 0)
(-5.4185 6.37963 0)
(-6.07951 6.64185 0)
(-6.92878 7.56862 0)
(-7.77806 8.49539 0)
(-8.62734 9.42216 0)
(-9.47661 10.3489 0)
(-10.3259 11.2757 0)
(-11.1752 12.2025 0)
(-12.0244 13.1292 0)
(-12.8737 14.056 0)
(-13.723 14.9828 0)
(-14.4723 15.1215 0)
(-15.1215 14.4723 0)
(-14.9828 13.723 0)
(-14.056 12.8737 0)
(-13.1292 12.0244 0)
(-12.2025 11.1752 0)
(-11.2757 10.3259 0)
(-10.3489 9.47661 0)
(-9.42216 8.62734 0)
(-8.49539 7.77806 0)
(-7.56862 6.92878 0)
(-6.64185 6.07951 0)
(-6.37963 5.4185 0)
(-6.76387 4.93148 0)
(-7.11092 4.41729 0)
(-7.41885 3.87877 0)
(-7.68598 3.31888 0)
(-7.91082 2.74072 0)
(-8.09214 2.14746 0)
(-8.22894 1.54239 0)
(-8.32046 0.928834 0)
(-8.3662 0.310178 0)
)
;
    }
    top
    {
        type            empty;
    }
    bottom
    {
        type            empty;
    }
}


// ************************************************************************* //
