/*--------------------------------*- C++ -*----------------------------------*\
  =========                 |
  \\      /  F ield         | OpenFOAM: The Open Source CFD Toolbox
   \\    /   O peration     | Website:  https://openfoam.org
    \\  /    A nd           | Version:  10
     \\/     M anipulation  |
\*---------------------------------------------------------------------------*/
FoamFile
{
    format      ascii;
    class       volVectorField;
    location    "3900";
    object      Urel;
}
// * * * * * * * * * * * * * * * * * * * * * * * * * * * * * * * * * * * * * //

dimensions      [0 1 -1 0 0 0 0];

internalField   nonuniform List<vector> 
420
(
(0.967822 -0.280718 5.44794e-18)
(0.139046 0.636732 -4.40378e-17)
(0.355566 1.04102 -2.23286e-16)
(0.454598 1.13705 6.23542e-17)
(0.50645 1.04603 -4.35818e-16)
(0.51556 0.801265 0)
(0.519025 0.362598 0)
(0.516988 -0.371639 5.38233e-16)
(0.549425 -1.32021 -6.3263e-16)
(0.514101 -2.58534 0)
(0.986093 -0.19954 2.0661e-17)
(0.0869643 0.550321 -1.00889e-16)
(0.295063 0.933789 6.739e-16)
(0.40614 1.04732 -9.94328e-16)
(0.466798 1.01057 3.07576e-16)
(0.476855 0.841267 2.32889e-18)
(0.510685 0.457683 2.711e-15)
(0.542952 -0.294558 -7.4145e-16)
(0.59265 -1.28042 1.36943e-15)
(0.613693 -2.54349 0)
(0.981663 -0.229179 6.09574e-18)
(0.00937559 0.455623 -4.69235e-16)
(0.210787 0.833765 6.8025e-16)
(0.307385 0.975275 1.15105e-15)
(0.364334 1.00123 -7.6379e-16)
(0.395937 0.901436 3.61661e-15)
(0.480401 0.563663 1.63713e-15)
(0.559487 -0.192889 5.00796e-15)
(0.607537 -1.19712 -1.98879e-15)
(0.719659 -2.4587 -4.29699e-15)
(0.980291 -0.250313 2.75107e-17)
(-0.0780264 0.346055 4.318e-16)
(0.109915 0.70997 -8.55721e-16)
(0.194669 0.874747 7.94861e-16)
(0.260049 0.953893 -1.54959e-15)
(0.321503 0.915546 1.6902e-15)
(0.461129 0.624411 -9.19185e-15)
(0.584168 -0.0948155 0)
(0.655212 -1.0816 -4.63122e-15)
(0.85971 -2.33155 4.05432e-15)
(0.977985 -0.2341 0)
(-0.165079 0.23745 3.41658e-16)
(0.013752 0.569262 -3.31066e-16)
(0.0995688 0.745741 0)
(0.188792 0.865689 -3.03227e-16)
(0.299384 0.883003 -2.93693e-16)
(0.471499 0.653952 3.09688e-15)
(0.634233 0.021551 -4.27494e-15)
(0.737299 -0.91035 0)
(1.01049 -2.14716 -1.64929e-14)
(0.960813 -0.182844 -8.70418e-18)
(-0.249975 0.131529 0)
(-0.0708454 0.413068 0)
(0.0283207 0.583775 1.42038e-15)
(0.150465 0.729379 -2.20272e-15)
(0.305544 0.800624 2.42686e-15)
(0.511221 0.643629 6.42905e-16)
(0.710938 0.145073 9.13576e-15)
(0.844625 -0.683222 -1.24098e-14)
(1.13008 -1.88373 7.95065e-15)
(0.914213 -0.100558 0)
(-0.334275 0.0295451 -3.61404e-16)
(-0.144218 0.246133 -2.22318e-15)
(-0.025629 0.393135 -8.74661e-16)
(0.124378 0.543107 -3.90569e-15)
(0.309834 0.647992 2.43413e-15)
(0.52586 0.580395 -5.86393e-15)
(0.718501 0.217758 7.464e-16)
(0.850944 -0.451103 -3.54587e-15)
(1.11 -1.55709 -1.18646e-14)
(0.815319 0.010954 1.58491e-17)
(-0.412868 -0.0672523 3.66941e-16)
(-0.198855 0.0820625 2.93866e-15)
(-0.0638938 0.195166 5.75626e-16)
(0.0954464 0.325352 2.36679e-15)
(0.280619 0.434906 0)
(0.470906 0.43843 6.06982e-15)
(0.593644 0.231965 7.55061e-15)
(0.647398 -0.228172 9.03727e-15)
(0.822669 -1.21288 8.79636e-15)
(0.634756 0.128383 1.6545e-17)
(-0.451536 -0.147937 3.74711e-16)
(-0.216475 -0.0455421 -4.04995e-16)
(-0.0889926 0.041161 -1.96917e-15)
(0.0392787 0.147033 6.30922e-15)
(0.180522 0.253336 8.45163e-15)
(0.315363 0.32153 -2.90361e-15)
(0.38245 0.300539 0)
(0.345909 0.118192 0)
(0.397061 -0.783149 -9.65459e-15)
(0.325597 0.174937 -8.92614e-17)
(-0.286224 -0.0893601 6.62697e-16)
(-0.0798622 -0.0476981 0)
(-0.0109877 -0.0127878 0)
(0.0400991 0.00195312 -3.36419e-15)
(0.0926465 0.00287763 -2.36934e-17)
(0.136222 -0.0044408 6.02165e-15)
(0.16558 -0.00203683 -1.32084e-14)
(0.208018 -0.0295634 1.5776e-14)
(0.412063 -0.641839 1.25943e-15)
(0.497759 -4.17772 0)
(0.546661 -6.13841 0)
(0.708905 -8.37977 0)
(0.928541 -10.7428 -8.55274e-16)
(1.17151 -13.1829 0)
(1.14144 -15.8877 0)
(0.866979 -19.5075 8.56058e-16)
(5.23325 -21.8899 0)
(-2.54191 -18.9375 0)
(4.7865 -42.3503 0)
(0.693504 -4.13495 1.73018e-15)
(0.876509 -6.12972 2.79187e-15)
(1.20373 -8.40642 1.31338e-16)
(1.57918 -10.7694 9.3749e-16)
(1.99115 -13.1933 5.89841e-17)
(2.18797 -15.8815 1.15082e-15)
(2.08552 -19.6427 1.71416e-16)
(6.28666 -21.8823 9.2521e-17)
(-1.01784 -18.3559 -3.0785e-15)
(7.93138 -41.6202 -5.84789e-16)
(0.914822 -4.04725 1.55878e-15)
(1.23998 -6.08467 0)
(1.73059 -8.38618 -2.19249e-15)
(2.24455 -10.7383 -1.86722e-15)
(2.80524 -13.1438 5.57323e-15)
(3.17994 -15.787 -1.11928e-15)
(3.34662 -19.5694 1.89612e-15)
(7.23027 -21.5477 0)
(-0.0334421 -18.5046 3.5847e-15)
(10.8355 -40.4217 -4.73899e-17)
(1.15533 -3.91075 3.43874e-15)
(1.61969 -5.99294 8.26323e-15)
(2.27519 -8.30117 -8.52082e-15)
(2.92487 -10.6216 3.35638e-15)
(3.63626 -12.9911 6.74536e-17)
(4.20529 -15.5646 0)
(4.6472 -19.3169 -1.89774e-15)
(8.47946 -20.9587 -4.04324e-15)
(1.20281 -18.6742 -3.58117e-15)
(13.7826 -39.3077 2.79936e-15)
(1.38417 -3.71961 3.09496e-15)
(1.99942 -5.85109 -2.67315e-15)
(2.82664 -8.14254 8.73253e-15)
(3.61144 -10.4177 -3.48879e-15)
(4.48028 -12.7474 3.04225e-15)
(5.25893 -15.2414 -4.72522e-15)
(5.96181 -18.945 4.37076e-15)
(9.78308 -20.2874 4.41117e-15)
(2.60521 -18.8365 0)
(16.7448 -37.9007 -5.73204e-15)
(1.56067 -3.47834 3.7337e-15)
(2.36616 -5.67013 -1.59698e-14)
(3.3715 -7.9159 -4.59294e-15)
(4.28332 -10.1335 1.07989e-14)
(5.30999 -12.4225 9.42596e-15)
(6.29508 -14.8334 3.87045e-16)
(7.2569 -18.4351 2.02248e-16)
(11.0344 -19.5493 -4.0803e-15)
(4.02347 -18.9457 -3.28957e-15)
(19.6294 -36.3014 6.21505e-15)
(1.61821 -3.23533 3.75859e-15)
(2.69687 -5.48947 5.51782e-15)
(3.8867 -7.63927 0)
(4.91468 -9.78263 -3.54396e-15)
(6.10341 -12.0269 -5.76536e-15)
(7.29471 -14.3582 4.10096e-16)
(8.51742 -17.8235 -1.24582e-14)
(12.2302 -18.7349 -4.20441e-15)
(5.46788 -19.0242 7.11233e-15)
(22.4312 -34.4965 -3.22068e-15)
(1.55679 -3.0949 1.41741e-14)
(2.99511 -5.36804 -5.0136e-15)
(4.365 -7.33579 0)
(5.49178 -9.38175 -2.97886e-16)
(6.8394 -11.5749 2.42067e-14)
(8.23369 -13.8323 -1.00805e-14)
(9.72369 -17.1313 -9.08985e-15)
(13.3391 -17.8946 7.86784e-15)
(6.94605 -18.9541 -7.28268e-15)
(25.1446 -32.5201 0)
(1.66398 -3.14849 3.96875e-16)
(3.33632 -5.24823 -5.00105e-15)
(4.79065 -6.96928 0)
(5.99808 -8.9066 7.47351e-15)
(7.47643 -11.0502 -1.80148e-14)
(9.03929 -13.2379 1.03559e-14)
(10.7641 -16.3527 4.25919e-15)
(14.1989 -17.1047 0)
(8.48847 -18.7524 1.91261e-16)
(27.7307 -30.3416 3.1082e-15)
(2.51791 -2.84995 4.67906e-16)
(3.78909 -4.88173 -5.85648e-17)
(5.21486 -6.38745 0)
(6.53022 -8.24303 -1.47556e-14)
(8.144 -10.3246 5.56291e-15)
(9.85746 -12.4487 -5.62232e-15)
(11.7977 -15.3449 4.67067e-15)
(15.2483 -16.1578 1.29785e-16)
(9.9771 -18.8784 -2.35747e-16)
(30.12 -27.7419 -3.05497e-15)
(3.86597 -2.00693 2.91936e-15)
(4.35954 -4.40862 -5.26649e-15)
(5.7441 -5.82378 0)
(7.21865 -7.57501 0)
(9.00207 -9.53975 0)
(10.8788 -11.5531 -2.66572e-15)
(12.9671 -14.2613 1.04716e-14)
(15.904 -14.9683 0)
(10.9856 -19.606 0)
(32.217 -25.6945 0)
(3.88151 -2.0634 -2.78072e-15)
(4.50621 -4.10746 -4.98601e-15)
(5.87801 -5.48417 0)
(7.45335 -7.17749 3.6655e-15)
(9.35103 -9.07004 -2.82508e-15)
(11.3553 -10.977 2.58431e-15)
(13.4864 -13.5339 3.93273e-15)
(16.2412 -13.8832 5.75891e-17)
(12.123 -19.3561 1.55821e-15)
(33.5244 -24.6749 0)
(3.22057 -2.44205 1.88225e-16)
(4.4763 -3.87125 6.27469e-17)
(5.84249 -5.2978 0)
(7.51383 -6.93096 3.15466e-16)
(9.51963 -8.73921 6.05993e-15)
(11.6558 -10.4995 -4.37545e-15)
(13.9505 -12.6961 -1.17531e-14)
(16.6837 -13.0131 -6.47972e-15)
(13.6885 -17.3605 1.04777e-14)
(34.9634 -22.9289 2.59754e-15)
(2.78953 -2.45588 -1.22067e-14)
(4.35522 -3.65623 4.8526e-15)
(5.9376 -4.97407 0)
(7.80208 -6.47201 -7.12482e-15)
(9.96797 -8.14235 -5.93074e-15)
(12.292 -9.78356 9.50898e-15)
(14.8484 -11.6081 3.75781e-15)
(17.3635 -12.1882 0)
(15.4852 -16.8634 -4.85804e-15)
(36.8417 -20.2336 7.04131e-17)
(2.84002 -2.34274 -3.09048e-16)
(4.45782 -3.3547 4.83437e-15)
(6.18352 -4.48094 0)
(8.18967 -5.79035 1.38038e-14)
(10.474 -7.27295 3.72667e-17)
(12.9484 -8.78472 -2.11335e-16)
(15.6624 -10.2828 7.22147e-15)
(17.9322 -10.9227 -6.16707e-15)
(16.982 -16.2485 -4.27776e-15)
(38.7486 -17.1315 0)
(3.03772 -2.13361 -2.91365e-15)
(4.64927 -2.98446 9.73075e-15)
(6.46471 -3.94443 8.37415e-15)
(8.57385 -5.07242 -9.61152e-15)
(10.9458 -6.37255 -1.61675e-14)
(13.5436 -7.73555 -2.24023e-16)
(16.3523 -8.89614 -3.6204e-15)
(18.4549 -9.5064 -2.88477e-15)
(18.4918 -15.3019 -3.42676e-15)
(40.3981 -13.6695 -2.09388e-15)
(3.23722 -1.80605 -8.75506e-15)
(4.86611 -2.53225 4.74296e-15)
(6.75384 -3.33595 -3.66921e-15)
(8.93699 -4.27806 -9.74491e-15)
(11.3698 -5.38902 7.58712e-15)
(14.0612 -6.59292 -2.00654e-16)
(16.9251 -7.40956 6.80279e-15)
(18.9195 -7.96138 2.43605e-15)
(19.9648 -14.1427 1.09408e-15)
(41.6839 -10.5609 6.56589e-17)
(3.42352 -1.40497 2.54903e-15)
(5.0832 -2.00515 -2.40981e-15)
(7.03621 -2.65345 -1.24577e-16)
(9.27371 -3.40345 9.62038e-15)
(11.7477 -4.31191 -1.29419e-14)
(14.5067 -5.34856 4.06628e-15)
(17.3957 -5.841 -3.35826e-15)
(19.3192 -6.16997 8.36054e-15)
(21.2079 -12.6914 0)
(42.6932 -7.56571 -2.80303e-17)
(3.58773 -0.960776 2.9136e-15)
(5.28773 -1.41631 2.43667e-15)
(7.3044 -1.89547 4.12651e-15)
(9.58145 -2.43517 -6.42402e-15)
(12.0747 -3.11871 2.51834e-15)
(14.8769 -3.96863 0)
(17.7967 -4.21339 -1.66437e-15)
(19.7129 -4.01643 -5.09694e-15)
(22.1581 -10.9894 4.19384e-16)
(43.353 -3.85808 1.94568e-15)
(3.75541 -0.49454 1.35728e-15)
(5.52093 -0.772017 0)
(7.60777 -1.04873 2.10842e-15)
(9.92291 -1.33953 1.76648e-15)
(12.4258 -1.75765 6.11244e-17)
(15.2512 -2.39794 -1.02809e-15)
(18.27 -2.47773 1.6771e-15)
(20.3951 -1.55644 0)
(22.8357 -9.11607 1.37129e-15)
(43.3518 0.232721 2.09251e-15)
(3.92276 -0.0382952 1.59862e-15)
(5.76948 -0.105612 -2.7477e-15)
(7.90102 -0.134507 -1.38778e-16)
(10.2248 -0.123276 7.82015e-16)
(12.7191 -0.201775 -4.28946e-17)
(15.5372 -0.612997 1.03342e-15)
(18.4988 -0.478914 -1.75537e-15)
(20.6981 1.17514 1.80678e-16)
(22.8338 -6.36032 1.73793e-15)
(43.3364 2.13236 -1.50327e-15)
(4.13821 0.312595 2.51587e-29)
(6.08004 0.275641 0)
(8.28662 0.33616 0)
(10.6319 0.473295 -8.54756e-16)
(13.0603 0.611092 0)
(15.7085 0.395119 0)
(19.0847 0.189226 8.25325e-16)
(21.5941 4.39522 0)
(20.6419 -2.9813 0)
(42.1074 -0.0847883 -6.94659e-30)
(1.01643 -0.912137 8.51816e-16)
(1.28053 -1.42747 -7.26227e-15)
(1.518 -1.70211 7.02787e-15)
(1.7782 -1.60362 -9.34312e-15)
(1.97401 -1.34796 6.13569e-15)
(2.10946 -1.01466 -1.28058e-14)
(2.20845 -0.64295 3.21544e-15)
(2.30466 -0.256265 -3.59621e-15)
(2.40249 0.075577 0)
(2.54655 0.374249 -4.74499e-16)
(-0.394333 -0.742143 1.50729e-14)
(0.0131945 -1.04706 0)
(0.393324 -1.3454 7.3008e-15)
(0.71191 -1.2044 -2.83028e-15)
(0.937853 -0.951709 -9.39473e-15)
(1.05958 -0.647272 0)
(1.11749 -0.330734 -3.57746e-15)
(1.15369 -0.0234977 -1.67383e-15)
(1.19101 0.212152 1.18049e-15)
(1.28304 0.439904 -5.22616e-16)
(-0.995157 -0.701332 -1.2511e-14)
(-0.864203 -0.928897 0)
(-0.494358 -1.13625 6.70898e-15)
(-0.163246 -0.938488 5.07016e-16)
(0.0892715 -0.664124 7.74254e-15)
(0.223767 -0.369035 -3.64084e-15)
(0.281864 -0.0902449 0)
(0.306926 0.154681 4.5346e-15)
(0.322705 0.314712 -7.51918e-16)
(0.363801 0.428859 6.33266e-16)
(-0.904595 -0.624973 5.69187e-15)
(-1.25782 -0.83294 -2.40619e-15)
(-1.08414 -0.970029 5.51596e-15)
(-0.828446 -0.724331 -5.93537e-15)
(-0.570026 -0.411783 6.15711e-16)
(-0.39197 -0.125149 3.53404e-15)
(-0.311931 0.0993112 -1.07741e-14)
(-0.287222 0.282083 1.8456e-15)
(-0.308275 0.410829 2.93281e-15)
(-0.330581 0.482009 8.61508e-17)
(-0.659337 -0.495087 -8.475e-15)
(-1.19728 -0.695211 6.72785e-15)
(-1.32673 -0.789761 0)
(-1.26136 -0.583087 2.1805e-15)
(-1.10623 -0.301126 2.31289e-15)
(-0.953154 -0.0332623 -2.83776e-16)
(-0.858242 0.179407 1.74635e-15)
(-0.816798 0.340239 3.90559e-15)
(-0.81009 0.449012 4.81269e-18)
(-0.80172 0.503407 3.43625e-16)
(-0.438281 -0.341836 -3.36365e-15)
(-0.971616 -0.519851 4.95872e-15)
(-1.24742 -0.584203 1.94255e-15)
(-1.36146 -0.415874 -3.27367e-15)
(-1.35462 -0.177912 -1.92887e-15)
(-1.29355 0.0582212 -2.50509e-16)
(-1.22488 0.250534 -3.38453e-15)
(-1.17445 0.386443 1.04526e-15)
(-1.14027 0.471825 3.18308e-16)
(-1.09479 0.512661 -3.46426e-16)
(-0.26455 -0.186758 0)
(-0.676952 -0.324719 -1.60489e-15)
(-1.0039 -0.343263 4.85062e-16)
(-1.21301 -0.211785 -7.39464e-16)
(-1.32719 -0.0339008 1.21466e-15)
(-1.36848 0.139757 0)
(-1.36065 0.286309 7.49693e-16)
(-1.33536 0.388371 1.12744e-15)
(-1.29439 0.447851 -9.92613e-16)
(-1.22418 0.470007 -2.95175e-17)
(-0.120322 -0.0461404 0)
(-0.401286 -0.110382 -3.36856e-16)
(-0.706136 -0.0684504 2.53518e-15)
(-0.939933 0.0274221 -1.87248e-15)
(-1.11148 0.135181 0)
(-1.21074 0.233491 -2.90746e-16)
(-1.24995 0.315138 -7.98268e-16)
(-1.24863 0.365387 6.55455e-16)
(-1.21357 0.386754 6.63031e-16)
(-1.14072 0.382931 -2.59586e-16)
(0.0124104 0.0230482 -8.36806e-16)
(-0.157014 0.0356233 3.40063e-16)
(-0.399895 0.0812969 3.30353e-16)
(-0.608916 0.1034 -3.2073e-16)
(-0.768933 0.118218 0)
(-0.864182 0.129937 3.06606e-16)
(-0.900018 0.136664 3.92384e-16)
(-0.885131 0.137461 -4.33648e-16)
(-0.824896 0.130361 -9.72536e-17)
(-0.735115 0.132215 5.48229e-18)
(0.493429 0.422024 -2.02754e-16)
(0.710061 0.715877 3.77516e-17)
(0.694427 0.76727 2.39913e-17)
(0.632536 0.746133 0)
(0.556403 0.739074 -4.59965e-18)
(0.482069 0.753447 0)
(0.421041 0.78092 1.6456e-18)
(0.377606 0.808886 4.81629e-17)
(0.364734 0.833139 2.40548e-17)
(0.364821 0.893492 -5.28322e-18)
)
;

boundaryField
{
    right
    {
        type            cyclic;
    }
    left
    {
        type            cyclic;
    }
    outerWall
    {
        type            noSlip;
    }
    stirrerWall
    {
        type            noSlip;
    }
    top
    {
        type            empty;
    }
    bottom
    {
        type            empty;
    }
}


// ************************************************************************* //
