/*--------------------------------*- C++ -*----------------------------------*\
  =========                 |
  \\      /  F ield         | OpenFOAM: The Open Source CFD Toolbox
   \\    /   O peration     | Website:  https://openfoam.org
    \\  /    A nd           | Version:  10
     \\/     M anipulation  |
\*---------------------------------------------------------------------------*/
FoamFile
{
    format      ascii;
    class       volScalarField;
    location    "60000";
    object      omega;
}
// * * * * * * * * * * * * * * * * * * * * * * * * * * * * * * * * * * * * * //

dimensions      [0 0 -1 0 0 0 0];

internalField   nonuniform List<scalar> 
17969
(
5562.21
1220.26
470.738
330.268
321.239
371.134
465.906
565.362
640.905
673.49
670.358
641.553
596.986
544.784
490.559
438.655
390.957
347.681
309.037
274.915
245.019
218.954
196.329
176.792
160.004
145.618
133.299
122.733
113.643
105.79
98.9693
93.0108
87.7727
83.1381
79.0108
75.3116
71.9755
68.949
66.188
63.6559
61.3225
59.1626
57.1552
55.2826
53.5301
51.8851
50.3372
48.8772
47.4975
46.1915
44.9537
43.7791
42.6637
41.6038
40.5964
39.6388
38.7288
37.8645
37.0443
36.2669
35.5312
34.8366
34.1825
33.5685
32.9945
32.4607
31.9675
31.5154
31.1053
30.7381
30.4152
30.1383
29.9091
29.7299
29.6049
29.5349
29.5154
29.5457
29.6208
29.7373
29.8926
30.084
30.3091
30.5665
30.8558
31.1775
31.5327
31.9234
32.3511
32.8175
33.3255
33.8851
34.5071
35.1993
35.9693
36.8243
37.7704
38.7962
39.8859
41.0455
5562.29
1239.62
411.934
243.973
210.485
224.796
269.402
326.556
392.171
458.868
517.439
554.559
567.608
559.963
536.544
502.698
463.255
421.881
381.736
344.225
309.587
278.163
249.995
224.972
202.876
183.443
166.409
151.533
138.588
127.348
117.594
109.119
101.734
95.2758
89.6013
84.5903
80.1413
76.1692
72.6032
69.3841
66.4626
63.7978
61.3553
59.1064
57.0271
55.0972
53.2999
51.6207
50.0477
48.5704
47.1802
45.8696
44.6323
43.4629
42.3566
41.3096
40.3184
39.3802
38.4926
37.6536
36.8615
36.115
35.4132
34.7554
34.1411
33.5702
33.0429
32.5596
32.1209
31.7279
31.3818
31.0842
30.8372
30.6429
30.5058
30.4263
30.3993
30.4219
30.4907
30.6016
30.7517
30.9378
31.1577
31.41
31.6945
32.0118
32.364
32.7537
33.1842
33.6582
34.1778
34.7448
35.3695
36.0655
36.8411
37.7046
38.6629
39.7048
40.8173
42.0087
5562.35
1269.77
396.022
201.878
153.116
148.215
167.941
202.57
240.641
283.508
332.266
381.226
427.056
464.128
485.537
491.036
482.319
462.412
434.925
403.278
370.159
337.832
307.305
278.828
252.722
229.07
207.828
188.871
172.025
157.1
143.905
132.266
122.022
113.019
105.112
98.1608
92.0374
86.6263
81.8264
77.5501
73.7224
70.2796
67.1682
64.3426
61.765
59.4031
57.23
55.223
53.3629
51.6334
50.0209
48.5135
47.1016
45.7765
44.5311
43.3594
42.256
41.2166
40.2375
39.3154
38.4478
37.6326
36.8681
36.153
35.4863
34.8676
34.2966
33.7735
33.2988
32.8733
32.4982
32.1751
31.906
31.6931
31.5409
31.4496
31.4134
31.4258
31.4859
31.5888
31.7313
31.9103
32.1237
32.3702
32.6497
32.9633
33.3129
33.7018
34.1338
34.6132
35.1439
35.7281
36.3676
37.0721
37.8562
38.7307
39.7036
40.7637
41.9012
43.1263
5562.39
1282.93
394.969
183.794
124.745
108.512
112.194
130.437
154.813
182.405
213.364
247.68
285.96
325.429
362.557
395.271
419.473
432.055
432.88
423.306
405.631
382.517
356.424
329.296
302.724
277.42
253.62
231.59
211.429
193.145
176.67
161.897
148.693
136.919
126.436
117.114
108.833
101.485
94.9645
89.1744
84.0243
79.4318
75.3233
71.6342
68.3085
65.298
62.5617
60.0646
57.777
55.6738
53.7335
51.938
50.2719
48.7221
47.2774
45.9283
44.6667
43.4857
42.3795
41.3432
40.3726
39.4643
38.6155
37.8241
37.0882
36.4067
35.7788
35.2042
34.6831
34.2161
33.804
33.4484
33.1509
32.9136
32.741
32.6327
32.5814
32.5792
32.6264
32.7173
32.8487
33.0176
33.2223
33.4618
33.7362
34.0463
34.3944
34.7835
35.2178
35.7021
36.2415
36.8405
37.5013
38.2254
39.0228
39.9099
40.8988
41.9789
43.1433
44.4038
45.7604
47.2051
48.7249
50.3033
5562.42
1288.12
396.29
176.55
111.452
88.7294
82.799
87.6355
101.577
119.406
139.934
163.211
189.106
217.551
248.763
281.699
313.175
341.206
364.821
380.687
387.508
385.458
375.745
360.114
340.509
318.697
296.142
273.954
252.632
232.427
213.563
196.157
180.243
165.795
152.745
141
130.455
121.003
112.536
104.955
98.1687
92.093
86.6511
81.7725
77.3926
73.4526
69.8994
66.6861
63.7711
61.1183
58.6964
56.4783
54.4408
52.5638
50.8304
49.2259
47.7379
46.3556
45.0701
43.8736
42.7597
41.7229
40.7586
39.8633
39.0338
38.268
37.5642
36.9213
36.3388
35.8168
35.3555
34.9561
34.6197
34.3478
34.145
34.0103
33.9353
33.9105
33.9374
34.01
34.125
34.28
34.4733
34.7041
34.9725
35.2794
35.6267
36.0173
36.4551
36.9451
37.4927
38.1035
38.7817
39.5294
40.3472
41.249
42.2546
43.3555
44.5483
45.845
47.2436
48.7349
50.3046
51.9346
5562.44
1288.97
396.558
173.461
105.499
79.5168
68.9754
66.5005
70.3006
80.0158
93.1981
108.593
126.299
146.245
168.288
192.256
218.137
245.959
273.018
297.38
318.873
335.669
345.895
349.079
345.523
336.193
322.426
305.68
287.261
268.303
249.579
231.437
214.145
197.891
182.789
168.884
156.168
144.601
134.119
124.644
116.094
108.384
101.435
95.1711
89.5223
84.4259
79.8243
75.6658
71.9029
68.4931
65.3977
62.5821
60.0155
57.6705
55.5232
53.5525
51.7402
50.0705
48.5297
47.1063
45.7901
44.5728
43.4472
42.4074
41.4484
40.5662
39.7578
39.0207
38.3534
37.7547
37.2241
36.7619
36.3684
36.0445
35.795
35.6194
35.5088
35.4536
35.4483
35.4939
35.5861
35.7223
35.9008
36.1208
36.382
36.6852
37.0319
37.4246
37.8669
38.3631
38.9187
39.5393
40.2302
40.9949
41.8343
42.7564
43.7766
44.897
46.1202
47.4543
48.8957
50.4335
52.0516
53.7305
5562.45
1288.66
396.249
172.215
103.061
75.4832
62.6849
56.8774
55.4825
57.8839
64.3359
74.0779
85.363
98.737
114.339
131.817
151.029
171.771
193.869
217.457
240.844
262.238
281.045
297.113
308.828
315.231
316.077
311.721
302.961
290.856
276.52
260.912
244.895
229.012
213.519
198.664
184.6
171.432
159.209
147.939
137.605
128.168
119.577
111.774
104.697
98.2831
92.4717
87.2058
82.4321
78.1021
74.1713
70.5998
67.351
64.3922
61.694
59.2298
56.9761
54.912
53.019
51.2809
49.6836
48.2149
46.8642
45.6225
44.4822
43.4369
42.4814
41.6113
40.8233
40.1149
39.4843
38.9303
38.4527
38.0516
37.733
37.497
37.3342
37.234
37.1866
37.1979
37.2612
37.3739
37.5341
37.7406
37.9929
38.2912
38.6365
39.0307
39.4766
39.9781
40.5398
41.1671
41.8657
42.6401
43.4925
44.4302
45.4672
46.6101
47.8657
49.2383
50.7221
52.3047
53.9683
55.6915
57.451
5562.45
1288.73
396.891
172.59
102.8
74.3065
60.256
52.7303
48.9096
47.7323
48.9542
52.9044
59.6315
67.9716
77.8245
89.5396
103.284
118.949
136.074
154.465
173.868
194.219
214.747
233.905
250.524
265.039
276.881
284.894
288.601
287.925
283.241
275.211
264.654
252.405
239.16
225.559
211.997
198.674
185.795
173.5
161.888
151.015
140.908
131.569
122.982
115.118
107.937
101.395
95.4417
90.0299
85.1111
80.6396
76.573
72.8719
69.5006
66.4269
63.6217
61.059
58.7155
56.5707
54.6064
52.8063
51.1565
49.6446
48.2599
46.9933
45.837
44.7844
43.8301
42.9698
42.2003
41.5191
40.9249
40.4175
40.0043
39.6866
39.4539
39.2944
39.1959
39.1626
39.19
39.2734
39.4105
39.5995
39.8394
40.1297
40.4706
40.8629
41.3084
41.8101
42.3721
42.9997
43.6986
44.4743
45.3303
46.2799
47.3366
48.5051
49.7938
51.2036
52.727
54.3497
56.0524
57.8121
59.6044
61.4056
63.1935
5562.43
1289.62
399.113
174.422
104.046
74.8733
60.0116
51.476
46.3472
43.4058
42.1415
42.4265
44.43
48.5424
54.6046
61.7277
70.2805
80.5469
92.6603
106.635
122.019
138.519
155.858
173.844
192.292
209.616
224.791
237.91
249.114
257.749
263.135
265.052
263.543
258.946
251.777
242.652
232.187
220.918
209.3
197.607
186.033
174.746
163.883
153.543
143.79
134.663
126.179
118.336
111.119
104.5
98.4473
92.9214
87.8826
83.2905
79.1059
75.2916
71.8132
68.6391
65.7406
63.0919
60.6699
58.4544
56.427
54.5719
52.875
51.3241
49.9087
48.6197
47.4496
46.3919
45.4417
44.5952
43.85
43.2053
42.6704
42.2481
41.9266
41.6929
41.5349
41.441
41.4212
41.4672
41.5739
41.739
41.9603
42.236
42.5649
42.9467
43.3821
43.8736
44.4255
45.0433
45.7342
46.5045
47.3623
48.3252
49.4018
50.5951
51.9128
53.3538
54.9088
56.5622
58.293
60.0774
61.8902
63.7074
65.5074
67.272
5562.41
1290.76
402.607
177.281
106.231
76.4487
60.9866
51.8014
45.9144
42.0339
39.5485
38.1747
37.8253
38.569
40.6478
44.372
49.5351
55.5806
62.9019
71.7864
82.3838
94.7248
108.421
123.235
138.886
155.085
171.762
187.654
201.771
213.925
224.311
232.902
239.184
242.789
243.625
241.775
237.514
231.238
223.409
214.483
204.888
194.933
184.813
174.713
164.796
155.187
145.982
137.247
129.027
121.345
114.208
107.608
101.527
95.9419
90.8222
86.1361
81.8508
77.934
74.3546
71.0834
68.0933
65.3597
62.8602
60.5748
58.4858
56.5773
54.8356
53.2487
51.8063
50.4997
49.3218
48.2671
47.3316
46.5136
45.8252
45.2705
44.8355
44.5056
44.2665
44.1018
44.015
44.0071
44.0705
44.1998
44.3902
44.6378
44.9404
45.297
45.7076
46.176
46.7065
47.3067
47.9863
48.7539
49.6175
50.5904
51.6787
52.8864
54.2208
55.6795
57.2521
58.9215
60.6656
62.4598
64.2786
66.0982
67.8978
69.66
71.3715
73.0225
5562.38
1291.31
406.661
180.623
108.852
78.4847
62.5258
52.8778
46.5161
42.1054
38.9855
36.8104
35.4027
34.6924
34.6954
35.5186
37.384
40.5624
44.9102
49.997
56.1717
63.7307
72.8621
83.5074
95.5481
108.779
122.915
137.615
152.695
167.441
180.816
192.218
201.981
210.173
216.738
221.327
223.731
223.929
222.001
218.171
212.756
206.104
198.57
190.445
181.925
173.2
164.437
155.777
147.335
139.197
131.429
124.075
117.16
110.697
104.685
99.1148
93.97
89.2302
84.8721
80.8707
77.2008
73.8379
70.7582
67.9396
65.3615
63.0053
60.8539
58.892
57.1063
55.4856
54.0202
52.7023
51.5258
50.4878
49.6036
48.8788
48.2966
47.84
47.4932
47.2398
47.0592
46.968
46.9598
47.0259
47.1597
47.3564
47.6134
47.9286
48.3041
48.7434
49.2498
49.831
50.4956
51.2527
52.1108
53.0779
54.1584
55.3609
56.6927
58.1502
59.7219
61.3894
63.1297
64.9174
66.7273
68.5361
70.3236
72.0735
73.7736
75.4149
76.9916
78.5004
79.9398
81.3096
5562.34
1290.8
410.696
184.029
111.56
80.6287
64.2264
54.2111
47.5187
42.7813
39.3095
36.7256
34.8142
33.4542
32.587
32.204
32.3461
33.1157
34.6986
37.34
40.9922
45.2679
50.4227
56.7192
64.3554
73.4124
83.8535
95.5203
108.157
121.426
135.043
148.78
161.523
172.554
181.943
189.873
196.353
201.368
204.724
206.3
206.1
204.221
200.853
196.248
190.674
184.361
177.492
170.245
162.782
155.243
147.745
140.387
133.247
126.383
119.839
113.643
107.812
102.351
97.2586
92.5279
88.1461
84.0981
80.3666
76.9333
73.7797
70.887
68.2375
65.8147
63.6038
61.5911
59.7645
58.114
56.6314
55.3121
54.1758
53.23
52.454
51.8272
51.3321
50.952
50.6687
50.4568
50.3381
50.3052
50.3515
50.4724
50.6634
50.9218
51.2479
51.641
52.1048
52.6455
53.2701
53.988
54.81
55.7457
56.7972
57.972
59.2792
60.7146
62.2655
63.9125
65.6318
67.3977
69.1853
70.9718
72.738
74.4685
76.1517
77.7795
79.3463
80.8489
82.286
83.6572
5562.3
1289.06
414.232
187.189
114.116
82.6614
65.8552
55.5287
48.5833
43.624
39.9395
37.1329
34.9688
33.3033
32.0492
31.1566
30.607
30.411
30.6121
31.297
32.616
34.7646
37.7915
41.3869
45.6517
50.8432
57.1839
64.8049
73.7404
83.9125
95.1342
107.124
119.527
132.164
144.287
155.145
164.302
172.046
178.488
183.625
187.423
189.808
190.753
190.282
188.5
185.584
181.712
177.045
171.743
165.958
159.83
153.487
147.041
140.59
134.216
127.988
121.957
116.166
110.644
105.411
100.478
95.8496
91.5253
87.4993
83.763
80.3051
77.1142
74.1768
71.4793
69.0077
66.7497
64.6943
62.8333
61.162
59.7058
58.4758
57.4467
56.5939
55.8971
55.3386
54.9011
54.5652
54.3043
54.1341
54.0578
54.0678
54.1585
54.3254
54.5653
54.877
55.2624
55.7249
56.2712
56.9127
57.6626
58.5328
59.5273
60.6518
61.9114
63.3033
64.8141
66.4234
68.1069
69.8386
71.5939
73.3507
75.0903
76.7982
78.4631
80.0772
81.6352
83.1339
84.5714
85.9473
5562.25
1286.13
417.109
189.965
116.393
84.4687
67.2924
56.6976
49.5498
44.4285
40.6055
37.6701
35.3743
33.5612
32.1285
31.0095
30.1631
29.5681
29.2213
29.1385
29.3584
29.9503
31.0332
32.7527
35.2313
38.2928
41.8511
46.1389
51.3799
57.7412
65.3106
74.0839
83.945
94.6761
105.947
117.469
128.96
139.543
148.648
156.315
162.717
167.919
171.948
174.8
176.441
176.905
176.269
174.629
172.101
168.809
164.873
160.414
155.547
150.379
145.009
139.527
134.01
128.528
123.137
117.884
112.807
107.935
103.287
98.8798
94.7198
90.8116
87.1541
83.7437
80.574
77.6373
74.9254
72.4305
70.1466
68.0697
66.2351
64.6601
63.3172
62.1779
61.2195
60.4226
59.7702
59.2459
58.832
58.505
58.2586
58.1053
58.0465
58.0743
58.1834
58.3711
58.6365
58.9821
59.4146
59.945
60.5865
61.3548
62.2603
63.3079
64.4982
65.8278
67.2829
68.8422
70.4804
72.1713
73.8903
75.6155
77.3288
79.0156
80.6652
82.2696
83.8234
85.3231
86.7665
88.1527
5562.19
1281.92
419.113
192.215
118.299
85.9975
68.518
57.6891
50.3688
45.1207
41.2006
38.1857
35.8182
33.9327
32.4187
31.201
30.2278
29.4644
28.8899
28.4951
28.2828
28.269
28.4861
28.9888
29.868
31.2436
33.2585
35.8658
38.8651
42.4303
46.7595
52.0409
58.3943
65.8711
74.4278
83.9195
94.0974
104.622
115.295
125.484
134.553
142.15
148.498
153.71
157.847
160.941
163.023
164.107
164.253
163.535
162.029
159.825
157.016
153.692
149.944
145.86
141.52
137.002
132.374
127.699
123.031
118.418
113.898
109.504
105.262
101.191
97.3067
93.6162
90.126
86.8398
83.7581
80.88
78.2022
75.7247
73.4968
71.5496
69.856
68.3864
67.1171
66.0282
65.1029
64.3263
63.6841
63.1624
62.7478
62.4217
62.1764
62.0148
61.9402
61.9576
62.0625
62.255
62.5401
62.9281
63.434
64.0755
64.8685
65.8193
66.9269
68.1844
69.577
71.0829
72.6752
74.3272
76.0134
77.7121
79.4051
81.0779
82.7196
84.3221
85.8797
87.3884
88.8457
90.2502
91.6011
5562.13
1276.62
419.93
193.984
119.925
87.2232
69.4535
58.4342
50.9891
45.6578
41.6808
38.6249
36.2252
34.3107
32.7661
31.5114
30.4895
29.6598
28.9934
28.4709
28.0813
27.8211
27.6955
27.7191
27.9193
28.34
29.0512
30.1592
31.7744
33.9499
36.5164
39.5086
43.0953
47.4666
52.7623
59.0666
66.3936
74.6627
83.7005
93.2129
102.92
112.552
121.394
128.953
135.263
140.467
144.649
147.88
150.216
151.713
152.403
152.345
151.605
150.246
148.336
145.947
143.151
140.015
136.605
132.984
129.21
125.337
121.411
117.476
113.569
109.721
105.958
102.301
98.7659
95.3665
92.1123
89.0102
86.0658
83.2868
80.7374
78.4638
76.4415
74.647
73.0592
71.6603
70.4353
69.3709
68.4554
67.6778
67.0276
66.4946
66.0695
65.7442
65.5093
65.355
65.2847
65.3032
65.4191
65.6461
66.0023
66.5089
67.1845
68.0373
69.0678
70.2635
71.6034
73.0648
74.6217
76.2457
77.9109
79.595
81.2796
82.95
84.5952
86.2067
87.7785
89.3063
90.7872
92.2193
93.6013
5562.07
1270.4
419.675
195.217
120.982
88.022
70.0733
58.9419
51.4287
46.0576
42.0584
38.9913
36.5866
34.6699
33.1229
31.8629
30.8303
29.9812
29.2832
28.7125
28.2519
27.8902
27.6216
27.4459
27.3692
27.405
27.5765
27.9198
28.4889
29.3714
30.6544
32.4362
34.6502
37.1847
40.1794
43.7963
48.1879
53.4508
59.633
66.7066
74.5608
82.9936
91.7108
100.535
108.935
116.403
122.639
127.813
132.022
135.346
137.863
139.631
140.708
141.137
140.965
140.25
139.048
137.409
135.39
133.046
130.43
127.592
124.579
121.435
118.199
114.908
111.592
108.28
104.996
101.759
98.5868
95.4923
92.488
89.5891
86.87
84.39
82.1367
80.0932
78.2448
76.579
75.085
73.7532
72.575
71.5425
70.6482
69.8846
69.2443
68.7198
68.304
67.9907
67.777
67.6642
67.6592
67.7748
68.0296
68.4438
69.0378
69.8245
70.8055
71.9674
73.283
74.7238
76.2659
77.8822
79.5454
81.2325
82.925
84.6081
86.2707
87.9043
89.5025
91.0609
92.5763
94.0462
95.4693
5562
1263.38
418.664
195.537
121.456
88.4417
70.4328
59.2634
51.7324
46.3576
42.3643
39.3087
36.9185
35.0172
33.4848
32.237
31.2127
30.3667
29.6646
29.0805
28.5946
28.1922
27.8631
27.6009
27.4033
27.272
27.2138
27.2411
27.3739
27.6424
28.0893
28.782
29.8089
31.2504
33.1303
35.3078
37.8384
40.8424
44.4735
48.8338
53.9838
59.9328
66.6182
73.9099
81.5706
89.3704
97.1046
104.242
110.404
115.544
119.784
123.201
125.865
127.847
129.205
129.99
130.254
130.03
129.367
128.311
126.908
125.198
123.223
121.024
118.639
116.103
113.448
110.703
107.896
105.048
102.182
99.315
96.464
93.6479
90.9454
88.4255
86.0881
83.9256
81.9314
80.0994
78.4247
76.9027
75.5289
74.2995
73.2103
72.2569
71.4344
70.7373
70.1603
69.699
69.3512
69.1189
69.01
69.0396
69.2288
69.6013
70.1774
70.9676
71.9705
73.1687
74.5239
76.0001
77.5716
79.2126
80.8986
82.6094
84.3283
86.0406
87.7355
89.4047
91.0419
92.6426
94.2034
95.722
97.1964
98.6254
5561.92
1255.98
417.045
195.251
121.543
88.611
70.6225
59.4666
51.9532
46.6011
42.6337
39.606
37.2439
35.3697
33.8625
32.637
31.6313
30.7991
30.1053
29.5229
29.031
28.6133
28.2579
27.9557
27.7011
27.491
27.3257
27.2083
27.1462
27.1509
27.2401
27.4394
27.7847
28.3272
29.1494
30.3092
31.8717
33.7704
35.9339
38.455
41.4598
45.0578
49.3083
54.2365
59.8122
65.9504
72.5059
79.2567
86.0639
92.6238
98.5844
103.658
107.897
111.386
114.182
116.343
117.925
118.985
119.567
119.712
119.463
118.849
117.909
116.681
115.199
113.492
111.592
109.527
107.325
105.009
102.603
100.126
97.5959
95.0354
92.5209
90.1253
87.8595
85.7248
83.7223
81.8528
80.1169
78.5153
77.0479
75.715
74.5161
73.4503
72.5152
71.708
71.0259
70.467
70.0314
69.7239
69.5558
69.546
69.7189
70.0999
70.7086
71.5489
72.6117
73.878
75.3129
76.8712
78.5144
80.2183
81.9624
83.7248
85.4897
87.2466
88.9876
90.7048
92.3925
94.0463
95.663
97.24
98.7754
100.268
5561.85
1248.41
414.761
194.68
121.442
88.6545
70.7269
59.6131
52.139
46.8262
42.8984
39.9095
37.5848
35.7454
34.2698
33.0724
32.0905
31.2774
30.5972
30.0226
29.5321
29.109
28.7404
28.4168
28.1308
27.878
27.6558
27.4638
27.304
27.1808
27.1016
27.0776
27.1244
27.2639
27.5265
27.9518
28.6029
29.5497
30.8412
32.485
34.3624
36.5147
39.0169
41.9825
45.4699
49.5056
54.0823
59.1451
64.6038
70.3044
76.0709
81.8297
87.2896
92.2197
96.4146
99.9209
102.801
105.102
106.867
108.139
108.962
109.381
109.427
109.137
108.542
107.669
106.547
105.203
103.666
101.959
100.102
98.1167
96.0236
93.8456
91.6527
89.517
87.4579
85.4844
83.604
81.823
80.1472
78.582
77.1305
75.7965
74.5831
73.4926
72.5266
71.6843
70.9658
70.3722
69.9075
69.5807
69.4083
69.4141
69.6264
70.0711
70.7647
71.7022
72.8661
74.2324
75.7647
77.4174
79.149
80.9327
82.7497
84.5812
86.4123
88.2317
90.031
91.8065
93.5542
95.2704
96.9519
98.5964
100.202
101.767
5561.77
1241
411.702
193.991
121.317
88.6761
70.8148
59.7527
52.3278
47.0639
43.1838
40.2407
37.9591
36.1592
34.7187
33.5521
32.5967
31.8047
31.14
30.5747
30.0876
29.6619
29.2846
28.9457
28.638
28.3563
28.0973
27.8594
27.6424
27.448
27.2791
27.141
27.0409
26.9892
26.9998
27.0914
27.2895
27.627
28.1496
28.932
30.0022
31.3982
33.0576
34.921
37.0356
39.486
42.343
45.6276
49.3416
53.453
57.8991
62.5998
67.4177
72.217
76.9515
81.4114
85.4398
88.9067
91.7948
94.1593
96.0384
97.4623
98.4652
99.0821
99.346
99.2901
98.9429
98.3316
97.4824
96.4191
95.1619
93.734
92.157
90.4537
88.6825
86.9115
85.1667
83.4632
81.8136
80.2288
78.7184
77.2907
75.9536
74.7134
73.5745
72.5422
71.6212
70.8147
70.1256
69.5586
69.1222
68.8315
68.709
68.7844
69.0889
69.6478
70.4697
71.5418
72.8382
74.3267
75.9665
77.7164
79.5404
81.4108
83.3065
85.2112
87.1126
89.0011
90.8696
92.7127
94.5276
96.3132
98.0669
99.7866
101.47
103.116
5561.69
1233.71
408.252
193.079
121.05
88.6137
70.8567
59.8718
52.5145
47.3126
43.4905
40.6013
38.3691
36.6143
35.2142
34.0821
33.1546
32.3841
31.7347
31.178
30.6937
30.2652
29.8793
29.5263
29.1994
28.8935
28.6053
28.3328
28.0756
27.8338
27.609
27.4036
27.2215
27.0679
26.9498
26.8766
26.8607
26.9181
27.0701
27.3445
27.7746
28.4161
29.3194
30.5004
31.9594
33.5951
35.4219
37.4678
39.8108
42.4809
45.4774
48.7864
52.3646
56.1511
60.0793
64.0426
67.9365
71.7122
75.2723
78.4994
81.3238
83.6675
85.5687
87.0637
88.1795
88.9383
89.3673
89.4941
89.3449
88.9452
88.3212
87.4947
86.4875
85.3219
84.0462
82.7205
81.3751
80.0271
78.6942
77.3911
76.1305
74.9232
73.7793
72.7078
71.7164
70.812
70.0012
69.2903
68.6862
68.1982
67.8404
67.6345
67.6102
67.8023
68.2437
68.9563
69.937
71.1641
72.6072
74.2271
75.9817
77.8324
79.7465
81.6987
83.6697
85.6455
87.6156
89.5726
91.5106
93.4254
95.3137
97.1734
99.0044
100.805
102.573
104.308
5561.6
1226.74
404.54
192.007
120.686
88.4992
70.8773
59.9906
52.7155
47.5865
43.83
41.0002
38.8216
37.1143
35.7556
34.6585
33.7593
33.0108
32.3767
31.8294
31.3477
30.9152
30.5196
30.1513
29.805
29.4758
29.1606
28.8578
28.5669
28.2879
28.0218
27.7699
27.5346
27.3187
27.1262
26.962
26.8328
26.747
26.7153
26.7514
26.8728
27.1022
27.4669
28.0025
28.773
29.7776
31.031
32.4902
34.0853
35.835
37.7701
39.945
42.3623
45.0096
47.8655
50.8865
54.0178
57.2055
60.3794
63.4594
66.3836
69.1447
71.6566
73.8667
75.7455
77.2485
78.4113
79.2618
79.8197
80.104
80.1376
79.9418
79.5377
78.9489
78.2163
77.3876
76.4952
75.5621
74.6094
73.6521
72.7038
71.778
70.8867
70.0411
69.2511
68.5258
67.8741
67.3051
66.8298
66.4624
66.2238
66.143
66.2566
66.6033
67.2153
68.1051
69.26
70.6506
72.2414
73.9897
75.8544
77.7995
79.7962
81.8224
83.8621
85.9034
87.9382
89.9603
91.9655
93.9505
95.9126
97.8498
99.7602
101.644
103.5
105.327
5561.52
1220.24
400.734
190.848
120.268
88.3619
70.8975
60.125
52.9432
47.8948
44.2097
41.4433
39.3209
37.6629
36.3464
35.2844
34.4132
33.6854
33.065
32.5246
32.0432
31.6052
31.1988
30.8156
30.4497
30.0972
29.7552
29.4231
29.1012
28.7893
28.4881
28.199
27.9235
27.6635
27.4213
27.2001
27.0034
26.836
26.7039
26.6144
26.5768
26.6028
26.7067
26.9069
27.2266
27.6889
28.335
29.2064
30.2791
31.5551
32.9675
34.4918
36.126
37.9031
39.8568
41.9764
44.2432
46.6358
49.1178
51.6424
54.1644
56.6465
59.0356
61.2835
63.3589
65.2713
66.9713
68.4311
69.622
70.5368
71.2021
71.6305
71.8393
71.847
71.6781
71.3683
70.9523
70.462
69.9191
69.3418
68.7455
68.1401
67.5396
66.957
66.4041
65.8922
65.4324
65.0372
64.7215
64.5054
64.4167
64.4918
64.7727
65.3001
66.1028
67.1808
68.5096
70.0585
71.7865
73.6508
75.6125
77.6397
79.7075
81.7977
83.8972
85.9968
88.0901
90.1729
92.2418
94.2945
96.3292
98.3439
100.337
102.308
104.255
106.179
5561.43
1214.34
396.952
189.652
119.828
88.2237
70.9333
60.2861
53.2054
48.2431
44.6331
41.9328
39.8682
38.2603
36.9863
35.9591
35.1152
34.407
33.7987
33.2632
32.7802
32.3345
31.9152
31.5145
31.1275
30.751
30.3832
30.0237
29.6723
29.3293
28.9956
28.6736
28.364
28.0681
27.788
27.5255
27.2829
27.0631
26.8695
26.7065
26.5791
26.4939
26.4588
26.4837
26.5803
26.7629
27.0495
27.4603
28.015
28.7582
29.6879
30.7788
32.0226
33.3536
34.7678
36.2541
37.8356
39.5389
41.3518
43.2492
45.2087
47.2049
49.204
51.172
53.082
54.9161
56.6459
58.2502
59.7312
61.0815
62.2573
63.2122
63.9627
64.5188
64.8868
65.0858
65.147
65.0991
64.9662
64.7714
64.5339
64.2646
63.9715
63.6692
63.3712
63.0907
62.8413
62.6383
62.5014
62.4567
62.5388
62.7906
63.2583
63.9825
64.9796
66.2394
67.7325
69.4238
71.2707
73.2322
75.2734
77.3668
79.4917
81.6336
83.7823
85.9311
88.0757
90.213
92.341
94.4581
96.5631
98.6546
100.731
102.791
104.834
106.859
5561.35
1209.17
393.32
188.474
119.396
88.1037
70.9965
60.4813
53.5064
48.6333
45.1005
42.4676
40.4618
38.9043
37.6727
36.6799
35.8623
35.1726
34.5751
34.0432
33.557
33.1021
32.6682
32.2487
31.8392
31.4375
31.0427
30.6547
30.2741
29.9018
29.5389
29.1866
28.846
28.5176
28.2051
27.909
27.6307
27.3724
27.1362
26.9247
26.741
26.5888
26.4727
26.3982
26.372
26.4021
26.4982
26.6716
26.9355
27.3068
27.7984
28.4256
29.2276
30.1695
31.2245
32.3848
33.6046
34.883
36.2203
37.6041
39.0579
40.575
42.131
43.7072
45.2896
46.864
48.4102
49.9132
51.3659
52.761
54.0932
55.3701
56.5066
57.484
58.2922
58.9305
59.4195
59.7822
60.0391
60.2097
60.3134
60.369
60.3779
60.3545
60.3129
60.2674
60.2336
60.2301
60.2811
60.4184
60.6831
61.1228
61.7854
62.7079
63.8947
65.3193
66.9565
68.767
70.7093
72.7461
74.8469
76.9888
79.1554
81.3355
83.5219
85.71
87.8972
90.082
92.2632
94.4403
96.6123
98.7786
100.938
103.089
105.229
107.359
5561.26
1204.9
389.923
187.348
118.991
88.0119
71.0923
60.7128
53.8461
49.0639
45.6093
43.0444
41.0975
39.5905
38.401
37.4421
36.6503
35.9784
35.391
34.8618
34.3716
33.9065
33.4573
33.018
32.5854
32.1578
31.7353
31.3184
30.9082
30.5061
30.1134
29.7315
29.3617
29.0053
28.6636
28.3376
28.028
27.7379
27.4683
27.2207
26.997
26.7997
26.6314
26.4952
26.3951
26.3357
26.3226
26.3621
26.462
26.6313
26.8794
27.2176
27.6601
28.2104
28.8744
29.6781
30.5831
31.5551
32.6001
33.7035
34.8458
36.0299
37.2269
38.442
39.6882
40.9612
42.2414
43.5255
44.8122
46.0972
47.3785
48.6611
49.955
51.1743
52.2755
53.2369
54.0636
54.7678
55.3618
55.8589
56.2736
56.6215
56.9097
57.1488
57.3518
57.5332
57.7101
57.9041
58.1436
58.4657
58.9167
59.5479
60.4074
61.5171
62.8693
64.4383
66.1939
68.0972
70.1096
72.1986
74.3386
76.5111
78.7036
80.9081
83.12
85.3368
87.5573
89.7814
92.009
94.2402
96.4749
98.7125
100.952
103.193
105.432
107.668
5561.17
1201.61
386.831
186.3
118.626
87.9547
71.2228
60.9797
54.2218
49.5308
46.1546
43.6577
41.7696
40.3128
39.1653
38.2402
37.474
36.8197
36.2423
35.7157
35.2214
34.7462
34.2816
33.8225
33.3666
32.9131
32.4627
32.0167
31.5767
31.1444
30.7216
30.31
29.9108
29.5256
29.1556
28.8018
28.4653
28.1474
27.849
27.5709
27.3154
27.084
26.878
26.6993
26.5503
26.4337
26.3525
26.3106
26.3124
26.3631
26.4684
26.635
26.8704
27.1808
27.5729
28.0544
28.6188
29.2601
29.9909
30.813
31.686
32.611
33.5927
34.6064
35.6441
36.699
37.7375
38.7927
39.8773
40.9893
42.1312
43.3138
44.5475
45.8362
47.0761
48.2294
49.2845
50.2403
51.0981
51.8626
52.5403
53.138
53.6723
54.1476
54.5742
54.9661
55.3415
55.7241
56.146
56.649
57.2833
58.1013
59.1461
60.4266
61.9183
63.6032
65.4485
67.4169
69.4743
71.593
73.7522
75.9379
78.1409
80.3562
82.5813
84.8156
87.0595
89.314
91.58
93.8584
96.1497
98.4538
100.77
103.098
105.434
107.778
5561.08
1199.44
384.116
185.36
118.314
87.9363
71.3876
61.2791
54.6289
50.0283
46.7299
44.3005
42.4709
41.0641
39.9585
39.0673
38.3273
37.6913
37.1246
36.6016
36.104
35.6196
35.1404
34.6623
34.1836
33.7046
33.2266
32.7516
32.2816
31.819
31.3658
30.9239
30.495
30.0805
29.6818
29.3001
28.9364
28.5917
28.2669
27.9627
27.6804
27.4206
27.1842
26.9726
26.7878
26.6308
26.5033
26.4077
26.3464
26.3223
26.3386
26.3993
26.5084
26.6701
26.8884
27.1665
27.5035
27.8992
28.3577
28.8795
29.4577
30.097
30.825
31.6178
32.4481
33.32
34.2375
35.1732
36.1314
37.1009
38.097
39.1515
40.282
41.5033
42.7641
43.997
45.1783
46.2955
47.339
48.3027
49.1847
49.9871
50.7297
51.4098
52.0341
52.6155
53.1719
53.7293
54.3229
54.9983
55.808
56.8055
58.0161
59.4345
61.0402
62.8121
64.7182
66.7252
68.8038
70.9312
73.0913
75.2737
77.4726
79.6853
81.9114
84.1521
86.4089
88.6841
90.9795
93.2969
95.6374
98.0016
100.389
102.799
105.23
107.679
5560.99
1198.53
381.844
184.548
118.061
87.9568
71.5834
61.6055
55.0606
50.5489
47.3272
44.9645
43.1929
41.836
40.7727
39.9162
39.2033
38.5872
38.0331
37.5156
37.017
36.5252
36.0332
35.5375
35.0374
34.5339
34.0289
33.5252
33.0255
32.5324
32.0484
31.5757
31.1163
30.6718
30.2438
29.8334
29.4418
29.0701
28.7189
28.3891
28.0812
27.796
27.5339
27.2956
27.082
26.8936
26.7312
26.5969
26.4915
26.4164
26.3735
26.3648
26.3924
26.4585
26.5651
26.7135
26.9042
27.1376
27.4152
27.7375
28.1043
28.5187
28.9888
29.511
30.0795
30.7067
31.4333
32.2118
33.0344
33.9128
34.8446
35.8331
36.8909
38.0257
39.2519
40.4955
41.7295
42.9341
44.0955
45.1907
46.2207
47.1946
48.1106
48.9644
49.7592
50.5063
51.2238
51.9393
52.6908
53.526
54.4981
55.6568
57.0125
58.5387
60.2285
62.0584
63.9985
66.0197
68.0979
70.2152
72.3594
74.5237
76.7047
78.9022
81.1175
83.3532
85.6122
87.8977
90.2128
92.5599
94.941
97.3573
99.8091
102.296
104.816
107.367
109.946
5560.9
1198.97
380.049
183.872
117.866
88.0114
71.8034
61.9509
55.5084
51.0836
47.9372
45.6404
43.9263
42.6195
41.599
40.7785
40.0949
39.5012
38.9626
38.4539
37.9573
37.4613
36.9593
36.4485
35.929
35.4025
34.8717
34.34
33.8108
33.2872
32.772
32.2679
31.7772
31.3017
30.8432
30.4031
29.9828
29.5831
29.2049
28.849
28.5157
28.2056
27.919
27.6561
27.4173
27.2027
27.0129
26.8482
26.7092
26.5963
26.5109
26.4536
26.4253
26.4268
26.459
26.5222
26.6168
26.7427
26.9006
27.0905
27.3129
27.5695
27.8634
28.1953
28.5663
28.984
29.4644
30.0026
30.6062
31.3088
32.1111
32.999
33.9887
35.0964
36.3067
37.5524
38.8092
40.059
41.2901
42.4892
43.6452
44.7598
45.8192
46.8172
47.7563
48.645
49.5028
50.3586
51.2524
52.2339
53.3574
54.6536
56.1177
57.7266
59.4728
61.3338
63.2835
65.2976
67.3567
69.4472
71.5608
73.6934
75.8442
78.0147
80.2078
82.4275
84.6778
86.9632
89.2874
91.6541
94.066
96.5251
99.0324
101.588
104.191
106.838
109.527
5560.81
1200.76
378.711
183.321
117.719
88.0902
72.037
62.3047
55.9617
51.6222
48.55
46.3183
44.6613
43.4046
42.428
41.6454
40.9939
40.4263
39.9075
39.412
38.922
38.426
37.9179
37.3955
36.8594
36.3121
35.7572
35.1987
34.6405
34.0864
33.5397
33.0035
32.4804
31.9728
31.4825
31.0114
30.5609
30.132
29.7257
29.3427
28.9834
28.6481
28.337
28.0501
27.7874
27.5488
27.3344
27.1439
26.9775
26.8351
26.7169
26.6231
26.5536
26.5086
26.4883
26.4923
26.5205
26.5726
26.6484
26.7477
26.8706
27.018
27.1913
27.3916
27.6213
27.8858
28.1934
28.549
28.9638
29.4582
30.0474
30.7448
31.5819
32.5957
33.7584
35.0018
36.2852
37.5882
38.8873
40.1777
41.4427
42.6698
43.8449
44.9603
46.0173
47.0249
48.0025
48.9803
49.9999
51.1112
52.3677
53.7793
55.3208
56.9849
58.7612
60.6294
62.5676
64.5561
66.5801
68.6298
70.7001
72.7894
74.8988
77.0315
79.1919
81.385
83.6161
85.8904
88.2131
90.5886
93.0205
95.512
98.0648
100.68
103.357
106.094
108.887
5560.72
1203.8
377.829
182.891
117.614
88.1824
72.2724
62.6549
56.4088
52.1533
49.1547
46.9876
45.3876
44.1814
43.2498
42.5076
41.8918
41.3549
40.8613
40.3847
39.9071
39.4167
38.9077
38.3781
37.8292
37.2643
36.6877
36.1039
35.5177
34.9334
34.355
33.7859
33.2294
32.6883
32.1648
31.661
31.1786
30.7189
30.283
29.8715
29.4849
29.1235
28.7873
28.476
28.1896
27.9277
27.6899
27.4758
27.285
27.1171
26.9717
26.8484
26.7467
26.6662
26.6064
26.5666
26.5462
26.5447
26.5615
26.596
26.648
26.7177
26.8057
26.9133
27.0425
27.1973
27.3836
27.6081
27.8814
28.2196
28.6407
29.167
29.8321
30.6752
31.7096
32.8981
34.1824
35.522
36.8825
38.2437
39.5882
40.901
42.1653
43.374
44.5256
45.6305
46.7083
47.7902
48.9183
50.1428
51.5092
53.0088
54.6033
56.2978
58.0811
59.9361
61.845
63.7927
65.7684
67.7657
69.7821
71.8181
73.8766
75.9621
78.0802
80.2369
82.4386
84.6916
87.0018
89.3749
91.8157
94.3282
96.9154
99.5792
102.32
105.137
108.028
5560.63
1208.11
377.447
182.59
117.543
88.277
72.4964
62.9875
56.8361
52.6643
49.7398
47.6377
46.0947
44.9393
44.0544
43.3555