/*--------------------------------*- C++ -*----------------------------------*\
  =========                 |
  \\      /  F ield         | OpenFOAM: The Open Source CFD Toolbox
   \\    /   O peration     | Website:  https://openfoam.org
    \\  /    A nd           | Version:  10
     \\/     M anipulation  |
\*---------------------------------------------------------------------------*/
FoamFile
{
    format      ascii;
    class       volVectorField;
    location    "60000";
    object      U;
}
// * * * * * * * * * * * * * * * * * * * * * * * * * * * * * * * * * * * * * //

dimensions      [0 1 -1 0 0 0 0];

internalField   nonuniform List<vector> 
17969
(
(0.107382 1.52956 0)
(-0.0410117 1.57336 0)
(-0.0217643 1.59296 -4.81112e-18)
(-0.0198773 1.61448 5.93977e-18)
(-0.0175383 1.63851 -2.20612e-18)
(-0.012615 1.66738 -1.95152e-18)
(-0.00413723 1.70402 1.72847e-18)
(0.00910651 1.75329 0)
(0.0284515 1.81868 9.13844e-20)
(0.0531839 1.89757 0)
(0.0818913 1.98368 0)
(0.112731 2.0702 0)
(0.143617 2.15136 0)
(0.172814 2.22333 -6.40158e-19)
(0.199185 2.28445 5.86658e-19)
(0.221663 2.33408 0)
(0.240275 2.37357 -4.32226e-19)
(0.255451 2.40493 3.97119e-19)
(0.267497 2.42986 -3.63319e-19)
(0.276901 2.45005 3.35477e-19)
(0.284286 2.46675 0)
(0.290125 2.48094 0)
(0.294806 2.49334 -3.24987e-20)
(0.298644 2.50451 0)
(0.301876 2.51483 0)
(0.304674 2.52456 2.0144e-19)
(0.307164 2.53385 -3.73305e-19)
(0.309428 2.54281 1.73556e-19)
(0.311517 2.55153 1.6055e-19)
(0.313466 2.56005 -1.97706e-20)
(0.315293 2.56841 -1.76746e-19)
(0.317012 2.57664 0)
(0.318629 2.58478 1.24727e-19)
(0.320147 2.59283 -2.66685e-19)
(0.321567 2.60082 8.41217e-22)
(0.322889 2.60876 2.142e-19)
(0.324112 2.61667 -1.02605e-19)
(0.325233 2.62457 -1.21799e-19)
(0.32625 2.63245 7.05615e-20)
(0.327159 2.64035 0)
(0.327957 2.64827 2.1646e-20)
(0.328639 2.65621 2.08348e-20)
(0.329202 2.6642 1.59364e-19)
(0.329641 2.67224 -1.55345e-19)
(0.329952 2.68035 -1.48387e-19)
(0.330129 2.68853 -3.44979e-20)
(0.330169 2.6968 1.40309e-19)
(0.330066 2.70516 1.34139e-19)
(0.329816 2.71363 -1.70693e-21)
(0.329413 2.72222 -1.2751e-19)
(0.328852 2.73093 -1.52677e-19)
(0.328128 2.73979 1.49777e-19)
(0.327235 2.74879 0)
(0.326168 2.75794 0)
(0.32492 2.76726 2.72719e-20)
(0.323485 2.77676 1.57468e-19)
(0.321857 2.78644 -1.0332e-19)
(0.32003 2.79632 0)
(0.317995 2.8064 0)
(0.315746 2.81668 4.5559e-20)
(0.313275 2.82719 -9.17891e-20)
(0.310574 2.83792 0)
(0.307636 2.84889 0)
(0.304452 2.86009 -4.15489e-20)
(0.301014 2.87154 -7.89838e-20)
(0.297313 2.88324 4.13248e-20)
(0.293342 2.8952 7.62665e-20)
(0.289093 2.90743 0)
(0.284556 2.91992 0)
(0.279726 2.93269 0)
(0.274594 2.94574 6.38591e-20)
(0.269154 2.95907 -4.59323e-21)
(0.263399 2.97269 -1.23639e-19)
(0.257325 2.98661 0)
(0.251016 3.00063 5.49603e-20)
(0.244664 3.01437 5.162e-20)
(0.238371 3.02766 -4.80827e-20)
(0.232143 3.04053 0)
(0.226008 3.053 0)
(0.219957 3.06504 0)
(0.213986 3.0766 0)
(0.208119 3.08771 0)
(0.202359 3.0984 5.88104e-20)
(0.196703 3.10871 -9.83144e-20)
(0.191149 3.11863 6.67211e-20)
(0.185693 3.1282 -1.1912e-20)
(0.180335 3.13743 0)
(0.175085 3.14639 0)
(0.169976 3.15518 0)
(0.165043 3.16397 -2.05026e-20)
(0.160307 3.17284 2.71737e-20)
(0.155705 3.1817 2.09413e-20)
(0.151188 3.19042 -2.06841e-20)
(0.146749 3.19898 1.51422e-20)
(0.142384 3.20738 -2.9155e-20)
(0.138091 3.21561 1.08745e-20)
(0.133866 3.22366 0)
(0.129708 3.23152 -5.18412e-21)
(0.125615 3.23916 5.10075e-21)
(0.121587 3.24657 2.70945e-22)
(0.081243 1.53767 0)
(-0.0814273 1.58307 -2.2768e-17)
(-0.058618 1.59163 1.28007e-17)
(-0.0580106 1.60397 2.3241e-19)
(-0.0573997 1.61862 1.02559e-17)
(-0.0556116 1.63592 -1.65627e-17)
(-0.0523388 1.65713 7.42727e-18)
(-0.0468947 1.68363 6.85353e-18)
(-0.0386629 1.71649 -6.3413e-18)
(-0.0267057 1.75833 -5.98735e-18)
(-0.00994995 1.8121 1.149e-20)
(0.0116974 1.87786 4.70756e-18)
(0.037465 1.95259 0)
(0.0661214 2.03163 0)
(0.0961126 2.11017 -3.02854e-18)
(0.125717 2.18396 2.66053e-18)
(0.153538 2.2499 0)
(0.178623 2.30653 -1.9443e-18)
(0.200059 2.35319 1.78007e-18)
(0.217929 2.39102 0)
(0.232681 2.42162 -1.44643e-18)
(0.244477 2.44635 1.26203e-18)
(0.25379 2.46661 3.88541e-20)
(0.261152 2.48348 0)
(0.266987 2.49784 1.06713e-18)
(0.271649 2.51038 -6.72663e-20)
(0.275463 2.52164 -1.83422e-18)
(0.278586 2.53203 8.51857e-19)
(0.281274 2.54181 -4.93426e-20)
(0.283608 2.55118 7.52386e-19)
(0.285683 2.56025 -6.4113e-19)
(0.287558 2.5691 0)
(0.289268 2.57779 5.19227e-19)
(0.290837 2.58635 -4.5672e-19)
(0.292277 2.59483 0)
(0.293596 2.60323 6.24487e-20)
(0.2948 2.61159 -5.917e-20)
(0.295889 2.61992 -4.18648e-19)
(0.296864 2.62823 8.80618e-19)
(0.297722 2.63655 -5.4718e-20)
(0.298462 2.64488 -4.15648e-19)
(0.299079 2.65323 -4.41338e-19)
(0.299569 2.66162 7.15893e-19)
(0.299928 2.67007 -7.74023e-19)
(0.300151 2.67857 6.61648e-19)
(0.300231 2.68715 -2.80721e-19)
(0.300164 2.69581 3.05358e-19)
(0.299943 2.70457 -6.67196e-19)
(0.299564 2.71343 5.72544e-19)
(0.29902 2.72241 -5.53328e-19)
(0.298305 2.73151 2.35636e-19)
(0.297412 2.74075 -3.22493e-20)
(0.296335 2.75014 0)
(0.295067 2.75968 0)
(0.293601 2.76939 -2.9272e-20)
(0.29193 2.77927 -5.67149e-20)
(0.290045 2.78934 2.18594e-19)
(0.287939 2.79961 -3.23261e-19)
(0.285603 2.81007 -4.10194e-19)
(0.283028 2.82075 5.86408e-20)
(0.280205 2.83165 3.93568e-19)
(0.277125 2.84278 4.67208e-19)
(0.273778 2.85414 -4.61501e-19)
(0.270154 2.86575 4.39956e-20)
(0.266242 2.87761 0)
(0.262033 2.88972 4.20104e-20)
(0.257515 2.90209 3.14954e-19)
(0.252679 2.91473 -3.14448e-19)
(0.247513 2.92763 -1.50105e-19)
(0.242009 2.94082 -1.37548e-19)
(0.236157 2.95428 2.83135e-19)
(0.229947 2.96802 2.00657e-19)
(0.223371 2.98205 2.50366e-19)
(0.216422 2.99637 -2.51357e-19)
(0.209197 3.01079 -5.76724e-20)
(0.201912 3.0249 -5.42068e-20)
(0.194687 3.03855 5.0619e-20)
(0.187531 3.05177 9.49701e-20)
(0.180473 3.06457 2.57662e-19)
(0.173503 3.07692 -1.0422e-20)
(0.166621 3.08879 -1.57835e-19)
(0.159852 3.10019 -3.58795e-20)
(0.153197 3.11116 0)
(0.146657 3.12173 1.56534e-20)
(0.140234 3.13193 -1.38729e-20)
(0.133925 3.14178 1.26873e-20)
(0.127726 3.1513 0)
(0.121635 3.1605 0)
(0.115657 3.16945 -1.42916e-19)
(0.109815 3.17823 5.72232e-21)
(0.104141 3.18702 1.20695e-19)
(0.0986733 3.19594 0)
(0.0933591 3.2049 0)
(0.0881341 3.21374 6.6356e-20)
(0.083 3.22242 -1.18519e-19)
(0.0779516 3.23094 5.87688e-20)
(0.0729875 3.23928 0)
(0.068107 3.24743 0)
(0.0633097 3.25537 -1.32355e-20)
(0.0585953 3.26308 7.50195e-21)
(0.051884 1.54297 4.17999e-17)
(-0.119322 1.58969 -5.49746e-17)
(-0.0935489 1.59228 7.01411e-17)
(-0.0933916 1.59892 -2.09045e-17)
(-0.0935882 1.60822 4.04402e-19)
(-0.0931156 1.61939 0)
(-0.0919158 1.63285 2.6492e-19)
(-0.0897849 1.64951 0)
(-0.086427 1.67011 0)
(-0.0813523 1.69508 4.08089e-19)
(-0.0739451 1.72495 1.82455e-19)
(-0.0636422 1.76119 0)
(-0.0495718 1.80617 0)
(-0.0310638 1.86163 2.79454e-19)
(-0.00844553 1.9267 -3.95681e-18)
(0.0175871 1.99856 3.13746e-18)
(0.0458953 2.07325 -2.80629e-18)
(0.0750838 2.14675 2.60955e-18)
(0.103648 2.21548 -7.09397e-20)
(0.130392 2.27679 -2.11642e-18)
(0.154513 2.32952 1.65176e-18)
(0.175258 2.37338 1.96686e-19)
(0.192743 2.40942 9.05196e-20)
(0.207376 2.43893 0)
(0.219164 2.46309 0)
(0.228692 2.48313 1.24029e-18)
(0.23627 2.5 -9.58187e-19)
(0.242328 2.51447 -1.27609e-19)
(0.247179 2.52718 -7.68505e-19)
(0.251095 2.53865 8.87456e-19)
(0.254299 2.54926 0)
(0.256965 2.55929 0)
(0.259225 2.5689 8.95177e-20)
(0.261173 2.57824 1.25387e-18)
(0.262877 2.58738 -2.51492e-18)
(0.264379 2.59638 1.11152e-18)
(0.265707 2.60527 6.92769e-20)
(0.26688 2.61411 -1.31423e-19)
(0.267907 2.6229 1.24314e-19)
(0.268795 2.63167 5.86087e-20)
(0.269544 2.64044 0)
(0.270155 2.64923 5.30317e-20)
(0.270625 2.65805 1.018e-19)
(0.270949 2.66691 -6.7536e-19)
(0.271125 2.67584 8.01923e-21)
(0.271145 2.68483 8.05992e-19)
(0.271005 2.69391 0)
(0.270699 2.70307 -5.46147e-22)
(0.27022 2.71234 -1.58849e-19)
(0.269562 2.72173 0)
(0.268718 2.73123 7.32637e-20)
(0.267682 2.74088 -5.63363e-19)
(0.266445 2.75067 5.5209e-19)
(0.265001 2.76061 0)
(0.263342 2.77072 1.28422e-19)
(0.261458 2.78101 0)
(0.259341 2.79149 -1.20117e-19)
(0.256981 2.80216 -4.59336e-19)
(0.254369 2.81304 4.52307e-19)
(0.251495 2.82413 1.0882e-19)
(0.248347 2.83545 0)
(0.244915 2.84699 -5.01742e-19)
(0.241187 2.85878 1.07952e-18)
(0.23715 2.87082 -1.00205e-20)
(0.232792 2.88311 -1.9467e-19)
(0.228101 2.89565 -9.87019e-20)
(0.223064 2.90846 -6.84916e-19)
(0.217667 2.92155 1.10916e-20)
(0.211899 2.9349 6.43586e-19)
(0.205746 2.94853 1.82953e-21)
(0.199197 2.96244 0)
(0.192238 2.97663 4.15315e-19)
(0.18486 2.9911 1.11652e-19)
(0.177051 3.00587 -5.35659e-19)
(0.168921 3.02072 0)
(0.160711 3.03524 0)
(0.152557 3.04928 -1.09911e-19)
(0.144474 3.06286 2.92272e-19)
(0.136491 3.07603 -8.45711e-19)
(0.128596 3.08873 7.04883e-19)
(0.120794 3.10093 -4.24204e-19)
(0.11311 3.11265 -2.59411e-19)
(0.105545 3.12393 2.96431e-19)
(0.0981011 3.1348 -2.87992e-19)
(0.0907811 3.14528 4.88052e-19)
(0.0835865 3.15542 -2.32663e-19)
(0.0765158 3.16523 1.95012e-19)
(0.069565 3.17474 -3.68845e-19)
(0.0627299 3.18397 1.59838e-20)
(0.0560123 3.19297 1.5199e-20)
(0.0494262 3.20181 1.51706e-19)
(0.0430009 3.21067 0)
(0.0367747 3.21968 8.71051e-20)
(0.030713 3.22876 -1.58146e-19)
(0.0247531 3.23773 2.89584e-21)
(0.0188946 3.24654 7.55999e-21)
(0.0131413 3.25517 4.87208e-21)
(0.00749135 3.26361 5.76199e-21)
(0.00194437 3.27183 2.25728e-20)
(-0.00349957 3.27984 7.18732e-22)
(0.0195638 1.54571 -1.33716e-18)
(-0.155416 1.59153 -1.18601e-16)
(-0.127999 1.59235 1.11373e-19)
(-0.128154 1.59616 1.64199e-18)
(-0.128852 1.60283 3.13064e-17)
(-0.129169 1.61082 2.28239e-17)
(-0.129136 1.62013 -3.32224e-19)
(-0.128653 1.63119 -1.74975e-17)
(-0.127528 1.64465 0)
(-0.125537 1.66106 1.4788e-17)
(-0.122455 1.68089 -1.35884e-17)
(-0.11796 1.70447 0)
(-0.111523 1.73211 0)
(-0.102725 1.76465 -3.1515e-19)
(-0.0909278 1.80378 2.90394e-19)
(-0.0753038 1.85149 2.6723e-19)
(-0.0556382 1.90829 7.49432e-18)
(-0.0323017 1.97287 -6.88936e-18)
(-0.00599266 2.04235 0)
(0.0221637 2.11316 1.65002e-19)
(0.0508711 2.18186 5.06467e-18)
(0.0788076 2.24558 -8.30254e-18)
(0.104932 2.30229 3.51496e-18)
(0.12858 2.3512 2.01731e-19)
(0.149006 2.39233 2.90601e-18)
(0.166442 2.42661 -2.70164e-18)
(0.18113 2.45511 -2.67049e-18)
(0.193179 2.47887 2.66269e-18)
(0.202937 2.49889 6.42241e-22)
(0.21079 2.51599 -2.07087e-18)
(0.217078 2.53082 1.95351e-18)
(0.222102 2.54396 0)
(0.226123 2.55586 0)
(0.229364 2.5669 -1.59636e-18)
(0.232005 2.57733 1.69452e-18)
(0.234186 2.58735 -1.40204e-18)
(0.236008 2.59708 1.32589e-18)
(0.237544 2.60662 -1.08149e-18)
(0.238842 2.61604 -1.35856e-19)
(0.239932 2.62539 9.60862e-21)
(0.240833 2.63469 2.08267e-18)
(0.241555 2.64398 -1.97213e-18)
(0.242103 2.65329 8.2362e-19)
(0.242477 2.66262 0)
(0.242678 2.67201 0)
(0.242701 2.68146 -1.00736e-19)
(0.242542 2.69098 -7.68215e-19)
(0.242198 2.70058 6.50642e-19)
(0.241662 2.71029 -5.27813e-19)
(0.240928 2.72011 8.55495e-19)
(0.239991 2.73004 8.13146e-19)
(0.238844 2.74011 -7.90847e-19)
(0.237479 2.75033 0)
(0.235889 2.7607 -4.31938e-19)
(0.234065 2.77123 5.67586e-19)
(0.231997 2.78195 0)
(0.229677 2.79285 1.30175e-19)
(0.227093 2.80395 1.25647e-19)
(0.224235 2.81526 -2.44841e-19)
(0.22109 2.82678 -1.17153e-19)
(0.217647 2.83854 2.2848e-19)
(0.213892 2.85053 8.68196e-19)
(0.209813 2.86277 -1.07013e-18)
(0.205393 2.87526 8.0885e-19)
(0.20062 2.88801 -1.18698e-18)
(0.195478 2.90102 7.75134e-19)
(0.189951 2.9143 -9.11006e-19)
(0.184024 2.92786 9.01527e-19)
(0.177681 2.94169 -1.70304e-19)
(0.170906 2.95581 -8.11422e-19)
(0.163683 2.9702 6.4793e-19)
(0.155998 2.98488 0)
(0.147835 2.99984 -1.45551e-19)
(0.139181 3.01509 0)
(0.130154 3.03041 0)
(0.121024 3.04539 0)
(0.111942 3.05984 5.71836e-19)
(0.102928 3.07383 -4.49388e-19)
(0.0940133 3.08739 -2.04967e-19)
(0.0851893 3.10048 -1.92484e-19)
(0.0764525 3.11305 8.8755e-20)
(0.0678355 3.12512 -8.45624e-20)
(0.0593398 3.13675 -3.01092e-19)
(0.0509665 3.14795 2.99936e-19)
(0.0427196 3.15876 2.56897e-19)
(0.0346021 3.16921 -1.96507e-20)
(0.026615 3.17933 -6.61876e-19)
(0.0187576 3.18916 3.62697e-20)
(0.0110271 3.19871 3.82396e-19)
(0.00341957 3.20802 -4.12452e-20)
(-0.00406541 3.21712 1.86897e-20)
(-0.0114198 3.2261 -2.33072e-19)
(-0.0186217 3.2351 2.2423e-19)
(-0.0256285 3.24425 -1.12419e-20)
(-0.0324676 3.25346 9.00746e-21)
(-0.0391896 3.26255 1.01554e-19)
(-0.0457889 3.27145 -1.87025e-19)
(-0.0522573 3.28015 8.82699e-20)
(-0.0585989 3.28866 4.08459e-20)
(-0.0648157 3.29693 -6.13571e-20)
(-0.070908 3.30496 2.23073e-20)
(-0.076875 3.31271 -1.954e-21)
(-0.0827151 3.32016 -3.10611e-20)
(-0.0884251 3.32727 3.0172e-20)
(-0.0131175 1.54704 8.98957e-17)
(-0.190143 1.59088 0)
(-0.161808 1.5918 9.36234e-17)
(-0.16215 1.59476 8.34065e-19)
(-0.163163 1.60009 -7.38008e-17)
(-0.163932 1.60652 5.2555e-17)
(-0.164551 1.61378 -2.021e-17)
(-0.164997 1.62198 0)
(-0.165154 1.63144 1.78859e-17)
(-0.164877 1.64261 -3.30872e-17)
(-0.16399 1.65594 1.51065e-17)
(-0.162296 1.6719 -4.52623e-19)
(-0.159604 1.69092 1.33043e-17)
(-0.15568 1.71334 -2.42978e-17)
(-0.150147 1.73933 1.06138e-17)
(-0.142524 1.76938 -6.09588e-19)
(-0.132462 1.80446 8.86628e-18)
(-0.119221 1.8462 -7.69676e-18)
(-0.102124 1.89593 0)
(-0.0813293 1.95326 6.80254e-18)
(-0.0572172 2.01647 -6.82943e-18)
(-0.0305435 2.08288 -3.34998e-19)
(-0.00240406 2.14946 0)
(0.0259948 2.21344 -5.22473e-19)
(0.0534578 2.27257 0)
(0.0791087 2.3253 3.0976e-18)
(0.102229 2.37105 1.71135e-19)
(0.122373 2.41006 -3.06565e-18)
(0.139683 2.44311 -1.57855e-19)
(0.154349 2.47102 0)
(0.166487 2.4947 0)
(0.176405 2.51494 0)
(0.184443 2.53242 -1.72757e-18)
(0.190913 2.54772 1.87301e-18)
(0.196098 2.56135 -2.19038e-19)
(0.200244 2.57375 1.64702e-18)
(0.203566 2.58528 -1.36624e-18)
(0.206236 2.59621 1.45751e-18)
(0.208394 2.60673 -1.38306e-18)
(0.210138 2.61698 0)
(0.21154 2.62707 1.5243e-18)
(0.212647 2.63706 -1.15978e-18)
(0.213492 2.64699 8.12169e-19)
(0.214093 2.65692 -7.79e-19)
(0.214462 2.66687 2.45661e-19)
(0.214606 2.67685 -2.33323e-19)
(0.214527 2.68688 0)
(0.214226 2.69699 -1.49662e-21)
(0.213702 2.70719 0)
(0.212953 2.71748 1.33575e-18)
(0.211976 2.72788 -1.66396e-18)
(0.210764 2.73841 1.75466e-19)
(0.209313 2.74908 -1.3414e-18)
(0.207616 2.7599 1.14595e-18)
(0.205664 2.77088 -1.55198e-19)
(0.203449 2.78205 0)
(0.20096 2.7934 0)
(0.198186 2.80495 -1.10046e-18)
(0.195115 2.81671 2.87461e-19)
(0.191735 2.82869 1.04207e-18)
(0.188031 2.84091 7.35973e-19)
(0.183988 2.85337 -9.69697e-19)
(0.179591 2.86608 0)
(0.174823 2.87905 0)
(0.169668 2.89229 -2.13722e-19)
(0.164108 2.9058 0)
(0.158124 2.91958 -2.03239e-19)
(0.151698 2.93365 5.65514e-19)
(0.14481 2.948 -7.5379e-19)
(0.137441 2.96264 3.58843e-19)
(0.129571 2.97756 3.45116e-19)
(0.121181 2.99277 3.31603e-19)
(0.112252 3.00827 0)
(0.102766 3.02405 2.83944e-19)
(0.0928504 3.03989 -2.99046e-19)
(0.0828007 3.05536 5.25123e-19)
(0.0727878 3.07027 -2.65374e-19)
(0.0628323 3.08469 9.19878e-19)
(0.0529788 3.09868 -5.67006e-20)
(0.0432167 3.11219 1.54071e-19)
(0.0335291 3.12518 -8.0517e-19)
(0.0239557 3.13766 6.12803e-19)
(0.0145004 3.14967 -5.33814e-19)
(0.00516483 3.16124 0)
(-0.00404583 3.17242 7.42036e-20)
(-0.0131276 3.18322 5.18449e-19)
(-0.0220779 3.19369 -1.03594e-19)
(-0.0308954 3.20385 -3.9488e-20)
(-0.0395795 3.21375 -4.22616e-19)
(-0.0481315 3.2234 -1.28063e-21)
(-0.0565534 3.23283 2.21545e-19)
(-0.0648445 3.2421 -2.93479e-19)
(-0.0730006 3.25127 2.22084e-19)
(-0.0810092 3.26046 -2.26187e-19)
(-0.0888103 3.26978 1.51278e-19)
(-0.0964362 3.27909 -1.39377e-19)
(-0.103934 3.28823 0)
(-0.111269 3.29718 0)
(-0.118451 3.30593 5.22535e-20)
(-0.125484 3.31446 -4.51403e-20)
(-0.132373 3.32275 8.97009e-22)
(-0.139115 3.33076 -2.69882e-22)
(-0.145709 3.33846 -2.88987e-20)
(-0.152149 3.34581 2.80174e-20)
(-0.0454832 1.54751 -4.08343e-18)
(-0.223702 1.58893 2.66493e-16)
(-0.194866 1.59045 -2.01608e-16)
(-0.195368 1.59314 6.239e-17)
(-0.196566 1.598 0)
(-0.197599 1.60375 0)
(-0.198583 1.61007 -1.37413e-18)
(-0.199521 1.61698 -1.8648e-17)
(-0.200357 1.62454 3.36061e-17)
(-0.201011 1.63296 -1.64493e-17)
(-0.20138 1.64256 0)
(-0.20134 1.6537 4.91338e-24)
(-0.200709 1.66678 -4.66177e-19)
(-0.199318 1.68226 0)
(-0.196995 1.70056 8.05725e-19)
(-0.193538 1.722 7.37428e-19)
(-0.188686 1.74674 -6.70042e-19)
(-0.182024 1.7749 -5.96746e-19)
(-0.173233 1.80712 0)
(-0.161808 1.84454 0)
(-0.147051 1.88839 4.56335e-19)
(-0.1287 1.93906 -5.77895e-22)
(-0.106966 1.99587 3.77475e-19)
(-0.0822974 2.0571 -7.22463e-22)
(-0.0554991 2.12036 0)
(-0.0276072 2.18309 -2.67463e-19)
(0.000250595 2.24302 -7.12183e-19)
(0.0270332 2.29827 -2.13465e-19)
(0.0520101 2.34767 0)
(0.074481 2.39084 0)
(0.0942032 2.42813 -3.19815e-19)
(0.111354 2.46014 2.99663e-19)
(0.126003 2.48753 1.68193e-18)
(0.138281 2.51108 -2.80602e-19)
(0.148452 2.53148 -2.6562e-19)
(0.156803 2.54929 -2.14128e-18)
(0.163605 2.56504 -1.7838e-18)
(0.169104 2.57923 2.12343e-18)
(0.173515 2.59225 -1.59176e-18)
(0.177031 2.60444 1.51558e-18)
(0.179813 2.61607 -3.55214e-19)
(0.18199 2.6273 0)
(0.183661 2.63829 2.84889e-18)
(0.1849 2.64913 -2.4155e-18)
(0.185759 2.65988 -2.83622e-19)
(0.186276 2.67059 2.68648e-19)
(0.186477 2.6813 2.5656e-19)
(0.186382 2.69204 -1.44485e-18)
(0.186001 2.70282 1.85725e-18)
(0.185345 2.71367 0)
(0.184416 2.72461 -4.20391e-19)
(0.183218 2.73566 0)
(0.181747 2.74683 0)
(0.180002 2.75814 -3.66802e-19)
(0.177977 2.76961 0)
(0.175664 2.78125 -3.36747e-19)
(0.173053 2.79308 3.23097e-19)
(0.170134 2.8051 -1.22353e-18)
(0.166894 2.81734 1.49614e-18)
(0.16332 2.82981 1.12886e-18)
(0.159395 2.84252 -1.38445e-18)
(0.155104 2.85547 5.30545e-19)
(0.150429 2.86868 4.92735e-19)
(0.145353 2.88216 -9.90028e-19)
(0.139854 2.89592 9.28296e-19)
(0.133913 2.90995 -9.1874e-19)
(0.127509 2.92428 4.33278e-19)
(0.120618 2.93889 8.25106e-19)
(0.113218 2.9538 -8.20616e-19)
(0.105286 2.969 -3.85176e-19)
(0.0967961 2.9845 -7.4503e-19)
(0.0877253 3.00029 3.44643e-19)
(0.0780493 3.01637 9.83308e-19)
(0.0677454 3.03274 -3.56658e-19)
(0.056949 3.04916 9.00421e-19)
(0.0459807 3.06517 -1.20357e-18)
(0.0350314 3.08059 4.74691e-21)
(0.0241202 3.09547 -7.41968e-19)
(0.0133123 3.10991 1.22742e-18)
(0.00259372 3.12389 0)
(-0.00806686 3.13734 0)
(-0.0186259 3.15028 1.98208e-19)
(-0.0290752 3.16273 -9.08756e-19)
(-0.0394122 3.17473 7.22353e-19)
(-0.0496303 3.18632 5.42284e-19)
(-0.0597241 3.19752 -4.67982e-19)
(-0.0696899 3.20838 4.52102e-19)
(-0.0795247 3.21892 -4.54549e-19)
(-0.0892254 3.22919 -5.67215e-20)
(-0.0987888 3.2392 4.92689e-20)
(-0.108212 3.24899 4.35267e-20)
(-0.117491 3.2586 0)
(-0.126623 3.26806 0)
(-0.135613 3.27744 2.74385e-20)
(-0.144415 3.28685 2.36802e-20)
(-0.153006 3.29628 1.38084e-19)
(-0.161419 3.30561 -2.58082e-20)
(-0.169665 3.31477 -1.19297e-19)
(-0.17773 3.32374 5.73652e-20)
(-0.185629 3.33251 -5.86527e-20)
(-0.193365 3.34105 -1.21516e-20)
(-0.200936 3.34931 1.17899e-20)
(-0.208339 3.35725 -2.52857e-20)
(-0.215564 3.36483 -1.74022e-20)
(-0.0771176 1.54742 -9.00623e-17)
(-0.256268 1.58651 1.37595e-16)
(-0.227165 1.58884 -2.12708e-16)
(-0.227846 1.59145 6.86738e-17)
(-0.229202 1.5961 1.3707e-18)
(-0.230428 1.60154 -3.03279e-17)
(-0.231653 1.60744 4.68938e-17)
(-0.232891 1.61373 -1.90364e-17)
(-0.234111 1.62042 1.72488e-17)
(-0.235283 1.6276 -1.55955e-17)
(-0.236355 1.63536 0)
(-0.237247 1.64392 4.71346e-19)
(-0.237882 1.65356 -1.54842e-17)
(-0.238133 1.66461 1.48726e-17)
(-0.237826 1.67743 -8.97719e-19)
(-0.236801 1.69244 -1.35227e-17)
(-0.234879 1.71005 1.33772e-17)
(-0.231889 1.73059 1.22666e-17)
(-0.227652 1.75425 -2.67133e-20)
(-0.221875 1.78106 -9.46395e-18)
(-0.214144 1.81136 -5.27713e-19)
(-0.20425 1.84574 4.76387e-19)
(-0.191641 1.88512 -1.31885e-18)
(-0.175688 1.93037 -4.08094e-19)
(-0.15643 1.98138 -6.69577e-18)
(-0.13411 2.03732 6.07569e-18)
(-0.109219 2.09651 -1.43362e-21)
(-0.0825643 2.15677 5.40426e-19)
(-0.0551093 2.21593 -4.85103e-19)
(-0.0278777 2.27206 4.3531e-19)
(-0.00175596 2.32362 3.51458e-18)
(0.0226616 2.36984 -3.19509e-18)
(0.0447092 2.41053 3.22817e-19)
(0.0642669 2.44611 -1.45951e-21)
(0.0815129 2.47704 2.82746e-19)
(0.0964157 2.50387 2.66911e-19)
(0.109089 2.52733 -4.28889e-18)
(0.119734 2.54798 3.22372e-20)
(0.128575 2.56633 4.10494e-18)
(0.13583 2.58281 0)
(0.141702 2.59786 0)
(0.146383 2.61182 0)
(0.15005 2.62499 -3.28142e-18)
(0.152859 2.63759 2.78935e-18)
(0.154943 2.64979 0)
(0.156409 2.66173 0)
(0.15734 2.67349 -2.64136e-18)
(0.157803 2.68514 1.97303e-18)
(0.157846 2.69674 2.11247e-18)
(0.157505 2.70834 -2.0317e-18)
(0.156808 2.71995 4.78077e-19)
(0.155771 2.73163 0)
(0.154407 2.74339 0)
(0.152722 2.75526 8.30169e-19)
(0.150716 2.76727 1.57233e-18)
(0.148387 2.77944 -1.15004e-18)
(0.145728 2.79179 -3.60473e-19)
(0.142731 2.80433 0)
(0.139383 2.81709 -1.64614e-18)
(0.135672 2.83007 2.57544e-20)
(0.131582 2.84329 1.5386e-18)
(0.127095 2.85677 -1.17278e-18)
(0.122192 2.87052 5.59924e-19)
(0.116853 2.88454 0)
(0.111057 2.89885 0)
(0.104779 2.91344 4.81857e-19)
(0.0979962 2.92834 -2.88393e-20)
(0.0906815 2.94354 -2.95142e-20)
(0.082808 2.95905 -4.54464e-19)
(0.0743473 2.97486 0)
(0.06527 2.99098 8.15098e-19)
(0.0555463 3.00741 7.87203e-19)
(0.0451463 3.02413 -1.12533e-18)
(0.0340414 3.04115 -7.07393e-19)
(0.0223736 3.0582 0)
(0.0104874 3.07482 -1.8895e-18)
(-0.00140788 3.0908 1.544e-18)
(-0.0132858 3.1062 5.22353e-21)
(-0.0250828 3.12111 -2.6616e-19)
(-0.0367977 3.1356 2.49938e-19)
(-0.0484548 3.14957 2.35845e-19)
(-0.0600341 3.16302 0)
(-0.0715181 3.17596 0)
(-0.0829014 3.18844 0)
(-0.0941772 3.2005 -6.85895e-19)
(-0.105339 3.21216 -1.11645e-19)
(-0.116382 3.22347 1.35355e-18)
(-0.1273 3.23444 -6.39549e-19)
(-0.138086 3.24512 -4.11716e-19)
(-0.14873 3.25552 4.64348e-19)
(-0.159221 3.26568 0)
(-0.169545 3.27562 3.23059e-19)
(-0.179693 3.28539 -3.12596e-19)
(-0.189672 3.29503 0)
(-0.199458 3.3046 -5.18058e-20)
(-0.209012 3.31415 -1.55401e-19)
(-0.218379 3.32362 1.51611e-19)
(-0.227574 3.33297 -9.54931e-20)
(-0.23658 3.34217 9.23344e-20)
(-0.24541 3.35119 0)
(-0.254065 3.35998 -2.23679e-20)
(-0.262539 3.36849 1.77533e-20)
(-0.270821 3.37667 2.12908e-20)
(-0.278898 3.38446 -6.08677e-20)
(-0.286757 3.39181 4.19057e-20)
(-0.107845 1.5469 2.86192e-18)
(-0.287932 1.58385 0)
(-0.258631 1.58696 -1.05662e-16)
(-0.259424 1.58947 7.25723e-17)
(-0.26088 1.594 -8.92063e-23)
(-0.262227 1.5993 -1.01099e-18)
(-0.263596 1.605 0)
(-0.26501 1.61103 -1.90867e-17)
(-0.266451 1.61737 1.74237e-17)
(-0.267902 1.62402 0)
(-0.269345 1.63103 8.88675e-19)
(-0.270757 1.63847 0)
(-0.272087 1.64646 8.24973e-23)
(-0.273272 1.65518 -1.39464e-17)
(-0.274218 1.66488 2.80375e-17)
(-0.274828 1.67586 -1.39881e-17)
(-0.274967 1.68849 1.37418e-17)
(-0.27444 1.70315 -2.80533e-17)
(-0.273073 1.72021 1.23749e-17)
(-0.270709 1.74 7.13825e-19)
(-0.267158 1.76276 -6.53678e-19)
(-0.262229 1.78853 -8.24984e-18)
(-0.255619 1.81731 9.51058e-18)
(-0.246983 1.84956 9.45597e-19)
(-0.236121 1.88581 8.53521e-19)
(-0.222505 1.92674 -7.90213e-19)
(-0.205631 1.97281 7.30831e-19)
(-0.185664 2.02362 0)
(-0.162896 2.0782 -1.28528e-21)
(-0.137851 2.13492 1.39027e-21)
(-0.111311 2.19183 -4.93641e-19)
(-0.0841714 2.24714 0)
(-0.0573505 2.29936 0)
(-0.0316085 2.34731 6.16523e-18)
(-0.0074697 2.39053 -4.6542e-18)
(0.0144572 2.42902 0)
(0.0340992 2.46315 -4.54969e-18)
(0.0515918 2.49332 7.54305e-18)
(0.0668357 2.52005 -4.60373e-18)
(0.0799103 2.5439 0)
(0.0909699 2.56529 -4.11651e-18)
(0.100184 2.5846 3.50239e-18)
(0.107724 2.60221 8.28091e-19)
(0.113771 2.61844 -3.52324e-18)
(0.118507 2.6336 2.62857e-18)
(0.122111 2.64793 0)
(0.124744 2.66165 2.68079e-18)
(0.126549 2.67493 -3.21681e-18)
(0.127642 2.68788 2.41706e-18)
(0.128119 2.70062 -1.74457e-18)
(0.128056 2.71323 -2.73266e-18)
(0.127508 2.72578 2.10211e-18)
(0.126517 2.73832 -4.98852e-19)
(0.125112 2.75091 1.40678e-18)
(0.123311 2.76358 -2.80302e-20)
(0.121123 2.77638 -1.73293e-18)
(0.118553 2.78933 0)
(0.115596 2.80245 -2.33991e-18)
(0.112246 2.81578 2.24228e-18)
(0.108492 2.82933 -1.44647e-18)
(0.104321 2.84312 0)
(0.0997148 2.85717 6.52775e-19)
(0.0946546 2.87149 1.87523e-18)
(0.0891189 2.88609 5.76397e-19)
(0.0830852 2.90099 -3.03509e-20)
(0.0765284 2.91619 -5.72834e-19)
(0.069421 2.9317 2.09375e-18)
(0.061733 2.94753 -2.0702e-18)
(0.0534332 2.96369 -9.77201e-19)
(0.0444883 2.98016 1.83891e-18)
(0.0348633 2.99696 -1.37011e-18)
(0.0245217 3.01408 -1.71765e-18)
(0.013427 3.03151 2.42004e-18)
(0.00154315 3.04924 -8.13e-19)
(-0.0109832 3.06701 0)
(-0.0237864 3.08431 -6.69993e-19)
(-0.036641 3.10092 7.01373e-19)
(-0.0495098 3.11689 -2.13723e-18)
(-0.062344 3.13233 1.48256e-18)
(-0.0750993 3.14734 -5.43022e-19)
(-0.0877879 3.16188 -1.24378e-18)
(-0.100429 3.17589 6.18809e-20)
(-0.112995 3.18939 6.03068e-20)
(-0.125478 3.20242 8.72711e-19)
(-0.137871 3.21501 9.53228e-19)
(-0.150168 3.22719 -5.49798e-20)
(-0.162357 3.239 -5.21925e-19)
(-0.174428 3.25046 1.5331e-19)
(-0.186364 3.26159 -5.21442e-19)
(-0.198142 3.27242 6.35234e-19)
(-0.209742 3.28294 0)
(-0.22114 3.29321 3.56207e-19)
(-0.232323 3.30325 -6.07625e-19)
(-0.243308 3.31312 2.92934e-19)
(-0.254061 3.3229 2.41036e-19)
(-0.264605 3.33261 -2.06338e-19)
(-0.274998 3.34228 1.99801e-20)
(-0.285216 3.35187 -9.3499e-20)
(-0.295253 3.36133 9.35047e-20)
(-0.305111 3.37062 8.39938e-21)
(-0.31478 3.37969 4.28256e-21)
(-0.324246 3.38845 0)
(-0.333488 3.39686 6.90533e-22)
(-0.342487 3.40484 -1.89944e-21)
(-0.351222 3.41233 -2.97298e-21)
(-0.359675 3.41928 1.30803e-19)
(-0.367828 3.42565 -1.3703e-19)
(-0.137608 1.54595 -9.31731e-17)
(-0.318712 1.58084 0)
(-0.289162 1.58459 1.17231e-16)
(-0.28997 1.58694 -7.64641e-17)
(-0.291457 1.59135 -1.55321e-18)
(-0.29285 1.59655 2.15431e-18)
(-0.294279 1.60216 2.58577e-17)
(-0.295766 1.60808 -2.1386e-17)
(-0.2973 1.61427 -1.09032e-18)
(-0.298872 1.62073 -1.62368e-17)
(-0.300478 1.62746 1.39025e-17)
(-0.302109 1.6345 8.14696e-19)
(-0.303751 1.64188 8.09032e-23)
(-0.305382 1.64968 7.8641e-19)
(-0.306975 1.65803 7.96988e-19)
(-0.308458 1.66706 1.29456e-17)
(-0.309742 1.67698 -2.91798e-20)
(-0.310746 1.68806 -1.23757e-17)
(-0.311293 1.70063 0)
(-0.311282 1.71505 -8.00792e-19)
(-0.310486 1.73169 -1.06148e-17)
(-0.308751 1.75086 9.91798e-18)
(-0.305897 1.77279 1.04034e-17)
(-0.301756 1.79762 -9.50807e-18)
(-0.296119 1.8253 0)
(-0.288662 1.85586 9.50701e-19)
(-0.279124 1.88972 0)
(-0.267275 1.92733 7.72857e-19)
(-0.252625 1.96913 1.42921e-18)
(-0.234869 2.01516 -6.59631e-19)
(-0.214226 2.0649 6.03821e-19)
(-0.191047 2.1173 -1.1008e-18)
(-0.165881 2.17092 9.97645e-19)
(-0.139472 2.22416 -8.09736e-18)
(-0.112651 2.27566 6.55974e-18)
(-0.0862428 2.3243 0)
(-0.0608934 2.3692 5.39482e-18)
(-0.0371757 2.41009 -3.7422e-18)
(-0.0155121 2.4471 0)
(0.0040804 2.4805 0)
(0.021578 2.51059 5.11494e-19)
(0.0368914 2.53784 0)
(0.0500731 2.56256 -4.60917e-19)
(0.0612377 2.58504 0)
(0.0705149 2.60556 -2.91404e-18)
(0.0780559 2.62441 3.20255e-18)
(0.0840324 2.64187 -7.61035e-19)
(0.0886252 2.65823 7.19136e-19)
(0.092011 2.67371 0)
(0.0943523 2.68853 -6.51282e-19)
(0.0957914 2.70286 6.19753e-19)
(0.0964477 2.71685 5.94715e-19)
(0.0964176 2.73061 -4.82515e-21)
(0.095776 2.74426 0)
(0.0945786 2.75787 1.51572e-18)
(0.0928646 2.7715 -3.12719e-20)
(0.0906597 2.78522 -1.87341e-18)
(0.0879783 2.79907 8.81751e-19)
(0.0848257 2.81309 -8.34055e-19)
(0.0812016 2.82731 8.18971e-19)
(0.0770996 2.84175 -1.52699e-18)
(0.0725068 2.85645 2.20809e-18)
(0.0674058 2.87141 -2.12797e-18)
(0.061777 2.88666 -2.00364e-18)
(0.0555999 2.9022 1.30798e-18)
(0.0488503 2.91806 -6.22028e-19)
(0.0414977 2.93424 -2.3318e-18)
(0.0335085 2.95076 1.15996e-18)
(0.0248485 2.96761 -5.01814e-19)
(0.0154803 2.98481 3.15667e-18)
(0.00536225 3.00235 1.50192e-20)
(-0.00554941 3.02023 -1.48971e-20)
(-0.0172983 3.03843 -1.77075e-18)
(-0.0299286 3.05696 1.72128e-18)
(-0.0432914 3.07552 -2.49824e-18)
(-0.0570034 3.09359 -1.50402e-18)
(-0.0708264 3.11093 2.22735e-18)
(-0.0847144 3.12757 -1.34257e-18)
(-0.0986319 3.1436 3.21361e-18)
(-0.112504 3.15913 -9.35831e-19)
(-0.126305 3.17426 1.08607e-18)
(-0.140063 3.1889 -1.08644e-18)
(-0.153765 3.20302 -1.20549e-18)
(-0.167406 3.21666 7.2093e-19)
(-0.180982 3.22985 6.15081e-19)
(-0.194478 3.24262 -1.02216e-18)
(-0.207872 3.25499 -1.79106e-19)
(-0.221139 3.26699 3.0276e-19)
(-0.234247 3.2786 -1.34309e-18)
(-0.247165 3.28985 5.61462e-19)
(-0.259868 3.30074 1.19748e-19)
(-0.272342 3.31129 0)
(-0.284593 3.32155 -4.35822e-20)
(-0.296629 3.33165 2.83109e-19)
(-0.308449 3.3417 -3.0602e-19)
(-0.32012 3.35173 -1.68998e-19)
(-0.331662 3.36171 3.51718e-19)
(-0.343033 3.37161 -1.54701e-19)
(-0.354224 3.38139 1.04034e-19)
(-0.365221 3.39098 -9.73392e-20)
(-0.376001 3.40032 -6.70506e-20)
(-0.386538 3.40932 4.48893e-20)
(-0.396806 3.41791 -1.2403e-20)
(-0.406776 3.42602 2.73483e-20)
(-0.416422 3.43357 0)
(-0.425723 3.44052 3.80714e-21)
(-0.434657 3.44682 0)
(-0.443212 3.45244 -5.40959e-21)
(-0.166473 1.54449 9.47254e-17)
(-0.348569 1.57724 -3.0574e-16)
(-0.318681 1.58147 -3.53739e-18)
(-0.319426 1.58358 8.01803e-17)
(-0.320881 1.58784 0)
(-0.322262 1.59295 -1.14184e-18)
(-0.323688 1.59849 -2.74015e-17)
(-0.32518 1.60436 3.5291e-20)
(-0.326726 1.61049 1.71273e-17)
(-0.328322 1.61688 9.86932e-19)
(-0.329965 1.62353 1.31778e-17)
(-0.331656 1.63044 -2.39386e-20)
(-0.333391 1.63763 -2.33787e-17)
(-0.335165 1.64514 1.01601e-17)
(-0.336966 1.65299 -1.14222e-17)
(-0.338774 1.66126 1.15403e-17)
(-0.340559 1.67005 0)
(-0.342268 1.6795 -1.50582e-18)
(-0.343855 1.68979 1.53597e-18)
(-0.345154 1.70112 -1.5585e-18)
(-0.346101 1.71379 2.50725e-17)
(-0.346493 1.72813 -2.47599e-17)
(-0.3462 1.74448 0)
(-0.344995 1.76314 0)
(-0.34272 1.78436 1.29418e-18)
(-0.339208 1.80826 0)
(-0.334299 1.83487 1.06805e-18)
(-0.327771 1.86412 1.43211e-17)
(-0.319323 1.89607 -1.54074e-17)
(-0.30878 1.93104 1.5334e-18)
(-0.295897 1.96935 1.40124e-18)
(-0.280264 2.0112 1.16227e-17)
(-0.261784 2.05638 -1.07585e-17)
(-0.240713 2.10433 1.09139e-18)
(-0.217445 2.15414 -8.94737e-18)
(-0.192535 2.20465 7.27928e-18)
(-0.166664 2.25461 0)
(-0.14059 2.30294 5.24036e-18)
(-0.115023 2.34873 -5.50695e-18)
(-0.0905231 2.39138 -6.30148e-19)
(-0.0676867 2.43077 0)
(-0.0466765 2.46702 0)
(-0.0275012 2.50025 3.07524e-18)
(-0.010366 2.53076 -3.93266e-18)
(0.0046846 2.55874 -9.3291e-19)
(0.017689 2.58438 -8.8785e-19)