/*--------------------------------*- C++ -*----------------------------------*\
  =========                 |
  \\      /  F ield         | OpenFOAM: The Open Source CFD Toolbox
   \\    /   O peration     | Website:  https://openfoam.org
    \\  /    A nd           | Version:  10
     \\/     M anipulation  |
\*---------------------------------------------------------------------------*/
FoamFile
{
    format      ascii;
    class       volScalarField;
    location    "400";
    object      k;
}
// * * * * * * * * * * * * * * * * * * * * * * * * * * * * * * * * * * * * * //

dimensions      [0 2 -2 0 0 0 0];

internalField   nonuniform List<scalar> 
420
(
4.83054e-15
8.71276e-14
4.86307e-13
1.30724e-12
2.49258e-12
3.87218e-12
5.40078e-12
7.46679e-12
1.05225e-11
1.64542e-11
3.45149e-15
7.09966e-14
3.99092e-13
1.05956e-12
1.98986e-12
3.08638e-12
4.43189e-12
6.5072e-12
9.97791e-12
1.56593e-11
2.58724e-15
5.77575e-14
3.14513e-13
8.42574e-13
1.58052e-12
2.49853e-12
3.79099e-12
6.01484e-12
9.07781e-12
1.37111e-11
1.95402e-15
4.54122e-14
2.39964e-13
6.48175e-13
1.23834e-12
2.0471e-12
3.29491e-12
5.10122e-12
7.48345e-12
1.08665e-11
1.41346e-15
3.33357e-14
1.7364e-13
4.70344e-13
9.27153e-13
1.59574e-12
2.59811e-12
3.90806e-12
5.46568e-12
7.68449e-12
9.25492e-16
2.16892e-14
1.11285e-13
3.05707e-13
6.25399e-13
1.11028e-12
1.82475e-12
2.65541e-12
3.45394e-12
4.76996e-12
5.16607e-16
1.17169e-14
5.82684e-14
1.64313e-13
3.51253e-13
6.56791e-13
1.09825e-12
1.53242e-12
1.84472e-12
2.60161e-12
2.22886e-16
4.58177e-15
2.13672e-14
6.08095e-14
1.38224e-13
2.78828e-13
4.8703e-13
6.65924e-13
7.66153e-13
1.26249e-12
2.22045e-16
8.65418e-16
3.70117e-15
1.05304e-14
2.58007e-14
5.76341e-14
1.08743e-13
1.50748e-13
1.80221e-13
4.74692e-13
2.22045e-16
2.22045e-16
2.22045e-16
3.76698e-16
9.62628e-16
2.29493e-15
4.62516e-15
6.68668e-15
1.12619e-14
1.08895e-13
2.77528e-11
4.90768e-11
9.02603e-11
1.52329e-10
2.01315e-10
1.98002e-10
1.46708e-10
8.7122e-11
5.10528e-11
1.57734e-11
2.5615e-11
4.47147e-11
8.40779e-11
1.46015e-10
1.96598e-10
1.97657e-10
1.49013e-10
8.83823e-11
5.28245e-11
1.56589e-11
2.19175e-11
3.88947e-11
7.73997e-11
1.40318e-10
1.92853e-10
1.98627e-10
1.51779e-10
8.94853e-11
5.35915e-11
1.57096e-11
1.72926e-11
3.26013e-11
7.12774e-11
1.35722e-10
1.89783e-10
1.9957e-10
1.53825e-10
9.0205e-11
5.37971e-11
1.57321e-11
1.26302e-11
2.68685e-11
6.68596e-11
1.32943e-10
1.87649e-10
2.00302e-10
1.55413e-10
9.06395e-11
5.36709e-11
1.56743e-11
8.62378e-12
2.2452e-11
6.49123e-11
1.31652e-10
1.86783e-10
2.0145e-10
1.56532e-10
9.06283e-11
5.30838e-11
1.55818e-11
5.71758e-12
1.99069e-11
6.45997e-11
1.32546e-10
1.88077e-10
2.0309e-10
1.57264e-10
9.01603e-11
5.20809e-11
1.54884e-11
3.83652e-12
1.87215e-11
6.69548e-11
1.35771e-10
1.90936e-10
2.05198e-10
1.57667e-10
8.92439e-11
5.07271e-11
1.54343e-11
2.6427e-12
1.95407e-11
7.24839e-11
1.41146e-10
1.94872e-10
2.07635e-10
1.57758e-10
8.78486e-11
4.9242e-11
1.54954e-11
2.02815e-12
2.33994e-11
8.0998e-11
1.47481e-10
1.9906e-10
2.09831e-10
1.57567e-10
8.59268e-11
4.80194e-11
1.57146e-11
2.23309e-12
3.23675e-11
9.00319e-11
1.50732e-10
2.00886e-10
2.09046e-10
1.55697e-10
8.37963e-11
4.66394e-11
1.5968e-11
5.51623e-12
4.06429e-11
9.20354e-11
1.50402e-10
2.00969e-10
2.0839e-10
1.54749e-10
8.41061e-11
4.58415e-11
1.47227e-11
1.84899e-11
5.04748e-11
9.51689e-11
1.53303e-10
2.04395e-10
2.10653e-10
1.54884e-10
8.41243e-11
4.47061e-11
1.33993e-11
3.6999e-11
6.09035e-11
1.0013e-10
1.59812e-10
2.11328e-10
2.14103e-10
1.54966e-10
8.13579e-11
4.30767e-11
1.36171e-11
4.12396e-11
6.10224e-11
1.012e-10
1.63905e-10
2.15547e-10
2.14622e-10
1.5377e-10
7.91378e-11
4.13906e-11
1.35718e-11
3.79679e-11
5.87335e-11
1.01847e-10
1.67501e-10
2.1906e-10
2.14399e-10
1.52671e-10
7.74827e-11
3.97058e-11
1.34796e-11
3.46069e-11
5.72254e-11
1.03115e-10
1.70841e-10
2.21372e-10
2.13156e-10
1.51357e-10
7.64458e-11
3.82239e-11
1.34674e-11
3.24713e-11
5.69529e-11
1.04939e-10
1.72988e-10
2.21532e-10
2.10669e-10
1.49767e-10
7.64356e-11
3.71669e-11
1.36813e-11
3.12318e-11
5.71727e-11
1.05814e-10
1.73349e-10
2.20021e-10
2.07307e-10
1.47939e-10
7.7363e-11
3.69793e-11
1.43142e-11
3.06002e-11
5.68918e-11
1.05056e-10
1.7112e-10
2.16521e-10
2.03469e-10
1.4603e-10
7.95002e-11
3.77589e-11
1.5454e-11
3.01315e-11
5.55748e-11
1.01873e-10
1.65967e-10
2.11059e-10
1.99636e-10
1.44279e-10
8.33316e-11
4.07358e-11
1.64992e-11
2.92096e-11
5.28972e-11
9.69115e-11
1.60207e-10
2.0733e-10
1.99342e-10
1.4546e-10
8.76195e-11
4.71456e-11
1.67197e-11
3.18731e-12
2.01437e-11
3.04093e-11
2.88969e-11
2.50594e-11
2.20147e-11
1.9854e-11
1.83091e-11
1.73022e-11
1.67754e-11
8.2734e-13
1.08306e-11
2.26205e-11
2.42268e-11
2.13001e-11
1.81615e-11
1.5608e-11
1.3622e-11
1.22354e-11
1.14145e-11
2.42324e-13
4.98505e-12
1.46988e-11
1.86255e-11
1.77144e-11
1.54019e-11
1.30326e-11
1.09879e-11
9.46282e-12
8.54306e-12
9.22888e-14
2.17545e-12
7.77716e-12
1.16933e-11
1.24823e-11
1.14805e-11
9.98084e-12
8.42237e-12
7.12301e-12
6.27878e-12
3.70574e-14
9.26314e-13
3.74031e-12
6.30232e-12
7.39836e-12
7.29085e-12
6.78081e-12
5.97629e-12
5.12339e-12
4.48232e-12
1.42183e-14
3.68242e-13
1.66152e-12
3.08885e-12
3.92106e-12
4.10549e-12
3.97126e-12
3.64668e-12
3.21808e-12
2.84791e-12
4.95177e-15
1.31504e-13
6.55007e-13
1.34429e-12
1.82817e-12
2.00543e-12
1.97296e-12
1.84719e-12
1.65729e-12
1.48123e-12
1.43205e-15
3.86634e-14
2.06186e-13
4.62456e-13
6.65417e-13
7.46219e-13
7.25559e-13
6.7683e-13
6.08291e-13
5.47383e-13
2.59183e-16
6.91222e-15
3.68787e-14
8.65659e-14
1.28108e-13
1.42478e-13
1.3464e-13
1.23525e-13
1.10805e-13
9.95262e-14
2.22045e-16
4.37281e-16
1.69371e-15
3.59001e-15
5.14849e-15
5.74e-15
5.39405e-15
4.92062e-15
4.43736e-15
4.40993e-15
)
;

boundaryField
{
    right
    {
        type            cyclic;
    }
    left
    {
        type            cyclic;
    }
    outerWall
    {
        type            kqRWallFunction;
        value           nonuniform List<scalar> 
22
(
1.57734e-11
1.56589e-11
1.57096e-11
1.57321e-11
1.56743e-11
1.55818e-11
1.54884e-11
1.54343e-11
1.54954e-11
1.57146e-11
1.5968e-11
1.47227e-11
1.33993e-11
1.36171e-11
1.35718e-11
1.34796e-11
1.34674e-11
1.36813e-11
1.43142e-11
1.5454e-11
1.64992e-11
1.67197e-11
)
;
    }
    stirrerWall
    {
        type            kqRWallFunction;
        value           nonuniform List<scalar> 
42
(
4.83054e-15
3.45149e-15
2.58724e-15
1.95402e-15
1.41346e-15
9.25492e-16
5.16607e-16
2.22886e-16
2.22045e-16
2.22045e-16
2.22045e-16
2.22045e-16
2.22045e-16
3.76698e-16
9.62628e-16
2.29493e-15
4.62516e-15
6.68668e-15
1.12619e-14
1.08895e-13
2.23309e-12
5.51623e-12
3.18731e-12
8.2734e-13
2.42324e-13
9.22888e-14
3.70574e-14
1.42183e-14
4.95177e-15
1.43205e-15
2.59183e-16
2.22045e-16
2.22045e-16
4.37281e-16
1.69371e-15
3.59001e-15
5.14849e-15
5.74e-15
5.39405e-15
4.92062e-15
4.43736e-15
4.40993e-15
)
;
    }
    top
    {
        type            empty;
    }
    bottom
    {
        type            empty;
    }
}


// ************************************************************************* //
