/*--------------------------------*- C++ -*----------------------------------*\
  =========                 |
  \\      /  F ield         | OpenFOAM: The Open Source CFD Toolbox
   \\    /   O peration     | Website:  https://openfoam.org
    \\  /    A nd           | Version:  10
     \\/     M anipulation  |
\*---------------------------------------------------------------------------*/
FoamFile
{
    format      ascii;
    class       volScalarField;
    location    "400";
    object      k;
}
// * * * * * * * * * * * * * * * * * * * * * * * * * * * * * * * * * * * * * //

dimensions      [0 2 -2 0 0 0 0];

internalField   nonuniform List<scalar> 
2000
(
1.17016e-05
0.000317763
0.00221732
0.00748172
0.0155078
0.0248028
0.0346659
0.0446029
0.0541256
0.0625798
0.0693165
0.073876
0.076322
0.0782693
0.0790581
0.0784873
0.0804652
0.0887432
0.104142
0.125789
9.48962e-06
0.000245722
0.00168091
0.0057513
0.0121974
0.019875
0.0281135
0.036442
0.0443306
0.0512471
0.0567626
0.0604571
0.0625997
0.0641308
0.0650437
0.0664641
0.0715758
0.0841424
0.106154
0.136038
7.37592e-06
0.00018213
0.00121376
0.004338
0.00985448
0.0162585
0.0229915
0.0297308
0.0360904
0.0416918
0.0462032
0.049315
0.0513802
0.0533746
0.0558353
0.0604944
0.0708651
0.0905892
0.120333
0.156661
4.95844e-06
0.000128036
0.000816886
0.00296307
0.00753121
0.0131465
0.0187971
0.0242898
0.0294238
0.0340128
0.0378433
0.0408192
0.0434033
0.0466373
0.0516785
0.0614009
0.0795629
0.108363
0.144739
0.183469
3.1304e-06
8.47766e-05
0.000541728
0.00189881
0.00491573
0.00988936
0.0149169
0.0196075
0.0239287
0.0278574
0.0313868
0.0346807
0.0383936
0.0439281
0.0535511
0.0713996
0.100225
0.138156
0.174058
0.207434
2.26205e-06
6.1275e-05
0.000375581
0.00122591
0.00307007
0.00644597
0.0108891
0.015084
0.018925
0.0225377
0.0261706
0.0303735
0.0363668
0.0464092
0.0644951
0.0949718
0.13413
0.171786
0.19003
0.210467
1.97378e-06
5.27447e-05
0.000301227
0.000864688
0.00194282
0.00387403
0.00702164
0.0106647
0.014187
0.0177539
0.0219468
0.0281738
0.0394849
0.0592465
0.0922807
0.135848
0.160202
0.172844
0.183168
0.197354
2.12874e-06
5.60691e-05
0.000297695
0.000742142
0.00142348
0.00249749
0.0042805
0.00703487
0.0102061
0.0139612
0.0194937
0.0301235
0.0537198
0.089284
0.119681
0.141081
0.149848
0.152569
0.155628
0.165235
2.69616e-06
6.95151e-05
0.000346519
0.000787371
0.00132468
0.0019744
0.00301013
0.00487089
0.00768523
0.0120339
0.0205172
0.0396144
0.0697804
0.100247
0.117219
0.125041
0.126983
0.12475
0.12379
0.130072
3.79328e-06
9.29207e-05
0.000432954
0.000940868
0.001503
0.00201141
0.0026598
0.00402024
0.00670752
0.012429
0.0247668
0.0464005
0.0740877
0.0977636
0.109624
0.111343
0.105119
0.0937004
0.0871037
0.0916501
5.6812e-06
0.000128757
0.000546763
0.00115766
0.0018571
0.00244019
0.00295882
0.00411458
0.00684516
0.0141923
0.0287573
0.0511171
0.0751019
0.0916472
0.0963468
0.0913323
0.0751055
0.0602363
0.0545834
0.0594673
8.32564e-06
0.000173857
0.000680526
0.00141431
0.00230271
0.00314972
0.00383559
0.00516977
0.00829937
0.0165089
0.0315611
0.0516634
0.0713527
0.0832746
0.0832748
0.0724508
0.0519142
0.037873
0.0327655
0.0356396
1.13949e-05
0.000219523
0.000801731
0.00166193
0.00279834
0.00407002
0.00526819
0.00705516
0.0104489
0.0185546
0.0329115
0.0510242
0.0671635
0.0750664
0.072398
0.0595227
0.0374889
0.0250139
0.019909
0.020239
1.40864e-05
0.000252833
0.000872646
0.00182396
0.00320581
0.00500347
0.00694348
0.00920009
0.0131388
0.0207459
0.0336355
0.0494847
0.0625451
0.0679417
0.0641532
0.0504176
0.030525
0.0208734
0.0150076
0.0125358
1.51998e-05
0.000258262
0.000854392
0.00182053
0.00336112
0.00562969
0.00848273
0.0114995
0.0159125
0.0229474
0.0339918
0.0474823
0.058248
0.0625164
0.0590271
0.0464106
0.0319985
0.0226102
0.0148704
0.0100501
1.36381e-05
0.000222991
0.000717235
0.00157942
0.00309587
0.00557493
0.00914839
0.0134898
0.0185289
0.0253282
0.0345682
0.0462443
0.0556457
0.0593383
0.0559485
0.0468496
0.0371378
0.0263332
0.0164895
0.00986436
9.24843e-06
0.000147013
0.000466453
0.00107887
0.00227354
0.00445229
0.00803697
0.0132347
0.0194405
0.0267195
0.0348748
0.0458047
0.0537361
0.0568097
0.0543912
0.0477058
0.0382126
0.0264951
0.0160019
0.00890918
4.00373e-06
5.91381e-05
0.000188439
0.000467321
0.00107467
0.00230908
0.00460627
0.00849959
0.0144267
0.0216342
0.0302479
0.0414613
0.0480016
0.0497817
0.0464116
0.0395299
0.029246
0.0189268
0.0108249
0.00571482
9.25608e-07
1.02421e-05
3.0451e-05
8.00593e-05
0.000199853
0.000470006
0.0010405
0.00219872
0.00453441
0.00842995
0.0139847
0.021887
0.0249476
0.0241755
0.0204283
0.0148614
0.00987961
0.0059817
0.00311248
0.0015437
3.59402e-08
3.782e-07
1.04777e-06
2.78152e-06
6.9645e-06
1.63811e-05
3.6348e-05
7.79743e-05
0.000176712
0.000427575
0.000923134
0.00167585
0.00192951
0.00169581
0.00116875
0.000611022
0.00036703
0.000220672
0.000126509
0.000247372
0.15322
0.191951
0.263657
0.413497
0.698311
1.1282
1.62285
2.0733
2.42282
2.65986
2.83413
3.06832
3.58132
4.68285
7.08811
12.4264
25.0204
57.0609
150.347
598.293
0.171413
0.220057
0.30856
0.481442
0.78373
1.2057
1.67017
2.09414
2.43128
2.66443
2.83937
3.07538
3.59239
4.69677
7.10864
12.4652
25.1748
57.7173
152.374
603.835
0.196531
0.252416
0.354198
0.541128
0.847716
1.25361
1.69152
2.09717
2.42744
2.65979
2.83812
3.07872
3.60213
4.71074
7.12989
12.5038
25.3258
58.3655
154.151
606.98
0.223089
0.283326
0.393103
0.583514
0.884145
1.27214
1.69073
2.08595
2.41405
2.64858
2.8325
3.0791
3.60991
4.72363
7.15038
12.5405
25.471
59.0352
156.03
609.239
0.242136
0.302217
0.413135
0.603378
0.893287
1.26542
1.67275
2.06365
2.39312
2.63228
2.82362
3.07744
3.61627
4.73549
7.16962
12.5739
25.6058
59.72
158.07
611.192
0.242946
0.301449
0.411195
0.599129
0.882863
1.2441
1.64223
2.03332
2.36726
2.6134
2.81348
3.07498
3.62169
4.74645
7.18743
12.6035
25.7275
60.4162
160.383
613.816
0.223995
0.280132
0.389431
0.576139
0.856499
1.21279
1.60758
1.99922
2.3392
2.59381
2.803
3.07207
3.62615
4.75634
7.20343
12.6288
25.834
61.1175
163.062
618.308
0.191352
0.247586
0.35553
0.541749
0.821024
1.17566
1.57023
1.96555
2.31223
2.57463
2.79274
3.06895
3.6296
4.76496
7.21713
12.649
25.9225
61.8067
166.114
625.72
0.153464
0.207214
0.313653
0.500777
0.781926
1.13733
1.5339
1.93453
2.28854
2.55873
2.78437
3.06681
3.6329
4.77295
7.22913
12.6646
25.9911
62.4661
169.469
636.447
0.113701
0.1652
0.269903
0.458808
0.743759
1.1022
1.50283
1.90963
2.27066
2.5474
2.77914
3.06671
3.63665
4.78088
7.24
12.6767
26.0397
63.077
172.95
649.428
0.0793752
0.127054
0.229228
0.42048
0.710495
1.0732
1.47919
1.89249
2.25919
2.54057
2.77657
3.06836
3.64071
4.78874
7.25005
12.686
26.0701
63.6249
176.362
662.311
0.0514266
0.0939138
0.19341
0.388129
0.684697
1.05272
1.46475
1.88417
2.25516
2.5392
2.77756
3.07236
3.64593
4.79735
7.2602
12.6943
26.0851
64.0944
179.711
675.581
0.0311933
0.0677255
0.164926
0.364517
0.669009
1.04307
1.46123
1.88567
2.2589
2.54342
2.78213
3.07877
3.65229
4.80715
7.27093
12.703
26.0869
64.4738
183.032
690.622
0.0184973
0.0488691
0.14541
0.351918
0.66509
1.04472
1.46779
1.89541
2.26896
2.5523
2.78981
3.08748
3.65965
4.81843
7.28267
12.7135
26.0764
64.7503
186.294
709.099
0.0119294
0.0372395
0.136543
0.352516
0.674233
1.05828
1.48436
1.91289
2.2846
2.56515
2.80018
3.09797
3.66821
4.83139
7.29535
12.726
26.0518
64.9088
189.248
730.607
0.00963845
0.0342071
0.14108
0.368377
0.696289
1.0821
1.50876
1.93604
2.30408
2.58069
2.81244
3.11018
3.67796
4.8462
7.30918
12.7413
26.0119
64.9448
191.056
743.132
0.00816455
0.035624
0.157738
0.400162
0.732417
1.11678
1.54134
1.96478
2.32694
2.59813
2.82588
3.12359
3.68869
4.86269
7.32408
12.7601
25.9494
64.9009
191.474
742.076
0.00645509
0.0410558
0.187344
0.446296
0.779544
1.1594
1.57995
1.99729
2.35165
2.61622
2.83969
3.13769
3.70025
4.88072
7.34006
12.7833
25.8595
64.8357
189.744
727.397
0.0050833
0.0498126
0.230166
0.504099
0.834953
1.20788
1.62304
2.03196
2.37685
2.63398
2.85326
3.15211
3.71245
4.90018
7.35678
12.8074
25.7442
64.8403
187.155
711.689
0.00412451
0.0621844
0.287744
0.572411
0.895867
1.25883
1.66718
2.06575
2.40037
2.65029
2.86614
3.16695
3.72535
4.9215
7.37383
12.8157
25.6248
64.5372
184.747
696.743
0.004253
0.0879221
0.368215
0.639459
0.943693
1.28432
1.68443
2.0745
2.40421
2.6534
2.87161
3.17711
3.73753
4.94112
7.39616
12.8143
25.5206
63.7716
179.202
681.107
0.00456608
0.0951211
0.385142
0.654897
0.95777
1.29615
1.69362
2.07939
2.40557
2.65351
2.87292
3.18127
3.74407
4.94997
7.40967
12.8185
25.5084
63.5086
178.478
678.473
0.00523043
0.106117
0.409715
0.679762
0.982604
1.31864
1.7106
2.08825
2.40759
2.65297
2.87437
3.18785
3.756
4.96757
7.43616
12.8419
25.5238
63.2379
177.879
675.983
0.00614688
0.119668
0.437404
0.706824
1.00868
1.34166
1.72698
2.09573
2.4078
2.65066
2.87439
3.19376
3.76861
4.98687
7.46591
12.8704
25.5503
62.9868
177.478
674.041
0.00734682
0.135949
0.467807
0.734986
1.03461
1.36369
1.74154
2.10109
2.40591
2.64646
2.87285
3.19861
3.78127
5.00707
7.49769
12.9027
25.5852
62.7612
177.284
672.838
0.00889922
0.155245
0.500487
0.763444
1.05969
1.38403
1.75377
2.10407
2.40187
2.6404
2.86974
3.20228
3.79369
5.02775
7.5309
12.9381
25.627
62.5606
177.306
672.461
0.0108999
0.177835
0.534822
0.791324
1.0832
1.40207
1.76326
2.10449
2.39564
2.63253
2.86508
3.20464
3.80563
5.04852
7.56501
12.9756
25.6741
62.3827
177.544
672.931
0.0134728
0.203943
0.569844
0.817953
1.10444
1.41721
1.76965
2.10218
2.38724
2.6229
2.85889
3.20564
3.81684
5.069
7.59944
13.0143
25.7253
62.2238
177.995
674.222
0.0167765
0.233619
0.604515
0.842637
1.12267
1.42892
1.77264
2.09704
2.3767
2.61162
2.85124
3.2052
3.82707
5.08878
7.63361
13.0532
25.7788
62.0795
178.65
676.269
0.0210141
0.266562
0.637839
0.864546
1.13723
1.43673
1.77195
2.08902
2.36411
2.5988
2.8422
3.20329
3.83606
5.10742
7.66684
13.091
25.8329
61.9443
179.494
678.975
0.026446
0.302327
0.6686
0.882869
1.1475
1.44019
1.7674
2.0781
2.34957
2.58456
2.83183
3.19986
3.84356
5.12448
7.69839
13.1266
25.8856
61.8127
180.508
682.213
0.0334066
0.340201
0.695477
0.896835
1.15293
1.43894
1.75887
2.06431
2.33319
2.56904
2.82024
3.19487
3.84929
5.13948
7.72752
13.1587
25.935
61.6789
181.67
685.849
0.0423234
0.379146
0.717115
0.905731
1.15302
1.43271
1.74629
2.04774
2.31513
2.5524
2.80751
3.18831
3.853
5.15194
7.75341
13.1861
25.9793
61.5376
182.955
689.74
0.053741
0.417778
0.732675
0.908892
1.14739
1.42131
1.72968
2.02853
2.29556
2.53479
2.79373
3.18016
3.85443
5.16137
7.77527
13.2076
26.0163
61.3839
184.34
693.748
0.0683481
0.454374
0.741398
0.905775
1.13573
1.40462
1.70914
2.00687
2.27469
2.51637
2.77901
3.17041
3.85333
5.1673
7.79228
13.2221
26.0441
61.2139
185.803
697.747
0.0870067
0.486972
0.74265
0.895975
1.11787
1.38266
1.68484
1.98298
2.25275
2.49734
2.76347
3.15908
3.84947
5.16927
7.80366
13.2284
26.0613
61.0246
187.326
701.635
0.110724
0.513527
0.735957
0.87923
1.09375
1.35553
1.65702
1.95716
2.22999
2.47788
2.74721
3.1462
3.84265
5.16686
7.80864
13.2253
26.0663
60.8136
188.892
705.348
0.140555
0.532145
0.721054
0.855429
1.06346
1.32349
1.62602
1.92977
2.20672
2.45822
2.73041
3.13184
3.83275
5.15973
7.80656
13.2122
26.0575
60.5779
190.488
708.861
0.177867
0.540979
0.69792
0.824655
1.0273
1.28693
1.59231
1.90125
2.18332
2.43866
2.71328
3.11616
3.81977
5.14768
7.79702
13.1885
26.0352
60.3157
192.1
712.201
0.224328
0.538607
0.666972
0.787336
0.985915
1.2465
1.55651
1.87214
2.16024
2.41955
2.69613
3.0994
3.80388
5.13073
7.78002
13.1543
26.0021
60.0352
193.751
715.522
0.307553
0.520374
0.620446
0.735638
0.932461
1.19629
1.51411
1.8391
2.13499
2.39885
2.67701
3.0793
3.78152
5.10464
7.75029
13.1007
25.9425
59.6533
195.588
719.839
0.438283
0.48276
0.547516
0.667614
0.859698
1.13072
1.45977
1.79942
2.10576
2.3734
2.64879
3.04348
3.73948
5.05265
7.67638
13.0767
25.4736
58.9047
183.313
712.458
0.380009
0.411461
0.476974
0.596638
0.789814
1.06708
1.40956
1.76559
2.08475
2.35836
2.63292
3.02132
3.70772
5.0081
7.61553
13.0097
25.2797
58.4771
175.686
704.394
0.310532
0.341432
0.405646
0.522179
0.714062
0.996747
1.35339
1.72694
2.05957
2.33913
2.61345
2.99648
3.6732
4.96017
7.55162
12.9282
25.1413
57.887
171.322
697.989
0.25228
0.281567
0.341738
0.452865
0.641542
0.928531
1.29948
1.69135
2.03818
2.32438
2.59825
2.97475
3.64045
4.91261
7.48644
12.846
24.9927
57.3719
168.791
693.967
0.206751
0.231746
0.285365
0.388879
0.572201
0.862168
1.24724
1.65812
2.02008
2.31355
2.58664
2.95589
3.60986
4.86657
7.42167
12.7636
24.8439
56.9344
167.111
692.08
0.172989
0.192475
0.238201
0.332502
0.509479
0.801355
1.19999
1.63014
2.00731
2.30764
2.5793
2.94051
3.58209
4.8228
7.35837
12.6836
24.7073
56.5431
165.825
691.818
0.149699
0.163273
0.200635
0.285623
0.455223
0.747802
1.15946
1.60869
2.00061
2.30718
2.57657
2.92898
3.55786
4.78238
7.29879
12.6099
24.5846
56.1674
164.625
692.223
0.135098
0.143317
0.17292
0.248616
0.410281
0.702725
1.12694
1.5947
2.00059
2.31258
2.57883
2.92172
3.53755
4.74621
7.2442
12.5435
24.481
55.7986
163.284
691.928
0.127699
0.131449
0.154055
0.22113
0.375158
0.667106
1.10326
1.58861
2.00736
2.32376
2.58612
2.91915
3.52174
4.71501
7.19573
12.4867
24.4031
55.444
161.664
689.622
0.125475
0.125779
0.142795
0.202725
0.350295
0.641878
1.08905
1.59063
2.02092
2.34053
2.59819
2.92107
3.51065
4.68932
7.15425
12.4404
24.3514
55.1229
159.613
684.909
0.126339
0.124518
0.137607
0.192396
0.335887
0.628597
1.08493
1.60066
2.04072
2.36222
2.61456
2.92717
3.50431
4.66947
7.12033
12.4046
24.3254
54.8401
157.065
676.044
0.12826
0.125364
0.135984
0.187481
0.329167
0.625748
1.09305
1.62072
2.06737
2.38856
2.63483
2.93715
3.50265
4.65561
7.09436
12.3791
24.3276
54.6224
153.78
660.588
0.130062
0.127292
0.137085
0.187398
0.33009
0.633562
1.11305
1.65072
2.1008
2.41931
2.65834
2.95027
3.5049
4.647
7.07594
12.364
24.361
54.5167
150.266
640.112
0.131009
0.129709
0.140388
0.191907
0.339062
0.653124
1.14591
1.69082
2.14049
2.45366
2.6843
2.96577
3.51026
4.64258
7.06333
12.3563
24.4179
54.5616
147.039
618.479
0.130801
0.132474
0.145811
0.201267
0.356952
0.685741
1.19239
1.74064
2.18529
2.49039
2.71165
2.98274
3.518
4.64167
7.0559
12.3553
24.4932
54.764
144.701
600.145
0.130001
0.136016
0.15385
0.216431
0.385469
0.733101
1.25246
1.79841
2.23319
2.5278
2.73904
3.00015
3.52738
4.64371
7.05299
12.3597
24.5797
55.0945
144.182
587.241
0.130141
0.14138
0.16563
0.239224
0.427379
0.797568
1.32612
1.86246
2.28238
2.5644
2.76546
3.01743
3.53801
4.64814
7.05383
12.3683
24.6718
55.5081
144.703
581.241
0.133288
0.150042
0.183182
0.273204
0.487518
0.882451
1.41343
1.9318
2.33245
2.60035
2.79112
3.03457
3.54979
4.65505
7.05826
12.38
24.7657
55.9612
145.874
581.667
0.13945
0.162915
0.209627
0.323864
0.571808
0.989968
1.51182
2.00255
2.3802
2.633
2.81434
3.05093
3.56248
4.66405
7.06652
12.3948
24.8677
56.337
147.508
587.551
0.0814479
0.390241
0.387831
0.315951
0.253714
0.206866
0.173444
0.15132
0.138242
0.13209
0.131024
0.132698
0.135065
0.136727
0.136807
0.134486
0.130128
0.125556
0.123767
0.124431
0.0446706
0.341556
0.399679
0.330415
0.264559
0.215106
0.180293
0.157507
0.144082
0.137376
0.135829
0.137211
0.139423
0.140917
0.140585
0.137028
0.130354
0.122005
0.115539
0.111743
0.0251217
0.288368
0.399745
0.343351
0.277217
0.226315
0.190271
0.166445
0.151865
0.143544
0.140157
0.140079
0.141299
0.142025
0.141072
0.136908
0.12939
0.118934
0.108401
0.100547
0.0129457
0.231791
0.38546
0.353372
0.290751
0.239662
0.202806
0.177921
0.162054
0.152093
0.146578
0.144498
0.144404
0.143776
0.141535
0.136397
0.128479
0.117529
0.105413
0.094279
0.0072785
0.168167
0.352863
0.356326
0.302334
0.25273
0.215622
0.189875
0.172909
0.161745
0.155002
0.151317
0.149518
0.146502
0.1423
0.136507
0.129046
0.119187
0.10677
0.0936543
0.00454322
0.114594
0.294915
0.343082
0.307668
0.261851
0.224864
0.198069
0.179338
0.165777
0.155656
0.148743
0.143459
0.139474
0.134816
0.130599
0.12581
0.119387
0.108122
0.0944791
0.00287104
0.0749993
0.227182
0.304101
0.298869
0.265108
0.231038
0.203825
0.183492
0.167729
0.154748
0.145227
0.13997
0.136365
0.130833
0.125533
0.121042
0.115825
0.10588
0.0928155
0.00178509
0.0478974
0.165038
0.250134
0.271957
0.257444
0.232279
0.208088
0.188218
0.172384
0.159921
0.150718
0.144104
0.138235
0.131013
0.123958
0.118173
0.111915
0.101883
0.0895739
0.00108116
0.0297002
0.113868
0.192019
0.230423
0.235523
0.223786
0.206894
0.190444
0.176211
0.164491
0.15482
0.14595
0.137411
0.128561
0.120428
0.113333
0.105944
0.0963445
0.0854232
0.000633039
0.0177586
0.0752934
0.138947
0.181974
0.200613
0.202193
0.19498
0.18449
0.17354
0.163237
0.153655
0.143657
0.133642
0.123704
0.114558
0.106176
0.0977279
0.0883953
0.0788475
0.000355541
0.0101479
0.0476871
0.0952832
0.134493
0.158818
0.169542
0.171013
0.16714
0.160557
0.152701
0.144146
0.134722
0.124725
0.114666
0.105223
0.096401
0.0877712
0.0789232
0.0704119
0.000190327
0.00550649
0.0288674
0.0624261
0.093836
0.117427
0.131999
0.138887
0.140213
0.137776
0.132848
0.126219
0.118506
0.109905
0.101055
0.0924855
0.0842424
0.0762143
0.0682054
0.0607073
9.74829e-05
0.00284961
0.0166051
0.0391935
0.0625225
0.0820505
0.0962752
0.105094
0.109249
0.109727
0.107414
0.10303
0.0974861
0.0910348
0.0841986
0.0772976
0.0704329
0.0635568
0.0566204
0.0501699
4.82465e-05
0.00142002
0.00900613
0.0235063
0.0400275
0.0549297
0.0667251
0.0750752
0.0800595
0.0820696
0.0816111
0.0792091
0.0756635
0.0713569
0.0665897
0.0615162
0.056225
0.0506503
0.0448464
0.0393428
2.29303e-05
0.000675804
0.004567
0.01331
0.0245004
0.0354128
0.0445888
0.0515356
0.0561936
0.0587073
0.0593358
0.0583828
0.0563627
0.0537097
0.0505234
0.0468529
0.0427184
0.038161
0.0333386
0.0287237
1.03587e-05
0.000303916
0.00210583
0.00686318
0.0139459
0.0215907
0.0285035
0.0340892
0.038146
0.0406788
0.0418236
0.041746
0.0406748
0.0389407
0.0365492
0.0335603
0.0300481
0.0262098
0.0222352
0.0185433
4.0276e-06
0.000116725
0.000799874
0.00288468
0.00674861
0.0116028
0.0164849
0.0207469
0.0240735
0.0263479
0.0275507
0.0277148
0.0268528
0.0252915
0.0231002
0.0204441
0.0175341
0.0145766
0.0117075
0.00927662
1.20891e-06
3.45765e-05
0.00023469
0.000853427
0.00227216
0.00458887
0.00729657
0.00986914
0.011927
0.0132521
0.0137311
0.0133376
0.0122335
0.0108869
0.00938272
0.00782984
0.00632648
0.004913
0.0036729
0.00282626
2.5746e-07
7.2643e-06
4.60721e-05
0.000161601
0.000431011
0.000963572
0.00170101
0.0024232
0.00295343
0.00317405
0.00304478
0.00263476
0.00226736
0.00192116
0.00158547
0.00126271
0.000955263
0.000694654
0.000503585
0.00040205
3.11893e-08
7.06114e-07
3.07743e-06
9.15834e-06
2.18433e-05
4.42844e-05
7.71444e-05
0.000110016
0.000130191
0.00013237
0.000118541
9.88905e-05
8.40901e-05
7.07324e-05
5.80138e-05
4.59442e-05
3.48131e-05
2.55354e-05
1.88322e-05
1.48536e-05
)
;

boundaryField
{
    right
    {
        type            cyclic;
    }
    left
    {
        type            cyclic;
    }
    outerWall
    {
        type            kqRWallFunction;
        value           nonuniform List<scalar> 
60
(
598.293
603.835
606.98
609.239
611.192
613.816
618.308
625.72
636.447
649.428
662.311
675.581
690.622
709.099
730.607
743.132
742.076
727.397
711.689
696.743
681.107
678.473
675.983
674.041
672.838
672.461
672.931
674.222
676.269
678.975
682.213
685.849
689.74
693.748
697.747
701.635
705.348
708.861
712.201
715.522
719.839
712.458
704.394
697.989
693.967
692.08
691.818
692.223
691.928
689.622
684.909
676.044
660.588
640.112
618.479
600.145
587.241
581.241
581.667
587.551
)
;
    }
    stirrerWall
    {
        type            kqRWallFunction;
        value           nonuniform List<scalar> 
100
(
1.17016e-05
9.48962e-06
7.37592e-06
4.95844e-06
3.1304e-06
2.26205e-06
1.97378e-06
2.12874e-06
2.69616e-06
3.79328e-06
5.6812e-06
8.32564e-06
1.13949e-05
1.40864e-05
1.51998e-05
1.36381e-05
9.24843e-06
4.00373e-06
9.25608e-07
3.59402e-08
3.59402e-08
3.782e-07
1.04777e-06
2.78152e-06
6.9645e-06
1.63811e-05
3.6348e-05
7.79743e-05
0.000176712
0.000427575
0.000923134
0.00167585
0.00192951
0.00169581
0.00116875
0.000611022
0.00036703
0.000220672
0.000126509
0.000247372
0.004253
0.00456608
0.00523043
0.00614688
0.00734682
0.00889922
0.0108999
0.0134728
0.0167765
0.0210141
0.026446
0.0334066
0.0423234
0.053741
0.0683481
0.0870067
0.110724
0.140555
0.177867
0.224328
0.0814479
0.0446706
0.0251217
0.0129457
0.0072785
0.00454322
0.00287104
0.00178509
0.00108116
0.000633039
0.000355541
0.000190327
9.74829e-05
4.82465e-05
2.29303e-05
1.03587e-05
4.0276e-06
1.20891e-06
2.5746e-07
3.11893e-08
3.11893e-08
7.06114e-07
3.07743e-06
9.15834e-06
2.18433e-05
4.42844e-05
7.71444e-05
0.000110016
0.000130191
0.00013237
0.000118541
9.88905e-05
8.40901e-05
7.07324e-05
5.80138e-05
4.59442e-05
3.48131e-05
2.55354e-05
1.88322e-05
1.48536e-05
)
;
    }
    top
    {
        type            empty;
    }
    bottom
    {
        type            empty;
    }
}


// ************************************************************************* //
