/*--------------------------------*- C++ -*----------------------------------*\
  =========                 |
  \\      /  F ield         | OpenFOAM: The Open Source CFD Toolbox
   \\    /   O peration     | Website:  https://openfoam.org
    \\  /    A nd           | Version:  10
     \\/     M anipulation  |
\*---------------------------------------------------------------------------*/
FoamFile
{
    format      ascii;
    class       volScalarField;
    location    "400";
    object      nut;
}
// * * * * * * * * * * * * * * * * * * * * * * * * * * * * * * * * * * * * * //

dimensions      [0 2 -1 0 0 0 0];

internalField   nonuniform List<scalar> 
2000
(
1.34788e-10
1.98127e-08
2.92995e-07
1.32672e-06
3.50823e-06
7.10966e-06
1.2366e-05
1.9302e-05
2.76288e-05
3.66173e-05
4.51545e-05
5.20481e-05
5.66005e-05
5.97411e-05
6.11162e-05
6.08898e-05
6.16474e-05
6.55651e-05
7.28751e-05
8.314e-05
1.09305e-10
1.63104e-08
2.58993e-07
1.12517e-06
2.81656e-06
5.50394e-06
9.37433e-06
1.44718e-05
2.05636e-05
2.71049e-05
3.33252e-05
3.83562e-05
4.18788e-05
4.43061e-05
4.5612e-05
4.6559e-05
4.91048e-05
5.5394e-05
6.6255e-05
8.08584e-05
8.49569e-11
1.22208e-08
2.10902e-07
1.00461e-06
2.46213e-06
4.55464e-06
7.42273e-06
1.11146e-05
1.548e-05
2.01615e-05
2.46517e-05
2.83751e-05
3.11745e-05
3.3459e-05
3.54305e-05
3.80204e-05
4.31112e-05
5.25871e-05
6.66598e-05
8.42017e-05
5.7111e-11
8.57511e-09
1.48089e-07
8.07404e-07
2.15942e-06
3.9353e-06
6.15806e-06
8.89458e-06
1.20648e-05
1.54645e-05
1.87798e-05
2.16815e-05
2.41587e-05
2.66311e-05
2.95534e-05
3.42271e-05
4.23495e-05
5.51792e-05
7.17646e-05
9.09155e-05
3.60554e-11
5.60083e-09
9.84593e-08
5.68574e-07
1.69584e-06
3.3702e-06
5.24378e-06
7.3884e-06
9.79752e-06
1.23758e-05
1.49709e-05
1.74557e-05
1.99449e-05
2.29733e-05
2.74023e-05
3.48453e-05
4.64078e-05
6.25935e-05
7.97336e-05
9.77398e-05
2.60538e-11
3.96852e-09
6.70964e-08
3.81156e-07
1.20776e-06
2.65153e-06
4.38792e-06
6.21654e-06
8.17802e-06
1.02788e-05
1.25126e-05
1.49452e-05
1.78837e-05
2.21529e-05
2.9092e-05
4.03343e-05
5.52622e-05
7.33781e-05
8.46942e-05
9.5196e-05
2.27337e-11
3.39782e-09
5.36737e-08
2.7336e-07
8.22261e-07
1.87772e-06
3.44041e-06
5.14062e-06
6.87655e-06
8.76445e-06
1.09644e-05
1.38644e-05
1.82976e-05
2.5198e-05
3.62439e-05
5.28381e-05
6.56367e-05
7.38296e-05
7.85503e-05
8.40725e-05
2.45188e-11
3.65239e-09
5.40774e-08
2.39286e-07
6.26554e-07
1.32957e-06
2.48802e-06
4.07469e-06
5.7824e-06
7.71876e-06
1.03534e-05
1.4723e-05
2.28776e-05
3.48865e-05
4.68528e-05
5.7093e-05
6.27337e-05
6.38287e-05
6.35378e-05
6.609e-05
3.10549e-11
4.62484e-09
6.50395e-08
2.58649e-07
5.93218e-07
1.0972e-06
1.93239e-06
3.26875e-06
5.00467e-06
7.33949e-06
1.12332e-05
1.8599e-05
2.85307e-05
3.93207e-05
4.80992e-05
5.28141e-05
5.28281e-05
4.94953e-05
4.70895e-05
4.79976e-05
4.36929e-11
6.3088e-09
8.37146e-08
3.09825e-07
6.6778e-07
1.13214e-06
1.79273e-06
2.94296e-06
4.73932e-06
7.8635e-06
1.33052e-05
2.1305e-05
3.08765e-05
4.00523e-05
4.56032e-05
4.55267e-05
4.09938e-05
3.49133e-05
3.1037e-05
3.11915e-05
6.54412e-11
8.8916e-09
1.06562e-07
3.69649e-07
7.88848e-07
1.34518e-06
2.03343e-06
3.12737e-06
4.97449e-06
8.88462e-06
1.33447e-05
2.32529e-05
3.21522e-05
3.88616e-05
4.04859e-05
3.65902e-05
2.85182e-05
2.18337e-05
1.84225e-05
1.86064e-05
9.59061e-11
1.22277e-08
1.31945e-07
4.22895e-07
8.93763e-07
1.62573e-06
2.6001e-06
3.92944e-06
5.95084e-06
8.37372e-06
1.30786e-05
2.4057e-05
3.16265e-05
3.63322e-05
3.52409e-05
2.88693e-05
1.96237e-05
1.34185e-05
1.04204e-05
1.01863e-05
1.31269e-10
1.56843e-08
1.50641e-07
4.47806e-07
9.53713e-07
1.86163e-06
3.28865e-06
5.08275e-06
7.24968e-06
9.65324e-06
1.47001e-05
2.37217e-05
3.06533e-05
3.36236e-05
3.10009e-05
2.38441e-05
1.44747e-05
8.79219e-06
5.97002e-06
5.25538e-06
1.62283e-10
1.82159e-08
1.53027e-07
4.22776e-07
9.09081e-07
1.88489e-06
3.68682e-06
6.09576e-06
8.65945e-06
1.07379e-05
1.64204e-05
2.39181e-05
2.94924e-05
3.1546e-05
2.84666e-05
2.11871e-05
1.25824e-05
7.31983e-06
4.18952e-06
2.91705e-06
1.75121e-10
1.84946e-08
1.33017e-07
3.44543e-07
7.50146e-07
1.63002e-06
3.49106e-06
6.53831e-06
9.69197e-06
1.09352e-05
1.60047e-05
2.3347e-05
2.8281e-05
3.01949e-05
2.77117e-05
2.1323e-05
1.43354e-05
7.71404e-06
3.74745e-06
2.04653e-06
1.57139e-10
1.54277e-08
9.23826e-08
2.28577e-07
5.09269e-07
1.15528e-06
2.67486e-06
5.89784e-06
9.64866e-06
1.08313e-05
1.45912e-05
1.97198e-05
2.70446e-05
2.87846e-05
2.69537e-05
2.25105e-05
1.58955e-05
7.95877e-06
3.53971e-06
1.68219e-06
1.06569e-10
9.17348e-09
4.42599e-08
1.0807e-07
2.49283e-07
5.86282e-07
1.41617e-06
3.46575e-06
6.91097e-06
8.98724e-06
1.07994e-05
1.35104e-05
1.55699e-05
1.74109e-05
2.12646e-05
2.03173e-05
1.28422e-05
5.98467e-06
2.60655e-06
1.17549e-06
4.61385e-11
2.69488e-09
1.05505e-08
2.71614e-08
6.6855e-08
1.63144e-07
3.97223e-07
9.75632e-07
2.32281e-06
4.36783e-06
7.28776e-06
9.57565e-06
1.05094e-05
1.19669e-05
1.26753e-05
9.97869e-06
5.38842e-06
2.5219e-06
1.14717e-06
5.22818e-07
1.06675e-11
1.98923e-10
6.53102e-10
1.87534e-09
5.127e-09
1.336e-08
3.34622e-08
8.27653e-08
2.08121e-07
4.53941e-07
8.82785e-07
1.59345e-06
1.94297e-06
1.93557e-06
1.63085e-06
1.15155e-06
6.82901e-07
3.71961e-07
1.77425e-07
8.01378e-08
1.06306e-13
1.28625e-12
4.06011e-12
1.2183e-11
3.42368e-11
8.98138e-11
2.21016e-10
5.23152e-10
1.30218e-09
3.44608e-09
8.10616e-09
1.59769e-08
1.99069e-08
1.88768e-08
1.39979e-08
7.85346e-09
5.0504e-09
3.24351e-09
1.98206e-09
4.12304e-09
9.66804e-05
0.000118394
0.000165183
0.000278233
0.000539567
0.00105893
0.00190362
0.00303126
0.00431894
0.0056265
0.0068321
0.00784943
0.0086301
0.00920765
0.0100843
0.0117157
0.0147193
0.0195465
0.025887
0.037712
9.90013e-05
0.000127382
0.000186572
0.000321413
0.000617494
0.00117861
0.00205095
0.00317544
0.00443843
0.00571814
0.0068983
0.00788821
0.00864579
0.00921116
0.0100867
0.0117158
0.0147373
0.0196743
0.0261704
0.0381016
0.00010526
0.000138973
0.000208227
0.000358967
0.000680958
0.00127448
0.00216622
0.00328396
0.00452612
0.00578547
0.00694812
0.00791792
0.0086579
0.00921425
0.0100899
0.0117165
0.0147535
0.0198018
0.0264364
0.0383061
0.000112937
0.000149874
0.000224889
0.000383735
0.000722603
0.00134109
0.00224768
0.00335895
0.00458621
0.00583328
0.00698564
0.0079406
0.00866636
0.00921611
0.010093
0.0117171
0.0147667
0.0199318
0.0267247
0.0384685
0.00011744
0.00015317
0.000228324
0.000391987
0.000739411
0.0013738
0.00229328
0.00340067
0.00461988
0.00586256
0.00701158
0.00795703
0.00867197
0.00921716
0.0100958
0.0117174
0.0147753
0.0200602
0.0270423
0.0386144
0.000111471
0.000144678
0.000218064
0.000382507
0.000737026
0.00138212
0.00230382
0.00341161
0.00462999
0.00587609
0.00702819
0.00796866
0.00867555
0.00921787
0.0100988
0.0117173
0.0147785
0.0201828
0.0273973
0.0388046
9.64909e-05
0.000126388
0.000196171
0.000357698
0.000714259
0.00136826
0.00229484
0.00339933
0.00462084
0.00587685
0.007037
0.00797615
0.0086773
0.00921825
0.0101016
0.0117171
0.014776
0.0202947
0.0277914
0.0391209
7.65275e-05
0.0001033
0.00016758
0.00032283
0.000676554
0.00133591
0.00226788
0.0033756
0.0046035
0.00586754
0.00703949
0.00798024
0.00867739
0.00921821
0.010104
0.0117164
0.0147675
0.0203901
0.0282157
0.0396347
5.61703e-05
7.89094e-05
0.00013636
0.000282626
0.000630277
0.00129239
0.0022303
0.00334448
0.00458203
0.00585732
0.0070398
0.00798291
0.00867711
0.00921839
0.0101064
0.0117157
0.0147533
0.0204652
0.0286543
0.04037
3.77613e-05
5.66195e-05
0.00010664
0.000242175
0.000581176
0.00124522
0.00219071
0.0033134
0.0045623
0.00584912
0.00704158
0.00798655
0.00867731
0.00921927
0.0101089
0.0117155
0.0147347
0.0205189
0.0290906
0.041251
2.36962e-05
3.87206e-05
8.13354e-05
0.000205588
0.000534839
0.00120069
0.00215519
0.00328815
0.00454825
0.00584505
0.00704459
0.00799171
0.00867792
0.00922068
0.0101116
0.0117161
0.0147132
0.0205527
0.0295181
0.0421235
1.36869e-05
2.51891e-05
6.1085e-05
0.00017478
0.000495143
0.00116426
0.00212897
0.00327256
0.00454361
0.00584809
0.00705128
0.00799929
0.00867996
0.00922317
0.0101148
0.0117178
0.0146898
0.0205623
0.0299315
0.043019
7.33979e-06
1.5838e-05
4.61099e-05
0.000150972
0.000465149
0.00114058
0.00211606
0.0032694
0.00454978
0.00585959
0.00706345
0.00800949
0.00868346
0.00922696
0.0101184
0.0117211
0.0146654
0.0205436
0.030316
0.0440439
3.80135e-06
9.87284e-06
3.59331e-05
0.000134556
0.000446881
0.00113212
0.00211684
0.00327759
0.00456529
0.00587838
0.00708064
0.00802233
0.00868824
0.0092321
0.0101226
0.0117261
0.014641
0.0204944
0.0306401
0.0453398
2.10253e-06
6.43541e-06
2.98923e-05
0.000125507
0.000441699
0.00113996
0.0021316
0.0032969
0.00458934
0.00590353
0.00710215
0.00803729
0.00869446
0.00923858
0.0101271
0.0117329
0.0146176
0.0204202
0.0308539
0.0468836
1.40439e-06
4.99654e-06
2.75523e-05
0.00012389
0.000450152
0.00116421
0.00215988
0.00332658
0.00462102
0.00593443
0.0071279
0.00805547
0.00870212
0.00924641
0.0101319
0.0117414
0.0145968
0.020348
0.0309312
0.0478372
9.17284e-07
4.27199e-06
2.78232e-05
0.000131705
0.000482618
0.00121849
0.00220994
0.00337153
0.0046638
0.00597274
0.00715795
0.00807616
0.00871084
0.00925531
0.010137
0.0117515
0.0145763
0.0202925
0.0308734
0.0478522
5.05755e-07
3.94079e-06
3.06007e-05
0.000150313
0.000542643
0.00130113
0.00227845
0.00342989
0.00471631
0.00601703
0.0071912
0.00809862
0.00872036
0.00926509
0.0101423
0.0117634
0.0145535
0.0202618
0.0306344
0.0469646
2.43521e-07
3.78695e-06
3.60347e-05
0.000182294
0.000634777
0.00140715
0.00236036
0.00349889
0.0047765
0.00606564
0.00722652
0.00812218
0.00873037
0.00927557
0.0101477
0.0117753
0.0145269
0.020244
0.030316
0.0460844
1.06827e-07
3.68158e-06
4.51623e-05
0.000237995
0.000766535
0.00120568
0.00187123
0.00272092
0.00390775
0.0054977
0.00726286
0.00814676
0.00874087
0.00928702
0.0101531
0.0117806
0.0145014
0.0201709
0.0300232
0.0447483
4.96251e-08
4.31452e-06
6.71535e-05
0.000336299
0.000742581
0.00107188
0.00160617
0.00231211
0.00322936
0.00444977
0.00617533
0.00816609
0.00875002
0.00929561
0.0101613
0.0117797
0.0144813
0.0200221
0.0294674
0.0433972
5.33177e-08
4.65575e-06
7.27996e-05
0.000359996
0.000799923
0.00117113
0.00164763
0.00229512
0.00303634
0.00405635
0.00546058
0.008017
0.00875686
0.00930176
0.0101679
0.0117808
0.0144801
0.0199753
0.0293744
0.0430336
6.11157e-08
5.30595e-06
8.19471e-05
0.00039498
0.00072826
0.00109351
0.00153987
0.00216283
0.00287179
0.00384123
0.00518855
0.00758457
0.00877206
0.00931814
0.0101852
0.0117927
0.0144897
0.0199267
0.0292736
0.0426581
7.18656e-08
6.17319e-06
9.35705e-05
0.000435836
0.000700067
0.00107078
0.00149857
0.00210607
0.00278975
0.00372365
0.00503386
0.00730292
0.0087885
0.00933698
0.0102059
0.0118085
0.0145044
0.0198831
0.0291913
0.0423907
8.5937e-08
7.28015e-06
0.000107976
0.000451911
0.000693765
0.00107451
0.00148675
0.00208419
0.00274703
0.00365582
0.00494255
0.00711825
0.0088054
0.00935774
0.0102293
0.0118277
0.0145237
0.0198459
0.0291316
0.0422065
1.04139e-07
8.67678e-06
0.000125622
0.000466919
0.000693257
0.00108337
0.00148062
0.00206982
0.00271545
0.00360529
0.00487463
0.00697607
0.00882235
0.00938001
0.0102551
0.01185
0.0145472
0.0198153
0.0290963
0.042088
1.27592e-07
1.04337e-05
0.000147018
0.00048489
0.000696217
0.00109483
0.00147785
0.00206029
0.00269182
0.00356655
0.00482499
0.00686783
0.00883899
0.00940342
0.0102829
0.0118752
0.0145747
0.0197908
0.0290865
0.0420307
1.57749e-07
1.26431e-05
0.000172517
0.00050607
0.000701758
0.00110817
0.00147814
0.00205531
0.00267592
0.00353937
0.00479435
0.00679176
0.00885493
0.00942752
0.0103122
0.0119026
0.0146056
0.0197718
0.029102
0.0420307
1.96465e-07
1.54164e-05
0.000202409
0.000530192
0.000709446
0.00112286
0.00148119
0.00205459
0.00266748
0.0035236
0.00478074
0.0067455
0.00886979
0.00945184
0.0103426
0.0119317
0.0146392
0.0197573
0.0291421
0.0420765
2.46109e-07
1.88737e-05
0.000237194
0.000556585
0.000719106
0.00113869
0.00148686
0.0020581
0.00266649
0.00351874
0.00478286
0.00672558
0.00888317
0.00947587
0.0103734
0.0119619
0.014675
0.0197461
0.0292051
0.0421528
3.09726e-07
2.31703e-05
0.000272029
0.000584662
0.000730306
0.00115556
0.00149521
0.0020661
0.00267326
0.00352507
0.00480147
0.00673131
0.00889464
0.00949906
0.0104041
0.0119923
0.0147121
0.0197367
0.0292888
0.0422599
3.91214e-07
2.84951e-05
0.000281476
0.000612179
0.000742751
0.00117354
0.00150653
0.00207905
0.00268821
0.00354336
0.00483662
0.00676114
0.00890377
0.00952079
0.010434
0.0120223
0.0147496
0.0197278
0.0293906
0.0423932
4.95554e-07
3.50706e-05
0.000289864
0.000636961
0.00075643
0.00119306
0.00152145
0.00209775
0.00271214
0.00357429
0.00488823
0.00681426
0.00891011
0.00954042
0.0104622
0.012051
0.0147866
0.0197176
0.0295074
0.0425336
6.29085e-07
4.315e-05
0.000296531
0.000663975
0.000771369
0.00121489
0.00154093
0.00212337
0.00274647
0.00361893
0.00495813
0.00689313
0.00891319
0.00955726
0.0104879
0.0120775
0.0148219
0.0197047
0.0296362
0.042667
7.9981e-07
5.30038e-05
0.000302498
0.000697067
0.000788068
0.00123997
0.001566
0.00215705
0.00279239
0.00367863
0.00504773
0.00699872
0.00891254
0.00957059
0.0105104
0.012101
0.0148545
0.0196877
0.0297744
0.0427823
1.01773e-06
6.4904e-05
0.000308918
0.000735279
0.000806757
0.00126922
0.00159729
0.0021992
0.00284964
0.00375282
0.00515437
0.00712755
0.00890771
0.00957968
0.0105286
0.0121203
0.0148833
0.0196652
0.0299197
0.0428681
1.29451e-06
7.9219e-05
0.000315462
0.000779869
0.000828034
0.00130624
0.00163776
0.00225396
0.00292185
0.00384533
0.00528298
0.00728546
0.00889825
0.00958382
0.0105418
0.0121347
0.0149071
0.0196363
0.0300704
0.0429113
1.64233e-06
9.7007e-05
0.00031956
0.0008324
0.000853172
0.00136061
0.00169748
0.00233774
0.00302926
0.00398224
0.00547854
0.00752427
0.00888383
0.00958236
0.0105491
0.0121433
0.0149248
0.0195996
0.0302253
0.0429284
2.07694e-06
0.000120202
0.00032526
0.000872659
0.000890169
0.00142662
0.00175657
0.00241198
0.00312069
0.00410337
0.00566124
0.0077867
0.00886432
0.00957481
0.0105499
0.0121454
0.0149357
0.0195546
0.0303835
0.0431098
2.61752e-06
0.000153278
0.000369514
0.000832736
0.000986636
0.00134732
0.00165522
0.00214032
0.00276749
0.00359069
0.0049306
0.00679814
0.00883988
0.009561
0.0105439
0.0121408
0.0149402
0.0195023
0.0305472
0.0445539
2.29282e-05
0.000211392
0.000323968
0.000673094
0.0009493
0.00148378
0.00209615
0.00288669
0.00387216
0.00507082
0.00680261
0.00793583
0.0088053
0.00953674
0.0105277
0.0121257
0.0149339
0.0194276
0.0307334
0.0456343
0.000134689
0.000211818
0.000340353
0.000547753
0.000897219
0.00141134
0.00207649
0.0030051
0.00416167
0.00544105
0.00671702
0.00786936
0.00876114
0.0094987
0.0104898
0.0121146
0.0148287
0.0193322
0.0293741
0.0448093
0.000160241
0.000208368
0.000303796
0.00047746
0.000764367
0.00120723
0.0018553
0.00277113
0.00401403
0.00535324
0.00664758
0.00782013
0.00872872
0.00946891
0.0104578
0.0120886
0.0147867
0.0192842
0.0285367
0.0442913
0.000159088
0.000210815
0.000307541
0.000484378
0.000781883
0.00118957
0.00183711
0.00276906
0.00394893
0.00526062
0.0065732
0.00776736
0.00869295
0.00943662
0.0104233
0.0120565
0.0147553
0.0191967
0.028058
0.043908
0.000156112
0.000202692
0.000293364
0.000463812
0.000688638
0.00108123
0.00172033
0.00265448
0.00384625
0.00517451
0.00650509
0.00771824
0.00865913
0.00940457
0.0103878
0.0120234
0.0147203
0.0191131
0.0277722
0.0436247
0.000153635
0.000198372
0.000283164
0.000392705
0.000600966
0.000978136
0.00160869
0.00254536
0.00375007
0.00509599
0.00644324
0.00767291
0.00862744
0.00937332
0.0103519
0.0119896
0.0146847
0.0190359
0.0275691
0.0434705
0.000155554
0.00019008
0.00023463
0.000330177
0.000522526
0.000884542
0.00150658
0.00244621
0.00366429
0.00502729
0.00638925
0.00763241
0.00859854
0.00934331
0.0103161
0.011956
0.0146527
0.0189625
0.0273951
0.0434194
0.000149868
0.000161129
0.000195591
0.000278367
0.000455373
0.000802576
0.00141657
0.00235961
0.00359102
0.0049702
0.00634431
0.00759752
0.00857313
0.00931526
0.0102817
0.0119242
0.014626
0.0188919
0.0272152
0.0434054
0.000135739
0.000140768
0.000166438
0.000237447
0.000399995
0.000733142
0.00134003
0.00228714
0.00353181
0.004926
0.00630961
0.00756941
0.00855167
0.00928986
0.0102495
0.0118946
0.0146065
0.0188277
0.0270058
0.043341
0.000127971
0.000127963
0.000145985
0.00020659
0.000356117
0.00067636
0.00127707
0.00222898
0.00348701
0.00489499
0.00628568
0.00754918
0.00853476
0.00926754
0.01022
0.0118681
0.014596
0.0187763
0.0267555
0.0432263
0.000124558
0.000120775
0.000132786
0.000184959
0.000323644
0.000632795
0.00122835
0.00218538
0.00345669
0.00487725
0.00627276
0.0075371
0.00852257
0.00924859
0.0101938
0.0118448
0.0145941
0.0187442
0.0264561
0.0430106
0.000123494
0.000117438
0.000125241
0.000171228
0.000302188
0.00060368
0.00119488
0.00215724
0.00344119
0.00487293
0.00627158
0.00753299
0.00851503
0.00923316
0.0101711
0.0118244
0.0145996
0.0187365
0.0261139
0.0424806
0.000122914
0.000115744
0.000120819
0.000162504
0.000288374
0.000586483
0.00117956
0.00215013
0.00344542
0.00488493
0.00628343
0.00753671
0.00851201
0.00922127
0.0101521
0.0118069
0.0146119
0.018761
0.0257275
0.0415214
0.000121795
0.000114702
0.000118562
0.000157919
0.000281624
0.000580837
0.00118152
0.00216485
0.00347209
0.00491628
0.00631037
0.00755028
0.00851408
0.00921248
0.0101365
0.0117919
0.0146292
0.0188207
0.0253548
0.0402278
0.000119473
0.000113658
0.00011777
0.000156883
0.000281769
0.000587393
0.00120232
0.00220328
0.00352269
0.00496774
0.00635189
0.00757301
0.00852075
0.0092061
0.010123
0.0117778
0.0146472
0.0189101
0.0250519
0.0386897
0.000115675
0.000112332
0.00011811
0.000159206
0.000289099
0.000607323
0.00124396
0.0022675
0.00359787
0.00503865
0.00640691
0.00760389
0.00853118
0.00920155
0.0101114
0.0117646
0.014663
0.0190151
0.0248746
0.0374737
0.000110708
0.000110829
0.000119639
0.000165205
0.000304696
0.000642753
0.00130877
0.00235828
0.00369663
0.00512679
0.00647326
0.00764136
0.00854449
0.00919843
0.0101015
0.011752
0.0146751
0.0191229
0.0249115
0.0367552
0.000105494
0.000109582
0.000122788
0.000175826
0.000330742
0.000697253
0.00140007
0.0024764
0.00381705
0.00522924
0.00654848
0.00768395
0.00856007
0.00919646
0.010093
0.0117404
0.0146836
0.0192261
0.0250628
0.0364125
0.000101205
0.000109162
0.000128531
0.000193287
0.000371616
0.000776969
0.00152286
0.00262338
0.00395802
0.00534455
0.00663144
0.00773079
0.00857762
0.00919601
0.0100862
0.0117296
0.0146897
0.0193219
0.0252733
0.0365881
9.79718e-05
0.000109897
0.000138803
0.000221954
0.000434738
0.000890784
0.00168358
0.00280101
0.0041183
0.00547045
0.0067202
0.00778096
0.0085968
0.00919672
0.0100815
0.0117198
0.0146964
0.0193993
0.0255125
0.0370422
1.35752e-06
7.31732e-05
0.000134804
0.00014104
0.000139139
0.000136841
0.000139062
0.000153489
0.000142249
0.000136761
0.000135213
0.000135295
0.000135323
0.000134145
0.000131023
0.000125365
0.000117343
0.000108164
9.98422e-05
9.25441e-05
6.99871e-07
4.84683e-05
0.000133457
0.000139993
0.000135685
0.000131702
0.000132327
0.000144221
0.000151186
0.000146533
0.000145496
0.000145717
0.000145681
0.000144171
0.000140418
0.000133492
0.000123361
0.000110981
9.89172e-05
8.82285e-05
3.69247e-07
3.39278e-05
0.000146511
0.000149352
0.000141384
0.000133638
0.000130474
0.000135822
0.00015884
0.000155912
0.000154186
0.000153483
0.000152439
0.000149785
0.000144944
0.000137036
0.000125957
0.000111963
9.71115e-05
8.37451e-05
1.78136e-07
2.31308e-05
0.000156065
0.000167853
0.000156763
0.000144371
0.00013637
0.000134746
0.000143807
0.000165334
0.000162581
0.00016048
0.000157942
0.000153411
0.00014668
0.000137328
0.000125619
0.000111385
9.5862e-05
8.07621e-05
9.35505e-08
1.31579e-05
0.000116971
0.000195473
0.00018357
0.000167116
0.000154135
0.000145922
0.000144745
0.000154695
0.000171176
0.000168042
0.00016369
0.000156335
0.000146951
0.000136136
0.000124299
0.000110958
9.59014e-05
8.02512e-05
5.4413e-08
7.16091e-06
6.85262e-05
0.000191455
0.000225474
0.000208439
0.000191231
0.00017863
0.00017319
0.000179533
0.000175527
0.000170593
0.000162701
0.000152468
0.000140955
0.000129994
0.000119406
0.000108376
9.47523e-05
7.97786e-05
3.19588e-08
3.91769e-06
3.69665e-05
0.000121679
0.000200368
0.000220682
0.000211969
0.000199071
0.000189131
0.000182301
0.00017686
0.000170058
0.000160397
0.000148498
0.00013536
0.000123179
0.000112615
0.000102469
9.01374e-05
7.65281e-05
1.84169e-08
2.21615e-06
2.04005e-05
6.96722e-05
0.000136789
0.000182721
0.000196888
0.000194707
0.000188333
0.000182026
0.000176084
0.000168799
0.000158095
0.000145155
0.000130821
0.000117399
0.000106032
9.5415e-05
8.33597e-05
7.09574e-05
1.03074e-08
1.25339e-06
1.1438e-05
3.88578e-05
8.23452e-05
0.000126961
0.00015707
0.00017056
0.000173637
0.000171735
0.000167277
0.000160354
0.000148853
0.000135084
0.000120785
0.00010775
9.6546e-05
8.61302e-05
7.50551e-05
6.40078e-05
5.5588e-09
6.9877e-07
6.52533e-06
2.19485e-05
4.75213e-05
7.84944e-05
0.000107082
0.000127681
0.000139379
0.000143971
0.000143421
0.000138971
0.000129422
0.000117441
0.000105036
9.36109e-05
8.34385e-05
7.3831e-05
6.40341e-05
5.46541e-05
2.86551e-09
3.77108e-07
3.7251e-06
1.25363e-05
2.72522e-05
4.6259e-05
6.62847e-05
8.39477e-05
9.70475e-05
0.000104894
0.00010776
0.000106261
0.000101009
9.31541e-05
8.43625e-05
7.57879e-05
6.77075e-05
5.97806e-05
5.16458e-05
4.39215e-05
1.40251e-09
1.94962e-07
2.11494e-06
7.2645e-06
1.57913e-05
2.70106e-05
3.95112e-05
5.15676e-05
6.16909e-05
6.8892e-05
7.27593e-05
7.33722e-05
7.15194e-05
6.7602e-05
6.25798e-05
5.71524e-05
5.15124e-05
4.55585e-05
3.92119e-05
3.31146e-05
6.54042e-10
9.66523e-08
1.1858e-06
4.26953e-06
9.34662e-06
1.59848e-05
2.35203e-05
3.10839e-05
3.7817e-05
4.30527e-05
4.63743e-05
4.76868e-05
4.75183e-05
4.60393e-05
4.36465e-05
4.06006e-05
3.69618e-05
3.26961e-05
2.79165e-05
2.32903e-05
2.93366e-10
4.59745e-08
6.48228e-07
2.53345e-06
5.66972e-06
9.71231e-06
1.42678e-05
1.89082e-05
2.31728e-05
2.66548e-05
2.90807e-05
3.03536e-05
3.07361e-05
3.03645e-05
2.93154e-05
2.75879e-05
2.51489e-05
2.20246e-05
1.84716e-05
1.50971e-05
1.25721e-10
2.05096e-08
3.35962e-07
1.49165e-06
3.50338e-06
6.0823e-06
8.94509e-06
1.18399e-05
1.45241e-05
1.67843e-05
1.8464e-05
1.94797e-05
1.99165e-05
1.98658e-05
1.92416e-05
1.79546e-05
1.60117e-05
1.35965e-05
1.10461e-05
8.78987e-06
5.09222e-11
8.4489e-09
1.53747e-07
8.14808e-07
2.1162e-06
3.83324e-06
5.7293e-06
7.62689e-06
9.37899e-06
1.08615e-05
1.19837e-05
1.26832e-05
1.2923e-05
1.2685e-05
1.18808e-05
1.05565e-05
8.90427e-06
7.1847e-06
5.60674e-06
4.34825e-06
1.76408e-11
2.88523e-09
5.28395e-08
3.33114e-07
1.05423e-06
2.14402e-06
3.39794e-06
4.64527e-06
5.76616e-06
6.67036e-06
7.28405e-06
7.53702e-06
7.2985e-06
6.63505e-06
5.67988e-06
4.63274e-06
3.64829e-06
2.79653e-06
2.09825e-06
1.60479e-06
4.68452e-12
7.43066e-10
1.27887e-08
7.67742e-08
2.78939e-07
6.89383e-07
1.22786e-06
1.76843e-06
2.21046e-06
2.48938e-06
2.56709e-06
2.42539e-06
2.06922e-06
1.68956e-06
1.33866e-06
1.04084e-06
7.9477e-07
5.87559e-07
4.23649e-07
3.35756e-07
8.75612e-13
1.35349e-10
1.72207e-09
7.74352e-09
2.38775e-08
6.03457e-08
1.14157e-07
1.66409e-07
2.03757e-07
2.17522e-07
2.0526e-07
1.72172e-07
1.43375e-07
1.17983e-07
9.50889e-08
7.44545e-08
5.52838e-08
3.8939e-08
2.7578e-08
2.32497e-08
9.22537e-14
8.13789e-12
3.54639e-11
1.05531e-10
2.5168e-10
5.10212e-10
8.88746e-10
1.26738e-09
1.49971e-09
1.52475e-09
1.36542e-09
1.13904e-09
9.68549e-10
8.14685e-10
6.68191e-10
5.29178e-10
4.00975e-10
2.94121e-10
2.16918e-10
1.71095e-10
)
;

boundaryField
{
    right
    {
        type            cyclic;
    }
    left
    {
        type            cyclic;
    }
    outerWall
    {
        type            nutkWallFunction;
        Cmu             0.09;
        kappa           0.41;
        E               9.8;
        value           uniform 0;
    }
    stirrerWall
    {
        type            nutkWallFunction;
        Cmu             0.09;
        kappa           0.41;
        E               9.8;
        value           uniform 0;
    }
    top
    {
        type            empty;
    }
    bottom
    {
        type            empty;
    }
}


// ************************************************************************* //
