/*--------------------------------*- C++ -*----------------------------------*\
  =========                 |
  \\      /  F ield         | OpenFOAM: The Open Source CFD Toolbox
   \\    /   O peration     | Website:  https://openfoam.org
    \\  /    A nd           | Version:  10
     \\/     M anipulation  |
\*---------------------------------------------------------------------------*/
FoamFile
{
    format      ascii;
    class       volScalarField;
    location    "400";
    object      nut;
}
// * * * * * * * * * * * * * * * * * * * * * * * * * * * * * * * * * * * * * //

dimensions      [0 2 -1 0 0 0 0];

internalField   nonuniform List<scalar> 
420
(
2.27291e-19
2.39692e-17
3.6045e-16
1.64983e-15
4.3812e-15
8.54898e-15
1.38608e-14
2.04493e-14
2.78175e-14
3.89204e-14
1.62394e-19
1.95479e-17
3.07806e-16
1.41268e-15
3.70029e-15
7.17264e-15
1.17866e-14
1.77833e-14
2.48682e-14
3.36115e-14
1.21728e-19
1.60555e-17
2.50431e-16
1.20823e-15
3.18408e-15
6.23641e-15
1.05166e-14
1.61557e-14
2.12662e-14
2.63955e-14
9.19367e-20
1.2719e-17
1.93957e-16
9.76939e-16
2.65932e-15
5.39666e-15
9.27322e-15
1.32412e-14
1.6202e-14
1.85012e-14
6.65058e-20
9.33275e-18
1.38835e-16
6.95336e-16
1.95904e-15
4.12603e-15
7.11075e-15
9.73619e-15
1.09005e-14
1.1384e-14
4.35491e-20
5.99245e-18
8.25049e-17
3.90719e-16
1.10747e-15
2.41918e-15
4.37499e-15
5.9864e-15
6.17127e-15
5.9298e-15
2.43113e-20
3.07552e-18
3.44894e-17
1.45533e-16
4.05409e-16
9.35389e-16
1.8082e-15
2.57316e-15
2.63262e-15
2.50593e-15
1.04902e-20
9.77023e-19
7.39939e-18
2.70959e-17
7.62065e-17
1.87428e-16
3.87428e-16
5.81584e-16
6.48083e-16
7.93989e-16
1.04522e-20
8.37614e-20
4.59906e-19
1.5764e-18
4.67116e-18
1.24915e-17
2.77617e-17
4.39187e-17
5.69609e-17
1.37289e-16
2.82342e-21
3.6643e-21
4.61494e-21
9.62821e-21
2.96773e-20
8.39803e-20
1.98199e-19
3.31695e-19
6.4027e-19
7.03398e-18
5.78715e-14
9.69504e-14
1.95042e-13
4.08799e-13
6.34079e-13
6.4224e-13
4.19528e-13
1.29996e-13
3.31665e-14
4.4044e-15
4.76034e-14
7.89676e-14
1.67862e-13
3.80353e-13
6.17691e-13
6.45161e-13
4.38907e-13
1.39991e-13
3.37371e-14
4.37256e-15
3.56172e-14
6.02836e-14
1.41309e-13
3.53321e-13
6.02317e-13
6.4788e-13
4.52107e-13
1.46861e-13
3.33782e-14
4.37855e-15
2.39738e-14
4.34544e-14
1.18096e-13
3.30318e-13
5.88249e-13
6.48343e-13
4.57758e-13
1.50217e-13
3.30645e-14
4.38721e-15
1.45172e-14
3.01529e-14
1.00195e-13
3.1397e-13
5.77035e-13
6.46886e-13
4.59716e-13
1.52351e-13
3.29067e-14
4.37672e-15
7.86531e-15
2.07754e-14
8.83247e-14
3.02952e-13
5.71728e-13
6.46637e-13
4.59824e-13
1.54432e-13
3.26737e-14
4.35065e-15
3.88776e-15
1.4914e-14
7.99975e-14
3.00718e-13
5.75209e-13
6.47809e-13
4.58201e-13
1.57333e-13
3.24814e-14
4.32424e-15
1.76978e-15
1.10885e-14
7.68481e-14
3.10217e-13
5.86054e-13
6.50287e-13
4.54884e-13
1.60356e-13
3.25756e-14
4.30873e-15
7.06516e-16
8.98753e-15
8.0748e-14
3.35628e-13
6.03024e-13
6.2745e-13
4.49846e-13
1.63388e-13
3.35267e-14
4.32528e-15
2.53688e-16
8.54103e-15
9.66586e-14
3.79848e-13
5.30992e-13
5.27751e-13
4.43184e-13
1.62548e-13
3.5537e-14
4.38587e-15
1.0455e-16
1.10435e-14
1.38711e-13
4.03103e-13
5.38594e-13
5.22895e-13
4.33608e-13
1.54738e-13
3.28928e-14
4.46579e-15
2.58261e-16
1.73116e-14
1.67212e-13
4.40234e-13
6.39708e-13
6.53064e-13
4.29263e-13
1.53379e-13
3.0908e-14
4.11749e-15
4.50178e-15
4.6727e-14
2.1628e-13
4.54635e-13
6.45481e-13
6.54117e-13
4.24918e-13
1.49316e-13
3.16519e-14
3.7397e-15
4.22503e-14
1.33365e-13
2.67835e-13
4.42126e-13
6.04066e-13
5.84064e-13
4.1618e-13
1.42556e-13
3.12351e-14
3.80099e-15
1.00562e-13
1.61588e-13
2.77378e-13
4.48694e-13
6.05751e-13
5.8369e-13
4.05204e-13
1.34292e-13
3.13338e-14
3.78879e-15
1.13227e-13
1.71087e-13
2.87984e-13
4.53059e-13
6.01278e-13
5.99918e-13
3.94263e-13
1.26711e-13
3.07782e-14
3.76341e-15
1.04165e-13
1.63273e-13
2.89511e-13
4.50488e-13
5.99083e-13
6.14101e-13
3.83054e-13
1.1983e-13
2.82144e-14
3.76029e-15
9.49976e-14
1.56954e-13
2.8768e-13
4.60565e-13
6.41222e-13
5.9065e-13
3.72071e-13
1.14496e-13
2.58589e-14
3.8202e-15
8.76206e-14
1.51111e-13
2.82655e-13
5.02673e-13
6.85205e-13
5.68955e-13
3.63232e-13
1.10428e-13
2.4097e-14
3.99707e-15
8.16507e-14
1.43399e-13
2.7267e-13
4.9416e-13
6.78879e-13
5.56319e-13
3.6058e-13
1.09685e-13
2.30192e-14
4.31539e-15
7.55508e-14
1.3222e-13
2.54404e-13
4.75268e-13
6.68218e-13
6.27229e-13
3.68166e-13
1.15786e-13
2.41723e-14
4.60721e-15
6.76338e-14
1.16381e-13
2.28614e-13
4.49728e-13
6.59061e-13
6.40915e-13
3.94787e-13
1.04066e-13
2.92075e-14
4.451e-15
2.05882e-16
1.03785e-14
5.55785e-14
8.30078e-14
7.85071e-14
6.84981e-14
5.98369e-14
5.28712e-14
4.7362e-14
4.30133e-14
4.70364e-17
4.10073e-15
3.00195e-14
5.97868e-14
6.39672e-14
5.65674e-14
4.80334e-14
4.08624e-14
3.54271e-14
3.16156e-14
1.20206e-17
1.38252e-15
1.34994e-14
3.41958e-14
4.45245e-14
4.33196e-14
3.74875e-14
3.15451e-14
2.67916e-14
2.36342e-14
3.9548e-18
4.69552e-16
4.61742e-15
1.37003e-14
2.21794e-14
2.55344e-14
2.44286e-14
2.13762e-14
1.82505e-14
1.59671e-14
1.35607e-18
1.70077e-16
1.70273e-15
5.18981e-15
9.09509e-15
1.16586e-14
1.28633e-14
1.24302e-14
1.1078e-14
9.7463e-15
4.38343e-19
5.88919e-17
6.45482e-16
2.06888e-15
3.79423e-15
5.12545e-15
5.91248e-15
6.01639e-15
5.54541e-15
4.93552e-15
1.26565e-19
1.81124e-17
2.24598e-16
7.8428e-16
1.49387e-15
2.04088e-15
2.30269e-15
2.29467e-15
2.08659e-15
1.84934e-15
2.97636e-20
4.43363e-18
5.96713e-17
2.19559e-16
4.09963e-16
5.23205e-16
5.36783e-16
5.03177e-16
4.46655e-16
3.99211e-16
4.27719e-21
6.19282e-19
6.92446e-18
2.12212e-17
3.45463e-17
3.93404e-17
3.72434e-17
3.39924e-17
3.04836e-17
2.744e-17
2.82342e-21
2.05839e-20
7.97151e-20
1.68944e-19
2.42262e-19
2.70078e-19
2.5379e-19
2.31513e-19
2.0878e-19
2.075e-19
)
;

boundaryField
{
    right
    {
        type            cyclic;
    }
    left
    {
        type            cyclic;
    }
    outerWall
    {
        type            nutkWallFunction;
        Cmu             0.09;
        kappa           0.41;
        E               9.8;
        value           uniform 0;
    }
    stirrerWall
    {
        type            nutkWallFunction;
        Cmu             0.09;
        kappa           0.41;
        E               9.8;
        value           uniform 0;
    }
    top
    {
        type            empty;
    }
    bottom
    {
        type            empty;
    }
}


// ************************************************************************* //
