/*--------------------------------*- C++ -*----------------------------------*\
  =========                 |
  \\      /  F ield         | OpenFOAM: The Open Source CFD Toolbox
   \\    /   O peration     | Website:  https://openfoam.org
    \\  /    A nd           | Version:  10
     \\/     M anipulation  |
\*---------------------------------------------------------------------------*/
FoamFile
{
    format      ascii;
    class       volScalarField;
    location    "400";
    object      omega;
}
// * * * * * * * * * * * * * * * * * * * * * * * * * * * * * * * * * * * * * //

dimensions      [0 0 -1 0 0 0 0];

internalField   nonuniform List<scalar> 
2000
(
86814.7
16038.3
7567.77
5639.27
4420.39
3488.6
2803.33
2310.8
1959.03
1709.03
1535.1
1419.38
1348.43
1310.14
1293.57
1289.01
1305.25
1353.51
1429.05
1512.98
86817.5
15065.4
6490.18
5111.49
4330.61
3611.05
2998.99
2518.13
2155.78
1890.69
1703.29
1576.2
1494.78
1447.45
1426.02
1427.52
1457.61
1518.98
1602.21
1682.43
86819.6
14903.3
5755.08
4318.1
4002.42
3569.66
3097.44
2674.94
2331.43
2067.89
1874.24
1737.97
1648.15
1595.22
1575.91
1591.1
1643.77
1722.65
1805.18
1860.54
86821.1
14931.1
5516.17
3669.88
3487.61
3340.67
3052.44
2730.86
2438.81
2199.41
2015.11
1882.68
1796.59
1751.24
1748.65
1793.93
1878.72
1963.83
2016.86
2018.02
86821.9
15136.4
5502.05
3339.6
2898.71
2934.36
2844.68
2653.82
2442.32
2250.96
2096.51
1986.78
1924.98
1912.14
1954.26
2049.05
2159.65
2207.19
2182.99
2122.31
86822.2
15440.3
5597.64
3216.3
2541.96
2431.04
2481.6
2426.43
2314.13
2192.65
2091.53
2032.33
2033.52
2094.95
2216.94
2354.62
2427.16
2341.1
2243.71
2210.88
86821.8
15523.1
5612.19
3163.18
2362.77
2063.15
2040.93
2074.58
2063.1
2025.67
2001.65
2032.1
2157.93
2351.24
2546.1
2571.02
2440.74
2341.12
2331.85
2347.42
86820.7
15351.3
5504.98
3101.48
2271.91
1878.42
1720.45
1726.48
1765.03
1808.73
1882.84
2046.02
2348.14
2559.27
2554.41
2471.07
2388.64
2390.28
2449.38
2500.15
86819.1
15030.8
5327.82
3044.17
2233.05
1799.49
1557.73
1490.14
1535.61
1639.61
1826.47
2129.92
2445.8
2549.46
2437.03
2367.57
2403.7
2520.45
2628.83
2709.97
86816.8
14728.8
5171.78
3036.77
2250.75
1776.64
1483.66
1366.05
1415.29
1580.59
1861.43
2177.92
2399.48
2440.9
2403.87
2445.65
2564.25
2683.8
2806.45
2938.31
86813.9
14480.8
5130.95
3131.78
2354.19
1814.03
1455.09
1315.67
1376.05
1597.4
1911.41
2193.9
2335.82
2358.3
2379.76
2496.09
2633.6
2758.87
2962.87
3196.07
86810.3
14218.2
5157.66
3344.35
2576.42
1937.42
1475.17
1315.65
1394.66
1637.9
1930.61
2147.54
2256.1
2292.04
2363.02
2509.61
2645.48
2822.45
3144.35
3498.79
86806.2
13996.4
5322.12
3711.26
2934.15
2186.27
1601.93
1388.06
1441.29
1661.34
1921.94
2112.39
2191.07
2232.55
2335.35
2496.33
2589.96
2845.02
3334.82
3851.11
86801.4
13879.8
5702.58
4314.25
3526.43
2654.51
1883.33
1509.26
1517.28
1699.35
1916.79
2068.92
2120.72
2153.73
2253.63
2379.63
2426.02
2851.63
3582.18
4297.43
86796
13964.2
6423.19
5283.92
4480.62
3453.77
2429.85
1758.79
1641.82
1759.09
1917.72
2033.76
2059.62
2070.43
2130.04
2176.56
2232.14
2931.04
3968.13
4910.81
86790.1
14454
7763.75
6909.8
6079.06
4825.63
3420.13
2287.25
1920.36
1899.67
1971.33
2048.77
2057.55
2061.46
2075.73
2081.23
2336.37
3308.7
4658.44
5864.01
86783.5
16025.9
10538.9
9983.05
9120.3
7594.11
5675.14
3818.71
2813
2449.35
2315.91
2294.39
2291.03
2296.52
2294.87
2348.04
2975.55
4427.16
6139.1
7579.13
86776.4
21944.6
17860.6
17205.3
16074.6
14153.6
11596.2
8711.88
6210.9
4953.08
4150.5
3706.6
3589.81
3586.25
3661.58
3961.43
5427.55
7504.96
9436.18
10930.8
86768.7
51487.7
46625.2
42690.6
38980.5
35180.2
31094.9
26565.7
21787.4
18570.6
15841.5
13735.6
12839.9
12490.2
12526.2
12905.5
14467.1
16081.5
17542.5
19263.1
338081
294034
258064
228311
203421
182390
164459
149047
135704
124076
113880
104892
96926.8
89835.7
83495.2
77802.9
72673.5
68035.1
63826.9
59997.5
1584.81
1621.29
1596.15
1486.15
1294.21
1065.41
852.508
683.973
560.976
472.739
414.825
390.897
414.98
508.583
702.884
1060.66
1699.84
2919.25
5807.82
14006
1731.43
1727.53
1653.84
1497.89
1269.21
1022.99
814.34
659.478
547.779
465.962
411.605
389.87
415.508
509.901
704.753
1063.97
1708.24
2933.63
5822.36
14005.7
1867.1
1816.3
1701.02
1507.46
1244.89
983.625
780.861
638.611
536.319
459.736
408.473
388.829
416.051
511.245
706.635
1067.2
1716.59
2947.48
5831.02
14005.5
1975.35
1890.42
1747.99
1520.62
1223.56
948.587
752.209
621.012
526.372
454.046
405.474
387.767
416.543
512.54
708.453
1070.27
1724.89
2961.86
5838.43
14005.4
2061.78
1973.09
1809.43
1539.28
1208.11
921.107
729.412
606.835
518.005
448.998
402.708
386.758
417.006
513.768
710.155
1073.1
1733.01
2977.03
5845.29
14005.3
2179.46
2083.59
1885.66
1566.32
1197.87
900.138
712.83
596.002
511.289
444.751
400.313
385.885
417.459
514.919
711.713
1075.63
1740.87
2993.45
5853.98
14005.3
2321.41
2216.45
1985.16
1610.69
1199.14
886.376
700.519
588.123
506.229
441.36
398.323
385.157
417.889
515.97
713.097
1077.81
1748.37
3011.51
5867.34
14005.4
2500.43
2396.77
2121.55
1678.13
1213.54
880.044
692.378
582.281
502.277
438.793
396.724
384.568
418.282
516.908
714.283
1079.6
1755.38
3031.22
5887.29
14005.6
2732.12
2625.98
2300.18
1771.87
1240.61
880.018
687.754
578.424
499.461
436.842
395.519
384.172
418.677
517.765
715.303
1081
1761.71
3052.31
5914.25
14005.8
3011.05
2917.72
2530.97
1894.53
1279.75
885.139
686
576.337
497.701
435.518
394.676
383.984
419.098
518.574
716.198
1082.04
1767.23
3074.09
5945.24
14006.1
3349.7
3281.31
2818.3
2045.26
1328.43
893.822
686.337
575.551
496.717
434.654
394.142
383.943
419.538
519.348
717.001
1082.79
1771.89
3095.7
5974.7
14006.5
3757.35
3728.36
3166.24
2220.67
1382.83
904.197
688.009
575.748
496.337
434.193
393.909
384.079
420.039
520.141
717.781
1083.33
1775.73
3117.08
6004.07
14006.9
4249.9
4276.14
3576.8
2414.47
1438.27
914.501
690.541
576.763
496.485
434.061
393.876
384.39
420.602
520.99
718.582
1083.77
1778.8
3138.39
6037.49
14007.5
4865.98
4949.86
4046.69
2615.4
1488.29
922.801
693.385
578.293
497.002
434.184
394.004
384.861
421.218
521.922
719.446
1084.21
1781.05
3159.42
6080.07
14008.1
5673.83
5786.66
4567.81
2808.75
1526.45
928.347
696.357
580.21
497.805
434.511
394.272
385.45
421.903
522.958
720.378
1084.65
1782.22
3178.66
6133.7
14008.7
6863.1
6846.16
5120.46
2973.42
1546.79
929.475
698.538
581.993
498.607
434.867
394.568
386.096
422.651
524.117
721.4
1085.17
1782.02
3191.7
6176.82
14009.5
8900.79
8338.97
5669.28
3038.33
1517.59
916.526
697.461
582.755
498.936
434.998
394.789
386.766
423.459
525.394
722.511
1085.82
1780.24
3198.28
6201.92
14010.3
12763.3
10418.2
6122.21
2969.12
1436.57
891.074
693.43
582.317
498.621
434.803
394.884
387.435
424.322
526.787
723.71
1086.7
1776.86
3199.91
6193.8
14011.1
20874.2
13153.8
6387.35
2765.3
1315.35
858.385
687.623
580.743
497.614
434.247
394.831
388.087
425.234
528.289
724.971
1087.65
1772.18
3202.94
6173.47
14012.1
38609.4
16890.7
6371.34
2405.14
1168.72
823.95
680.869
577.942
495.835
433.302
394.63
388.738
426.199
529.934
726.261
1087.87
1767.06
3199.52
6153.47
14013.1
85702.6
20378.2
5483.18
1901.46
1024.86
789.726
669.83
571.317
491.837
431.176
393.862
389.062
427.145
531.554
727.877
1087.83
1762.32
3185.07
6081.37
14005.5
85639
20430.9
5290.44
1819.18
1006.57
784.408
667.022
569.122
490.311
430.287
393.517
389.148
427.558
532.154
728.734
1088.09
1761.61
3179.36
6075.97
13999.8
85582.4
19999.7
4999.75
1721
987.481
778.597
663.508
566.28
488.256
429.054
393.007
389.249
428.177
533.108
730.092
1088.97
1761.52
3173.52
6076.41
13994.6
85533
19385
4674.59
1621.77
968.712
772.684
659.861
563.396
486.173
427.796
392.471
389.327
428.811
534.099
731.527
1089.93
1761.56
3167.85
6079.81
13990.2
85490.7
18673.9
4332.51
1525.4
950.555
766.885
656.325
560.676
484.21
426.6
391.947
389.382
429.426
535.073
732.959
1090.89
1761.62
3162.42
6085.64
13986.4
85455.4
17892
3984.08
1434.59
933.393
761.423
653.069
558.24
482.443
425.508
391.457
389.415
430.009
536.007
734.354
1091.82
1761.64
3157.19
6093.74
13983.2
85427.3
17044.3
3637.81
1351.32
917.507
756.45
650.203
556.162
480.917
424.546
391.012
389.427
430.55
536.882
735.687
1092.67
1761.56
3152.1
6103.99
13980.6
85406.1
16130.8
3303.12
1275.65
903.102
752.091
647.814
554.499
479.67
423.736
390.622
389.419
431.041
537.682
736.935
1093.4
1761.34
3147.1
6116.24
13978.7
85392
15154
2986.61
1208.07
890.322
748.454
645.988
553.306
478.734
423.096
390.296
389.391
431.472
538.39
738.075
1093.99
1760.94
3142.1
6130.3
13977.4
85385
14123.5
2689.1
1149.06
879.249
745.633
644.8
552.631
478.139
422.644
390.042
389.344
431.835
538.992
739.083
1094.4
1760.33
3137.04
6145.98
13976.8
85385
13048.1
2414.37
1098.79
869.929
743.713
644.323
552.52
477.914
422.394
389.869
389.279
432.121
539.472
739.936
1094.58
1759.48
3131.86
6163.02
13976.8
85392
11939
2166.04
1057.05
862.385
742.768
644.618
553.011
478.083
422.361
389.782
389.199
432.321
539.816
740.612
1094.52
1758.35
3126.5
6181.22
13977.4
85406.1
10810.9
1946.61
1023.24
856.614
742.858
645.736
554.136
478.666
422.557
389.789
389.104
432.43
540.011
741.091
1094.19
1756.95
3120.95
6200.32
13978.7
85427.3
9682.01
1756.95
996.646
852.589
744.024
647.719
555.919
479.68
422.992
389.894
388.996
432.441
540.047
741.355
1093.57
1755.25
3115.19
6220.1
13980.6
85455.4
8572.47
1596.3
976.525
850.262
746.294
650.595
558.378
481.137
423.673
390.102
388.878
432.349
539.915
741.391
1092.65
1753.27
3109.25
6240.37
13983.2
85490.7
7502.96
1463.46
962.11
849.564
749.675
654.381
561.521
483.043
424.606
390.415
388.752
432.15
539.608
741.186
1091.42
1751.04
3103.17
6260.95
13986.4
85533
6482.38
1356.5
952.585
850.41
754.152
659.074
565.346
485.397
425.79
390.834
388.621
431.844
539.123
740.731
1089.87
1748.58
3097
6281.66
13990.2
85582.4
5485.63
1272.83
947.139
852.695
759.691
664.656
569.838
488.194
427.223
391.36
388.487
431.43
538.461
740.022
1088.02
1745.92
3090.77
6302.26
13994.6
85639
4500.57
1209.47
944.99
856.299
766.243
671.101
574.983
491.428
428.907
391.997
388.358
430.915
537.627
739.063
1085.88
1743.14
3084.48
6322.49
13999.8
85702.6
3513.93
1163.83
945.481
861.128
773.729
678.344
580.734
495.07
430.825
392.74
388.237
430.309
536.631
737.871
1083.48
1740.41
3078.37
6342.66
14005.5
13413.7
2273.53
1128.69
948.699
868.052
782.855
686.896
587.329
499.199
432.958
393.527
388.025
429.459
535.261
736.184
1080.41
1737.15
3070.55
6364.01
14013.1
2226.33
1255.19
1040.45
954.613
883.076
801.169
702.998
598.788
505.989
436.203
394.339
386.75
426.825
531.931
731.798
1079.42
1717.86
3046.97
6240.63
14012.1
1230.92
1093.52
1018.18
960.217
898.688
819.809
719.997
611.383
513.921
440.548
396.072
386.351
424.773
528.899
728.218
1076.19
1709.63
3032.39
6156.5
14011.1
1098.21
1047.01
1006.05
965.475
913.259
837.905
736.693
623.657
521.551
444.649
397.592
385.778
422.55
525.631
724.494
1072.3
1703.88
3015.46
6106.01
14010.3
1051.57
1027.06
1004.56
976.397
931.61
858.775
755.366
637.166
529.915
449.198
399.418
385.418
420.418
522.364
720.695
1068.42
1697.84
3001.71
6077.69
14009.5
1025.04
1016.59
1007.77
990.257
952.135
881.44
775.313
651.431
538.679
453.994
401.45
385.237
418.417
519.193
716.936
1064.56
1691.82
2990.9
6061.53
14008.7
1008.51
1012.6
1015.22
1007.04
975.03
905.954
796.502
666.397
547.803
459.022
403.694
385.266
416.593
516.177
713.287
1060.86
1686.19
2981.83
6053.11
14008.1
998.87
1013.31
1025.79
1026.07
999.67
931.753
818.498
681.763
557.116
464.201
406.123
385.518
415.001
513.392
709.88
1057.51
1680.88
2973.09
6049.03
14007.5
995.281
1018.11
1038.95
1047.04
1025.71
958.511
840.98
697.243
566.448
469.463
408.714
385.99
413.667
510.902
706.786
1054.55
1676.04
2963.65
6046.25
14006.9
997.871
1027.24
1055.28
1070.38
1053.47
986.319
863.899
712.708
575.668
474.723
411.431
386.685
412.635
508.766
704.08
1052.13
1671.9
2952.87
6042.26
14006.5
1007.36
1041.43
1075.38
1096.05
1082.35
1014.35
886.591
727.849
584.64
479.888
414.202
387.559
411.924
507.031
701.824
1050.29
1668.58
2940.8
6033.13
14006.1
1023.04
1060.28
1098.73
1123.62
1111.52
1041.28
907.976
741.995
593.029
484.763
416.891
388.58
411.544
505.729
700.057
1049.06
1666.17
2926.92
6014.59
14005.8
1043.49
1083.11
1125.51
1153.7
1141.46
1066.95
926.665
753.776
600.034
488.966
419.33
389.712
411.495
504.877
698.804
1048.46
1664.92
2911.49
5977.27
14005.6
1067.88
1109.76
1156.24
1186.67
1172.1
1090.77
942.053
762.51
605.052
492.102
421.266
390.75
411.659
504.425
698.066
1048.51
1665.23
2896.63
5926.54
14005.4
1096.56
1141.22
1192.05
1223.25
1203.33
1111.9
953.086
767.411
607.63
493.919
422.598
391.624
411.967
504.293
697.748
1049.12
1667.07
2885.31
5869.4
14005.3
1130.77
1179.3
1234.54
1264.2
1234.71
1129.12
958.545
767.649
607.384
494.258
423.239
392.265
412.37
504.444
697.812
1050.22
1670.41
2880.03
5817.22
14005.3
1174.27
1227.26
1285.95
1310.08
1265.09
1140.56
956.973
762.596
604.115
493.057
423.132
392.619
412.825
504.837
698.213
1051.71
1674.92
2881.07
5787.77
14005.4
1233.63
1290.18
1348.91
1360.57
1292.18
1143.87
947.182
752.083
597.943
490.396
422.306
392.693
413.316
505.427
698.884
1053.49
1680.22
2887.12
5773.6
14005.5
1317.01
1374.49
1425.2
1413.46
1311.89
1135.76
928.14
736.378
589.299
486.542
420.893
392.53
413.843
506.203
699.792
1055.45
1685.92
2896.26
5771.87
14005.7
1423.37
1482.43
1510.25
1459.15
1315.29
1111.34
897.98
714.938
577.957
481.314
418.788
392.101
414.396
507.143
700.943
1057.6
1692.09
2904.08
5781.82
14006
59997.5
5333.12
1527.87
1169.32
1083.92
1038.56
1007.77
985.871
971.832
965.843
969.013
980.807
998.095
1019.25
1044.14
1072.75
1108.96
1160.79
1239.63
1344.56
63826.9
7047
1823.73
1245.39
1120.54
1057.44
1012.81
978.438
953.011
937.509
933.559
941.624
957.041
977.431
1001.19
1026.49
1056.68
1099.33
1168.04
1266.52
68035.1
8499.48
2119.65
1319.69
1157.08
1080.91
1025.78
981.244
945.638
920.675
909.013
912.663
926.917
948.188
973.288
999.065
1027.26
1062.26
1116.26
1200.63
72673.5
10020.9
2469.87
1397.7
1189.38
1104.05
1043.79
993.821
951.813
919.918
901.573
900.413
914.287
937.193
964.924
993.222
1022.77
1055.16
1099.63
1167.37
77802.9
12780.7
3016.68
1507.82
1219.67
1122.11
1059.66
1008.08
963.574
928.049
905.513
900.469
913.423
937.103
968.355
1002.72
1038.18
1074.17
1113.33
1167.01
83495.2
16002.7
4303.68
1791.98
1274.51
1138.44
1068.92
1014.97
966.636
922.604
886.795
871.917
881.735
914.777
956.443
1004.66
1053.63
1101.61
1141.1
1184.27
89835.7
19143.8
6145.61
2499.2
1491.6
1201.31
1089.96
1023.88
970.188
920.067
874.973
853.988
872.65
918.298
966.556
1019.11
1074.83
1130.35
1174.65
1212.83
96926.8
21612.9
8089.9
3590.15
1988.16
1408.95
1179.75
1068.72
999.387
947.031
908.206
892.886
911.501
952.331
1001.46
1055.87
1114.5
1172.93
1222.21
1262.36
104892
23695.9
9955.26
4941.59
2798.26
1855.07
1424.76
1213.03
1096.79
1026.07
983.342
965.488
980.492
1017.23
1064.38
1117.67
1173.88
1230.05
1283.65
1334.58
113880
25414.1
11538.6
6330.59
3829.32
2555.76
1888.2
1527.08
1323.66
1205.38
1138.17
1105.66
1109.98
1137.95
1177.73
1223.77
1272.51
1323.67
1380.44
1442.67
124076
26909.8
12801.6
7600.58
4935.14
3433.24
2557.78
2037.14
1722.25
1530.66
1417.05
1356.53
1333.75
1338.91
1359.21
1388.39
1423.79
1468.22
1528.16
1603.13
135704
28243.9
13649.3
8593.31
5942.25
4347.46
3340.79
2693.31
2272.83
1999.88
1825.86
1720.25
1656.98
1625.77
1614.81
1618.23
1635.38
1672.89
1739.41
1833.25
149047
29483.1
14003.2
9179.82
6689.31
5133.02
4093.29
3380.97
2888.88
2548.67
2316.23
2160.55
2051.55
1977.33
1929.1
1903.85
1905.56
1943.87
2028.21
2154.11
164459
30887
13893.5
9278.4
7059.88
5655.68
4676.61
3970.52
3454.89
3078.98
2806.36
2609.55
2461.72
2350.01
2271.49
2229.83
2235.68
2299.72
2427.86
2605.98
182390
32950.7
13593.8
8923.05
6993.35
5822.27
4984.72
4352.72
3868.99
3497.74
3213.6
2997.11
2829.95
2703.63
2625.74
2609.51
2667.94
2806.67
3018.13
3267.82
203421
35971
13696.8
8423.06
6590.07
5632.5
4975.04
4469.61
4067.18
3745.24
3490.04
3291.45
3147.47
3069.82
3076.32
3179.11
3374.57
3648
3965.79
4264.54
228311
40456.1
15137.8
8659.75
6401.43
5411.71
4851.44
4466.25
4174.96
3949.99
3782.34
3677.16
3679.22
3811.79
4067.01
4412.97
4806.12
5212.4
5579.65
5780.59
258064
46532.2
18351.3
11116.1
8145.71
6656.5
5942.53
5580.74
5395.71
5323.46
5348.88
5499.13
5912.14
6443.62
7009.04
7522.64
7960.14
8361.72
8669.67
8417.61
294034
53670.9
26753.9
20869.2
18051
15967.5
14900.5
14561.8
14494.9
14591.8
14833.8
15303
15814.2
16283.4
16673.5
16959.5
17279.3
17839.6
18260.4
17292.7
338081
86768.7
86776.4
86783.5
86790.1
86796
86801.4
86806.2
86810.3
86813.9
86816.8
86819.1
86820.7
86821.8
86822.2
86821.9
86821.1
86819.6
86817.5
86814.7
)
;

boundaryField
{
    right
    {
        type            cyclic;
    }
    left
    {
        type            cyclic;
    }
    outerWall
    {
        beta1           0.075;
        blended         0;
        type            omegaWallFunction;
        value           nonuniform List<scalar> 
60
(
14006
14005.7
14005.5
14005.4
14005.3
14005.3
14005.4
14005.6
14005.8
14006.1
14006.5
14006.9
14007.5
14008.1
14008.7
14009.5
14010.3
14011.1
14012.1
14013.1
14005.5
13999.8
13994.6
13990.2
13986.4
13983.2
13980.6
13978.7
13977.4
13976.8
13976.8
13977.4
13978.7
13980.6
13983.2
13986.4
13990.2
13994.6
13999.8
14005.5
14013.1
14012.1
14011.1
14010.3
14009.5
14008.7
14008.1
14007.5
14006.9
14006.5
14006.1
14005.8
14005.6
14005.4
14005.3
14005.3
14005.4
14005.5
14005.7
14006
)
;
    }
    stirrerWall
    {
        beta1           0.075;
        blended         0;
        type            omegaWallFunction;
        value           nonuniform List<scalar> 
100
(
86814.7
86817.5
86819.6
86821.1
86821.9
86822.2
86821.8
86820.7
86819.1
86816.8
86813.9
86810.3
86806.2
86801.4
86796
86790.1
86783.5
86776.4
86768.7
338081
338081
294034
258064
228311
203421
182390
164459
149047
135704
124076
113880
104892
96926.8
89835.7
83495.2
77802.9
72673.5
68035.1
63826.9
59997.5
85702.6
85639
85582.4
85533
85490.7
85455.4
85427.3
85406.1
85392
85385
85385
85392
85406.1
85427.3
85455.4
85490.7
85533
85582.4
85639
85702.6
59997.5
63826.9
68035.1
72673.5
77802.9
83495.2
89835.7
96926.8
104892
113880
124076
135704
149047
164459
182390
203421
228311
258064
294034
338081
338081
86768.7
86776.4
86783.5
86790.1
86796
86801.4
86806.2
86810.3
86813.9
86816.8
86819.1
86820.7
86821.8
86822.2
86821.9
86821.1
86819.6
86817.5
86814.7
)
;
    }
    top
    {
        type            empty;
    }
    bottom
    {
        type            empty;
    }
}


// ************************************************************************* //
