/*--------------------------------*- C++ -*----------------------------------*\
  =========                 |
  \\      /  F ield         | OpenFOAM: The Open Source CFD Toolbox
   \\    /   O peration     | Website:  https://openfoam.org
    \\  /    A nd           | Version:  10
     \\/     M anipulation  |
\*---------------------------------------------------------------------------*/
FoamFile
{
    format      ascii;
    class       volScalarField;
    location    "400";
    object      p;
}
// * * * * * * * * * * * * * * * * * * * * * * * * * * * * * * * * * * * * * //

dimensions      [0 2 -2 0 0 0 0];

internalField   nonuniform List<scalar> 
420
(
0.775759
16.799
33.1474
52.0837
72.808
94.5157
116.494
137.943
158.431
177.697
1.35164
16.6088
32.5823
51.1258
71.5001
92.963
114.841
136.337
156.931
176.432
1.65062
16.4414
32.0264
50.1318
70.0859
91.2288
112.95
134.468
155.274
175.142
1.84323
16.2647
31.4514
49.0633
68.5271
89.2882
110.836
132.465
153.649
174
1.99383
16.1393
30.9277
48.0076
66.9306
87.2816
108.678
130.513
152.183
173.069
2.12575
16.1424
30.5808
47.1426
65.5251
85.4703
106.726
128.797
150.957
172.364
2.23678
16.3161
30.5121
46.6237
64.511
84.0533
105.111
127.324
149.927
171.926
2.30677
16.6473
30.7369
46.4917
63.9467
83.0734
103.812
125.927
148.837
171.512
2.28708
17.1006
31.1678
46.6371
63.7298
82.4272
102.676
124.305
146.999
169.989
2.1676
17.6255
31.5845
46.8475
63.6977
82.055
101.799
122.709
144.455
166.684
195.838
213.75
231.641
248.752
264.669
279.788
292.249
300.233
294.604
368.971
194.84
212.894
230.669
247.356
262.58
276.674
287.501
292.718
286.34
361.303
193.878
212.036
229.585
245.791
260.379
273.591
283.08
286.707
280.817
354.368
193.08
211.273
228.519
244.247
258.286
270.794
279.358
282.361
277.87
348.758
192.471
210.626
227.531
242.847
256.452
268.454
276.467
279.317
276.036
345.456
192.068
210.128
226.706
241.712
254.979
266.62
274.319
277.108
275.077
343.449
192.02
209.839
226.074
240.918
253.971
265.381
272.876
275.762
275.237
342.622
192.329
209.777
225.621
240.496
253.524
264.832
272.244
275.617
277.229
343.031
192.365
210.196
225.665
240.587
253.718
265.042
272.591
277.13
281.645
344.773
191.472
211.677
226.809
241.458
254.669
266.177
274.193
280.232
285.716
347.689
192.219
213.23
228.486
243.042
256.373
268.287
276.855
283.585
281.126
351.849
194.335
214.053
229.669
244.205
257.677
269.884
279.116
286.177
281.238
352.768
198.722
215.128
230.82
245.623
259.403
271.995
282.091
289.614
290.674
353.229
198.827
215.385
231.441
246.807
261.209
274.501
285.658
294.938
298.459
355.724
198.36
215.379
231.921
247.899
263.039
277.248
289.872
301.407
306.007
359.41
198.202
215.413
232.362
248.892
264.738
279.866
293.893
307.373
312.867
363.675
198.251
215.538
232.775
249.739
266.173
282.173
297.629
312.918
319.169
367.85
198.299
215.632
233.066
250.333
267.194
283.964
300.75
317.558
325.114
374.272
198.202
215.601
233.183
250.625
267.705
284.915
302.309
319.716
330.69
386.509
197.918
215.427
233.151
250.695
267.8
284.891
301.514
317.544
331.807
399.15
197.465
215.117
232.993
250.61
267.604
284.229
299.283
312.437
322.876
394.611
196.791
214.574
232.545
250.069
266.68
282.762
296.68
307.265
306.309
377.458
182.007
180.336
179.897
180.05
180.335
180.521
180.469
180.137
179.57
178.79
155.773
157.238
158.789
160.019
160.892
161.4
161.5
161.18
160.503
159.614
128.161
132.268
135.852
138.379
140.022
140.964
141.289
141.028
140.254
139.21
103.475
107.967
112.398
115.794
118.09
119.444
120.001
119.84
119.053
117.884
81.9157
85.6036
89.6915
93.1818
95.6912
97.2366
97.9299
97.8547
97.1115
95.92
62.9492
65.4986
68.5893
71.4942
73.7192
75.1501
75.8168
75.7754
75.1246
74.0563
46.1629
47.6262
49.4895
51.4113
52.9966
54.0437
54.5132
54.4347
53.8931
53.049
31.2626
31.8513
32.6009
33.4471
34.2033
34.7136
34.9056
34.771
34.3619
33.7896
18.1346
17.981
17.894
17.9213
18.0078
18.0572
18.0028
17.822
17.526
17.175
6.00899
4.77318
3.77117
3.17062
2.80504
2.52614
2.25532
1.9586
1.62908
1.28389
)
;

boundaryField
{
    right
    {
        type            cyclic;
    }
    left
    {
        type            cyclic;
    }
    outerWall
    {
        type            zeroGradient;
    }
    stirrerWall
    {
        type            zeroGradient;
    }
    top
    {
        type            empty;
    }
    bottom
    {
        type            empty;
    }
}


// ************************************************************************* //
