/*--------------------------------*- C++ -*----------------------------------*\
  =========                 |
  \\      /  F ield         | OpenFOAM: The Open Source CFD Toolbox
   \\    /   O peration     | Website:  https://openfoam.org
    \\  /    A nd           | Version:  10
     \\/     M anipulation  |
\*---------------------------------------------------------------------------*/
FoamFile
{
    format      ascii;
    class       volScalarField;
    location    "400";
    object      p;
}
// * * * * * * * * * * * * * * * * * * * * * * * * * * * * * * * * * * * * * //

dimensions      [0 2 -2 0 0 0 0];

internalField   nonuniform List<scalar> 
2000
(
0.0839067
156.777
312.378
504.137
724.269
962.011
1213.09
1473.9
1740.6
2010.76
2282.68
2554.47
2824.96
3095.62
3366.51
3634.92
3898.99
4154.39
4397.69
4630.91
7.27375
157.436
305.415
489.473
701.692
932.851
1179.08
1436.93
1702.71
1973.28
2246.3
2519.93
2793.36
3067.18
3339.4
3607.07
3868.65
4121.42
4363.79
4598.31
13.4142
160.067
301.368
477.753
681.448
904.711
1144.22
1397.09
1659.95
1929.53
2202.93
2477.97
2754.22
3031.53
3304.79
3570.59
3829.39
4081.63
4326.21
4564.85
18.1531
162.641
297.656
466.15
660.989
875.762
1107.46
1353.99
1612.64
1880.1
2153.12
2429.44
2708.65
2988.33
3261.24
3525.95
3784.74
4039.35
4288.8
4533.1
21.5513
164.484
294.018
454.348
639.826
845.309
1068.56
1307.87
1561.2
1825.5
2097.48
2375
2657.03
2937.77
3209.87
3475.13
3737.08
3996.67
4252.84
4504.37
23.9997
165.662
290.668
442.896
618.923
814.815
1029.03
1260.33
1507.4
1767.56
2037.88
2316.45
2600.3
2881.28
3153.96
3422.7
3690.38
3956.72
4221.41
4481.01
25.8797
166.502
287.694
432.526
599.402
786.176
991.513
1214.53
1454.65
1709.95
1978.11
2256.88
2541.33
2822.83
3098.14
3373.18
3649.34
3923.87
4196.02
4461.96
27.6398
167.447
285.231
423.509
581.958
760.419
957.782
1173.17
1406.37
1656.56
1921.94
2199.71
2484.49
2767.81
3047.69
3330.52
3614.84
3896.84
4176.3
4448.72
29.5303
168.698
283.347
415.942
566.933
738.079
928.682
1137.73
1364.77
1610.07
1872.38
2148.56
2433.37
2719.38
3005.07
3295.87
3589.46
3880.09
4165.82
4442.03
31.7393
170.35
282.11
409.992
554.622
719.666
904.875
1108.94
1331.07
1572.14
1831.37
2105.91
2391.18
2680.97
2974.48
3275.13
3577.19
3872.66
4160.75
4439.06
34.5023
172.684
281.893
405.944
545.653
705.851
887.141
1087.49
1306.15
1543.89
1800.77
2074.62
2362.42
2658.89
2960.41
3267.49
3574.69
3873.94
4164.03
4442.5
37.9598
176.114
283.576
404.687
540.971
697.687
876.303
1074.12
1290.69
1526.23
1782.17
2057.72
2349.88
2652.18
2959.42
3271.48
3581.75
3882.22
4170.89
4447.32
41.993
180.962
288.315
408.073
542.401
697.298
874.343
1070.83
1286.35
1521.06
1777.95
2056.68
2354.03
2661.51
2970.98
3282.1
3590.29
3890.4
4179.48
4456.04
46.264
187.38
296.79
417.367
551.932
707.231
883.979
1079.89
1294.54
1529.69
1789.65
2073.24
2374.14
2681.71
2988.28
3294.68
3600.93
3901.48
4190.12
4465.89
50.4641
195.161
309.013
432.913
570.012
727.57
905.742
1101.79
1316.25
1553.95
1819
2107.8
2410.4
2714.97
3013.91
3310.37
3610.2
3908.1
4195.95
4473.25
54.0855
203.603
324.217
454.149
596.476
757.378
938.434
1136.96
1354.5
1597.92
1868.41
2158.48
2456.75
2751.88
3038.38
3322.65
3614.76
3911.38
4200.63
4479.12
56.366
211.739
340.934
478.881
629.044
795.924
981.664
1185.5
1409.95
1660.44
1932.46
2217.85
2507.68
2791.57
3065.82
3337.43
3617.94
3909.52
4201.29
4484.96
56.6901
218.735
357.046
503.734
662.843
837.899
1030.29
1241.38
1473.08
1727.6
1995.64
2270.29
2545.63
2814.62
3077.56
3340.06
3610.56
3893.7
4185.18
4477.62
54.8431
224.397
370.022
524.207
691.602
874.759
1074.11
1290.67
1525.51
1778.03
2038.97
2299.77
2556.33
2807.89
3057.7
3310.3
3571.3
3846.42
4138.24
4442.86
52.0042
230.017
378.535
537.075
709.604
897.97
1102.64
1323.36
1559.55
1808.01
2062.79
2313.98
2555.86
2792.02
3028.78
3271.52
3526.53
3799.46
4090.91
4398.02
4860.17
5094.7
5340.73
5599.46
5870.23
6150.96
6439.74
6737.51
7047.41
7372.77
7717.1
8083.86
8477.12
8900.81
9358.49
9858.83
10390.9
11013
11548.4
12623.9
4830.85
5070.09
5321.52
5585.49
5860.52
6144
6434.39
6733.23
7043.94
7369.9
7714.68
8081.78
8475.38
8899.24
9357.16
9857.72
10389.9
11012.1
11548.2
12619.3
4802.47
5047.24
5304.22
5573.02
5851.46
6136.81
6428.21
6727.86
7039.32
7365.92
7711.25
8078.78
8472.79
8896.93
9355.24
9856.1
10388.5
11011.2
11547.5
12615.5
4776.65
5027.37
5289.63
5562.37
5843.09
6129.41
6421.34
6721.62
7033.84
7361.15
7707.11
8075.19
8469.71
8894.25
9353.07
9854.27
10386.9
11010.3
11546.6
12612.7
4754.88
5011.4
5278
5553.51
5835.46
6122.03
6414.17
6715.02
7027.98
7356.05
7702.71
8071.42
8466.51
8891.5
9350.85
9852.35
10385.3
11009.5
11545.6
12610.4
4737.72
4998.78
5268.66
5546.05
5828.42
6114.69
6406.8
6708.09
7021.75
7350.57
7697.94
8067.3
8463
8888.51
9348.42
9850.2
10383.5
11008.6
11544.6
12608.6
4723.81
4988.98
5261.46
5539.81
5821.84
6107.35
6399.24
6700.85
7015.13
7344.67
7692.79
8062.89
8459.3
8885.41
9345.9
9847.99
10381.9
11007.8
11543.7
12607.1
4715.03
4982.73
5256.35
5534.62
5815.71
6100.28
6391.95
6693.84
7008.68
7338.94
7687.81
8058.71
8455.84
8882.58
9343.61
9846.1
10380.8
11007.2
11543.1
12605.8
4710.18
4978.81
5252.89
5530.57
5810.34
6093.87
6385.32
6687.43
7002.74
7333.63
7683.18
8054.83
8452.62
8880
9341.63
9844.8
10380.4
11006.9
11542.9
12604.6
4708.68
4977.91
5251.72
5527.9
5805.82
6088.16
6379.27
6681.52
6997.23
7328.7
7678.89
8051.29
8449.69
8877.77
9340.14
9844.14
10380.4
11006.9
11543
12603.2
4711.01
4979.15
5251.88
5525.99
5801.91
6083.13
6373.9
6676.26
6992.39
7324.47
7675.27
8048.36
8447.24
8876.01
9339.04
9843.56
10379.8
11006.5
11543.2
12601.3
4714.82
4982.4
5253.83
5525.21
5798.97
6079.12
6369.51
6671.92
6988.31
7320.9
7672.24
8045.98
8445.25
8874.69
9337.93
9842.01
10378.7
11005.4
11542.9
12598.8
4722.7
4988.67
5257.39
5525.31
5796.97
6076.21
6366.16
6668.65
6985.31
7318.35
7670.12
8044.41
8443.93
8873.93
9336.82
9840.62
10378.3
11003.6
11542.5
12595.8
4731.27
4995.93
5261.71
5526.18
5795.84
6074.36
6363.86
6666.39
6983.25
7316.7
7668.87
8043.65
8443.33
8873.9
9336.38
9840.36
10378.7
11001.6
11543.6
12592.8
4741.22
5005.04
5266.75
5528.04
5795.71
6073.58
6362.61
6665.24
6982.25
7316.05
7668.52
8043.73
8443.48
8874.62
9336.43
9841.02
10380.3
11000.5
11547.6
12589.5
4751.33
5014.84
5271.79
5530.56
5796.21
6073.69
6362.34
6665.1
6982.24
7316.35
7669.07
8044.63
8444.4
8876.08
9336.99
9842.79
10382.3
10999
11553.1
12585.5
4762.3
5023.21
5273.92
5532.1
5796.31
6074.01
6362.65
6665.74
6983.07
7317.49
7670.43
8046.31
8446.09
8878.26
9338.2
9845.63
10383.2
10994.8
11558.6
12580.9
4766.29
5025.67
5270.94
5531.73
5796.06
6074.68
6363.58
6667.09
6984.64
7319.37
7672.51
8048.64
8448.47
8881.06
9340.37
9849.34
10383.1
10989.6
11569
12567.4
4756.44
5022.33
5266.17
5530.48
5795.97
6075.49
6364.9
6668.84
6986.7
7321.71
7675.09
8051.34
8451.34
8884
9343.6
9853.01
10386.1
10992
11597.4
12526
4738.75
5030.02
5265.86
5532.59
5796.98
6077.45
6366.76
6671.08
6989.04
7324.29
7677.76
8054.27
8454.23
8887.59
9346.29
9858.88
10389
11015.1
11625
12485.4
4714.76
5070.37
5261.25
5546
5798.99
6083.72
6370.02
6675.36
6992.24
7327.99
7680.74
8058.72
8456.47
8895.09
9344.05
9876.57
10372.7
11068
11556.4
12586.7
4711.21
5079.88
5260.2
5548.54
5798.82
6084.34
6369.94
6675.45
6992.06
7327.9
7680.48
8058.84
8456.18
8896.07
9343.01
9880.27
10368.3
11079.7
11539.9
12613.8
4711.13
5087.87
5260.33
5551.29
5799.15
6085.22
6370.15
6675.76
6992.09
7328
7680.43
8059.13
8456.1
8897.14
9342.7
9883.79
10365.2
11090.1
11526.5
12635.8
4712.13
5094.66
5260.99
5554.04
5799.71
6086.15
6370.42
6676.09
6992.16
7328.13
7680.45
8059.47
8456.13
8898.24
9342.59
9887.19
10362.1
11099.9
11514.1
12656.4
4713.72
5100.6
5262.04
5556.73
5800.42
6087.06
6370.7
6676.4
6992.26
7328.3
7680.56
8059.9
8456.29
8899.4
9342.56
9890.49
10359.2
11109.4
11502.1
12676.5
4715.91
5105.89
5263.44
5559.34
5801.25
6087.94
6370.97
6676.69
6992.4
7328.53
7680.77
8060.41
8456.6
8900.64
9342.63
9893.71
10356.3
11118.4
11490.5
12696.3
4718.78
5110.7
5265.15
5561.83
5802.17
6088.76
6371.25
6676.98
6992.61
7328.85
7681.11
8061.05
8457.08
8901.98
9342.9
9896.88
10353.6
11127.2
11479.3
12715.9
4722.35
5115.14
5267.14
5564.19
5803.16
6089.57
6371.58
6677.34
6992.94
7329.31
7681.63
8061.83
8457.75
8903.45
9343.4
9900.02
10351.2
11135.6
11468.4
12735.4
4726.63
5119.28
5269.38
5566.42
5804.24
6090.4
6372.04
6677.83
6993.46
7329.96
7682.36
8062.8
8458.64
8905.06
9344.15
9903.16
10349
11143.8
11457.8
12754.8
4731.6
5123.17
5271.84
5568.51
5805.46
6091.33
6372.72
6678.56
6994.26
7330.89
7683.35
8063.98
8459.77
8906.81
9345.17
9906.28
10347
11152
11447.1
12774
4737.15
5126.8
5274.5
5570.51
5806.89
6092.49
6373.74
6679.63
6995.41
7332.14
7684.66
8065.4
8461.15
8908.71
9346.45
9909.46
10345.4
11160.1
11436.3
12793.1
4743.06
5130.12
5277.35
5572.46
5808.64
6094
6375.24
6681.16
6997.03
7333.79
7686.3
8067.07
8462.77
8910.73
9347.98
9912.9
10344
11168.2
11425.3
12812.2
4749.03
5133.1
5280.4
5574.47
5810.86
6096.05
6377.38
6683.29
6999.18
7335.87
7688.3
8069
8464.62
8912.84
9349.71
9916.66
10343.1
11176.4
11413.7
12831.2
4754.68
5135.68
5283.74
5576.72
5813.72
6098.8
6380.3
6686.11
7001.92
7338.43
7690.66
8071.16
8466.66
8914.99
9351.52
9920.31
10342.9
11184.6
11401.5
12849.9
4759.64
5137.79
5287.54
5579.44
5817.42
6102.41
6384.1
6689.68
7005.29
7341.45
7693.35
8073.52
8468.84
8917.07
9353.36
9923.23
10343.3
11192.5
11388.7
12868
4763.44
5139.45
5291.97
5582.79
5822.08
6106.93
6388.81
6693.99
7009.23
7344.85
7696.3
8075.97
8471.07
8918.98
9355.13
9925.34
10344.2
11199.9
11375
12885.4
4765.1
5140.88
5297.02
5586.97
5827.69
6112.38
6394.31
6698.91
7013.58
7348.5
7699.34
8078.39
8473.16
8920.66
9356.55
9927.06
10344.4
11207.5
11359
12903.2
4763.83
5142.74
5303.02
5592.35
5834.38
6118.78
6400.51
6704.32
7018.19
7352.25
7702.35
8080.71
8474.98
8922.1
9357.23
9928.67
10341.6
11217.2
11337.8
12923.1
4763.37
5145.39
5311.85
5599.35
5842.76
6126.25
6407.53
6710.19
7023.06
7356.09
7705.38
8082.93
8476.76
8923.13
9357.7
9928.91
10337.8
11225.9
11315.5
12939.9
4776.11
5147.07
5324.78
5606.41
5852.1
6133.47
6414.5
6715.67
7027.68
7359.58
7708.29
8084.78
8478.78
8923.02
9359.88
9924.47
10342.5
11216.7
11317.9
12929.4
4886.09
5136.6
5364.17
5616.81
5873.59
6146
6428.23
6724.94
7035.87
7364.71
7712.96
8085.59
8482.93
8915.46
9371.71
9889.89
10397.7
11086.3
11500.8
12761.7
4897.55
5133.67
5374.11
5623.11
5881.77
6151.79
6433.63
6728.87
7039.26
7367.22
7715.33
8086.89
8484.91
8913.98
9375.45
9880.59
10413.6
11041.3
11566.9
12698.9
4892.8
5133.72
5378.07
5628.57
5887.97
6157.63
6438.87
6733.26
7042.9
7370.1
7717.57
8088.37
8485.78
8913.76
9375.19
9878.09
10415.3
11035.1
11587.8
12668
4890.03
5133.36
5379.64
5631.74
5891.99
6161.94
6443.07
6737.1
7046.24
7372.93
7719.84
8090.05
8486.8
8914.19
9374.94
9877.54
10414
11035.7
11591.5
12651.4
4892.17
5135.26
5382.12
5635
5895.83
6166.04
6447.14
6740.89
7049.59
7375.76
7722.08
8091.66
8487.73
8914.49
9374.56
9876.67
10412.5
11034.9
11590.3
12640.8
4897.47
5139.31
5385.81
5638.82
5899.85
6170.2
6451.2
6744.68
7052.95
7378.58
7724.3
8093.25
8488.66
8914.77
9374.21
9875.84
10410.8
11032.9
11587.4
12633.4
4904.84
5145.05
5390.76
5643.43
5904.34
6174.6
6455.37
6748.5
7056.3
7381.35
7726.45
8094.76
8489.53
8915.01
9373.81
9874.85
10409
11030.5
11584
12627.6
4913.27
5151.87
5396.61
5648.69
5909.26
6179.23
6459.67
6752.35
7059.6
7384.04
7728.49
8096.14
8490.28
8915.16
9373.39
9873.84
10407
11027.9
11580.1
12622.2
4922.08
5159.22
5402.89
5654.27
5914.37
6183.92
6463.92
6756.06
7062.69
7386.49
7730.29
8097.3
8490.81
8915.13
9372.82
9872.72
10405.3
11025.5
11575.3
12617.4
4930.49
5166.35
5409.04
5659.69
5919.25
6188.34
6467.85
6759.42
7065.42
7388.57
7731.72
8098.1
8491.03
8914.83
9372.01
9871.41
10403.6
11022.9
11569.8
12615.5
4937.85
5172.63
5414.46
5664.46
5923.5
6192.17
6471.19
6762.19
7067.6
7390.14
7732.7
8098.52
8490.94
8914.27
9370.99
9870.01
10401.9
11020.3
11564.9
12616.3
4943.55
5177.46
5418.59
5668.05
5926.69
6195.03
6473.67
6764.22
7069.13
7391.15
7733.2
8098.55
8490.55
8913.5
9369.83
9868.64
10400.2
11017.8
11561.9
12617.4
4947.14
5180.38
5421.01
5670.09
5928.49
6196.64
6475.06
6765.3
7069.85
7391.48
7733.16
8098.15
8489.86
8912.53
9368.6
9867.34
10398.5
11015.2
11560.1
12619.5
4948.08
5180.93
5421.25
5670.13
5928.5
6196.7
6475.13
6765.27
7069.63
7391.03
7732.48
8097.26
8488.8
8911.3
9367.27
9866.07
10396.8
11013.3
11560.6
12619.8
4945.98
5178.64
5418.79
5667.7
5926.35
6194.94
6473.71
6764.01
7068.4
7389.78
7731.19
8095.92
8487.42
8909.87
9365.89
9864.82
10395.3
11013.1
11562
12615.5
4940.92
5173.34
5413.44
5662.67
5921.96
6191.32
6470.77
6761.55
7066.27
7387.9
7729.51
8094.35
8485.95
8908.49
9364.66
9863.76
10394.3
11013.7
11558.9
12616.5
4932.68
5164.92
5405.22
5655.11
5915.37
6185.83
6466.3
6757.92
7063.33
7385.5
7727.54
8092.7
8484.57
8907.26
9363.64
9862.92
10393.6
11013.9
11556.7
12619.3
4920.89
5153.32
5394.02
5644.64
5905.99
6177.74
6459.61
6752.55
7059.09
7382.18
7724.92
8090.59
8482.88
8905.87
9362.55
9862.02
10393
11014.4
11554.9
12621.2
4906.05
5138.45
5379.3
5630.5
5893.09
6166.65
6450.53
6745.4
7053.53
7377.78
7721.38
8087.73
8480.61
8903.97
9361.01
9860.8
10392.2
11014.6
11552.1
12624.5
4886.95
5119.02
5361.01
5614.61
5880.58
6157.76
6444.27
6740.75
7049.91
7374.88
7718.99
8085.65
8478.82
8902.42
9359.79
9859.84
10391.7
11014.3
11549.4
12625.9
4684.85
4656.84
4643.39
4641.69
4646.66
4655.08
4665.23
4676.03
4686.79
4696.87
4705.48
4712.13
4716.49
4717.97
4716.14
4711.25
4703.19
4691.36
4676.5
4658.23
4361.3
4365.86
4370.75
4379.43
4391.39
4405.25
4419.76
4433.87
4447.06
4459.06
4469.09
4476.74
4481.86
4483.8
4482.15
4477.38
4469.3
4457.18
4441.8
4423.9
3996.79
4043.25
4075.72
4101.32
4124.31
4145.88
4166.09
4184.4
4200.6
4214.69
4226.19
4234.77
4240.46
4242.7
4241.06
4235.97
4227.23
4214.28
4197.38
4178.3
3637.64
3712.28
3768.49
3811.6
3847.07
3877.61
3904.4
3927.53
3947.07
3963.34
3976.36
3985.8
3991.85
3994.11
3992.22
3986.27
3976.21
3961.92
3942.51
3920.84
3293.19
3382.27
3457.01
3515.53
3562.91
3602.4
3635.85
3663.98
3687.06
3705.59
3720
3730.02
3736.15
3738.26
3736.01
3729.16
3718.06
3702.59
3681.12
3657.02
2963.66
3058.47
3147.07
3217.93
3275.39
3322.88
3362.53
3395.42
3421.99
3442.76
3458.47
3469.05
3475.3
3477.34
3474.7
3467.31
3455.49
3438.84
3415.97
3390.15
2652.81
2745.82
2842.76
2922.06
2987.49
3041.61
3086.54
3123.66
3153.54
3176.61
3193.89
3205.55
3212.23
3214.08
3210.75
3202.39
3189.24
3171.17
3147.8
3121.26
2363.42
2447.91
2546.08
2630.4
2701.34
2760.34
2809.27
2849.61
2882.16
2907.29
2925.85
2938.55
2945.62
2947.37
2943.66
2934.75
2920.92
2902.45
2879.43
2852.8
2094.33
2166.4
2260.73
2346.53
2419.56
2481.19
2532.45
2574.65
2608.78
2635.34
2654.93
2668.41
2675.93
2677.95
2674.42
2665.58
2651.92
2633.85
2611.26
2584.34
1844.71
1903.41
1988.77
2071.47
2144.08
2206.28
2258.39
2301.38
2336.24
2363.63
2384
2398.12
2406.18
2408.49
2405.37
2396.99
2383.55
2365.19
2342.1
2314.32
1613.1
1658.24
1730.06
1806.52
1876.58
1937.33
1988.83
2031.54
2066.27
2093.74
2114.41
2128.84
2137.26
2139.68
2136.43
2127.84
2114.16
2095.62
2072.21
2043.74
1397.26
1429.6
1485.88
1552.51
1617.21
1675.06
1724.72
1766.17
1800
1826.8
1847.02
1861.16
1869.42
1871.71
1868.27
1859.55
1845.91
1827.37
1803.54
1774.32
1194.77
1216.05
1256.7
1310.48
1366.97
1419.78
1466.23
1505.55
1537.97
1563.75
1583.22
1596.77
1604.58
1606.59
1602.96
1594.16
1580.52
1561.75
1537.43
1507.59
1003.42
1015.87
1042.55
1081.94
1127.27
1172.52
1214.18
1250.43
1280.67
1304.95
1323.43
1336.25
1343.51
1345.22
1341.42
1332.55
1318.82
1299.81
1275.35
1245.73
821.517
827.491
842.904
868.385
900.814
935.907
970.304
1001.87
1029.21
1051.45
1068.32
1080.02
1086.64
1088.1
1084.36
1075.63
1061.93
1043.19
1019.63
991.836
648.19
649.722
656.7
670.349
690.01
713.643
738.917
763.655
786.132
805.195
820.162
830.66
836.42
837.3
833.501
825.237
812.516
795.338
774.09
749.646
483.128
481.628
482.244
486.581
495.487
508.511
524.413
541.506
558.08
572.734
584.53
592.875
597.356
597.797
594.314
586.915
575.677
560.854
542.975
523.358
327.831
323.636
318.64
315.445
316.067
320.919
329.141
339.231
349.698
359.328
367.253
372.896
375.913
376.228
373.861
368.781
360.91
350.428
337.672
324.07
183.553
174.432
164.299
156.731
153.708
155.088
159.49
165.273
171.147
176.312
180.348
183.149
184.836
185.478
184.808
182.591
178.677
173.09
166.383
160.217
38.2933
18.0268
1.39613
-8.0197
-12.2348
-12.9641
-11.4006
-8.66855
-5.83229
-3.61854
-2.3298
-1.92084
-2.09931
-2.49115
-2.94124
-3.51665
-4.33189
-5.51442
-6.31991
-4.64094
)
;

boundaryField
{
    right
    {
        type            cyclic;
    }
    left
    {
        type            cyclic;
    }
    outerWall
    {
        type            zeroGradient;
    }
    stirrerWall
    {
        type            zeroGradient;
    }
    top
    {
        type            empty;
    }
    bottom
    {
        type            empty;
    }
}


// ************************************************************************* //
