/*--------------------------------*- C++ -*----------------------------------*\
  =========                 |
  \\      /  F ield         | OpenFOAM: The Open Source CFD Toolbox
   \\    /   O peration     | Website:  https://openfoam.org
    \\  /    A nd           | Version:  10
     \\/     M anipulation  |
\*---------------------------------------------------------------------------*/
FoamFile
{
    format      ascii;
    class       surfaceScalarField;
    location    "400";
    object      phi;
}
// * * * * * * * * * * * * * * * * * * * * * * * * * * * * * * * * * * * * * //

dimensions      [0 3 -1 0 0 0 0];

internalField   nonuniform List<scalar> 
788
(
-3.13688e-06
-1.13141e-05
8.67865e-07
2.33449e-06
4.07255e-06
8.35735e-06
7.10811e-06
1.08008e-05
9.4957e-06
9.79586e-06
1.05038e-05
5.496e-06
9.52579e-06
-8.62542e-07
6.04038e-06
-8.6419e-06
1.12639e-06
-1.71293e-05
-2.8658e-05
-3.79179e-06
-1.68286e-06
-9.61063e-06
2.32862e-07
4.91727e-07
2.90507e-06
5.7177e-06
5.49586e-06
8.2207e-06
7.17864e-06
8.14536e-06
7.18366e-06
5.49844e-06
5.09341e-06
1.16451e-06
7.74663e-07
-4.45323e-06
-4.27407e-06
-1.22381e-05
-2.47952e-05
-8.2233e-06
-1.13085e-06
-8.45922e-06
-6.38955e-07
6.50153e-08
9.91106e-07
4.19017e-06
2.74114e-06
6.58075e-06
3.61341e-06
7.37694e-06
2.74782e-06
6.41869e-06
-2.13664e-07
4.11747e-06
-4.92611e-06
2.10203e-07
-9.21048e-06
-8.00495e-06
-2.2979e-05
-1.10182e-05
-9.05693e-07
-7.51756e-06
-1.09195e-06
3.63407e-07
-3.04578e-07
3.5748e-06
6.23895e-07
5.83252e-06
7.08733e-07
7.4532e-06
-9.75437e-07
8.22678e-06
-4.62841e-06
7.85611e-06
-8.63489e-06
4.27676e-06
-1.07757e-05
-5.79764e-06
-2.3095e-05
-1.05433e-05
-8.05346e-07
-6.65972e-06
-1.23997e-06
9.62672e-07
-8.13799e-07
3.38891e-06
-2.4129e-07
5.51299e-06
-3.01266e-07
7.75266e-06
-1.70453e-06
9.84308e-06
-4.4473e-06
1.07752e-05
-6.85495e-06
6.81524e-06
-8.10269e-06
-4.44069e-06
-2.32264e-05
-7.83481e-06
-7.65009e-07
-5.82771e-06
-1.12743e-06
1.53976e-06
-5.83739e-07
3.15709e-06
2.90422e-07
4.97053e-06
9.4815e-07
7.42337e-06
7.84875e-07
1.03057e-05
-3.01031e-07
1.20973e-05
-1.70357e-06
8.37823e-06
-2.95098e-06
-3.07641e-06
-2.23533e-05
-3.69589e-06
-8.2445e-07
-4.92283e-06
-8.98178e-07
1.87656e-06
7.71068e-08
2.56491e-06
1.64189e-06
3.81695e-06
3.49662e-06
5.98247e-06
5.2711e-06
8.89719e-06
6.50854e-06
1.11369e-05
6.50398e-06
8.55977e-06
4.72683e-06
-1.20043e-06
-1.92883e-05
1.73746e-06
-1.10139e-06
-3.72789e-06
-7.29452e-07
1.81304e-06
6.99823e-07
1.58238e-06
2.82686e-06
2.17218e-06
5.67904e-06
3.61491e-06
9.24596e-06
5.75005e-06
1.31142e-05
7.5686e-06
1.54991e-05
6.33242e-06
1.39602e-05
3.65296e-07
-1.34706e-05
8.07192e-06
-1.60703e-06
-2.01451e-06
-4.47872e-07
9.69181e-07
1.05357e-06
4.99206e-07
2.90751e-06
7.68821e-07
5.6883e-06
1.28725e-06
9.82568e-06
1.99369e-06
1.50512e-05
2.56812e-06
1.92157e-05
2.18809e-06
1.90285e-05
3.92096e-07
-6.43828e-06
1.17557e-05
-1.92742e-06
-7.85874e-07
-9.66246e-08
8.76441e-07
2.34408e-06
4.4419e-06
7.00162e-06
9.06953e-06
9.26555e-06
2.65648e-06
-7.28659e-06
-4.51981e-05
-8.68402e-06
-7.40329e-05
-8.56376e-06
-0.000113987
-8.74908e-06
-0.000166351
-1.08784e-05
-0.000233801
-1.48133e-05
-0.000322686
-2.32473e-05
-0.000425345
-3.3921e-05
-0.000538469
-2.74805e-05
-0.000597731
-0.000995313
-9.80141e-06
-4.35398e-05
-9.18394e-06
-7.4337e-05
-7.73575e-06
-0.000114934
-7.03387e-06
-0.000166561
-8.08148e-06
-0.000232553
-1.03119e-05
-0.000320496
-1.32335e-05
-0.000422012
-1.66058e-05
-0.000535194
-9.0201e-06
-0.000606014
-0.00100446
-1.02915e-05
-4.41513e-05
-8.1205e-06
-7.62773e-05
-5.79678e-06
-0.000116987
-4.3437e-06
-0.000167919
-4.30237e-06
-0.000232845
-4.66005e-06
-0.00032027
-4.08902e-06
-0.000421839
-4.18873e-06
-0.000536018
7.16904e-06
-0.000616857
-0.000997373
-8.70077e-06
-4.57971e-05
-5.89146e-06
-7.881e-05
-3.11369e-06
-0.000119496
-1.17082e-06
-0.000169822
-3.09832e-07
-0.000233998
5.07134e-07
-0.000321141
2.86541e-06
-0.000423524
4.26106e-06
-0.000537908
1.57113e-05
-0.000627908
-0.00098188
-6.01586e-06
-4.74164e-05
-3.07182e-06
-8.14903e-05
-7.54505e-08
-0.000122275
2.18402e-06
-0.000172132
3.64365e-06
-0.000235786
5.20503e-06
-0.000322742
8.10005e-06
-0.000426323
1.00999e-05
-0.000540277
2.07379e-05
-0.00063833
-0.000961463
-2.49844e-06
-4.84195e-05
3.20354e-07
-8.40453e-05
3.24546e-06
-0.000125004
5.5641e-06
-0.000174549
7.32406e-06
-0.000237878
9.22399e-06
-0.00032465
1.22492e-05
-0.000429601
1.4418e-05
-0.000542798
2.43475e-05
-0.000648113
-0.000937435
2.00881e-06
-4.85351e-05
4.24641e-06
-8.60269e-05
6.6738e-06
-0.000127225
8.76442e-06
-0.000176706
1.05603e-05
-0.000239904
1.25225e-05
-0.000326507
1.56267e-05
-0.000433029
1.78777e-05
-0.000545345
2.66412e-05
-0.000656687
-0.000911063
7.20911e-06
-4.77005e-05
8.24771e-06
-8.69651e-05
9.81689e-06
-0.000128691
1.14442e-05
-0.000178421
1.31366e-05
-0.000241725
1.50193e-05
-0.000328151
1.81768e-05
-0.00043645
1.99039e-05
-0.00054731
2.63052e-05
-0.000662861
-0.000884864
1.07029e-05
-4.68223e-05
1.0963e-05
-8.72808e-05
1.18324e-05
-0.000129587
1.30398e-05
-0.000179761
1.47376e-05
-0.000243488
1.67073e-05
-0.000329791
2.03647e-05
-0.000440274
2.12109e-05
-0.000548352
2.19573e-05
-0.00066359
-0.000862535
1.06966e-05
-5.49601e-05
1.10828e-05
-8.78773e-05
1.10241e-05
-0.000129681
1.18446e-05
-0.000180748
1.37145e-05
-0.000245399
1.57058e-05
-0.00033155
2.14511e-05
-0.000446153
2.82207e-05
-0.000554845
8.7413e-06
-0.000644845
-0.000853217
1.24802e-06
-5.63694e-05
1.42122e-06
-8.82094e-05
4.34172e-07
-0.000128845
-4.08525e-07
-0.00018009
-5.99762e-07
-0.000245206
-4.7416e-08
-0.000331757
4.45443e-08
-0.000446498
2.83464e-06
-0.000557365
2.62201e-05
-0.000668626
-0.000827008
2.39045e-06
-5.88172e-05
3.97344e-06
-8.99538e-05
3.60252e-06
-0.000128617
3.04531e-06
-0.000179757
2.6972e-06
-0.000244896
3.06793e-06
-0.000331739
2.64444e-06
-0.000446453
2.75572e-06
-0.00055719
2.63497e-05
-0.00069229
-0.000800657
1.16751e-05
-5.76296e-05
-1.29638e-05
1.10814e-05
-8.97755e-05
1.13661e-05
-0.000129059
1.18305e-05
-0.000180446
1.32503e-05
-0.000246403
1.48208e-05
-0.000332998
1.90463e-05
-0.000451141
2.05276e-05
-0.000558372
-2.95994e-06
-0.000669096
-0.000803682
7.39893e-06
-5.93574e-05
-5.9854e-06
7.86243e-06
-9.05447e-05
8.32424e-06
-0.000129643
8.90588e-06
-0.000181277
1.05405e-05
-0.00024812
1.27043e-05
-0.00033475
1.54725e-05
-0.000454405
1.94062e-05
-0.000562679
1.54997e-05
-0.000664898
-0.000788393
3.20437e-06
-6.25189e-05
-2.45462e-07
4.62351e-06
-9.2037e-05
5.24375e-06
-0.000130324
5.78984e-06
-0.000182027
7.35379e-06
-0.000249733
9.68584e-06
-0.000336702
1.16853e-05
-0.000456598
1.66538e-05
-0.00056785
1.94633e-05
-0.000667585
-0.000769134
1.76427e-06
-6.43939e-05
4.64917e-08
2.58186e-06
-9.28142e-05
2.67302e-06
-0.00013046
2.75395e-06
-0.000182284
3.99426e-06
-0.000250994
6.39444e-06
-0.000338791
8.66159e-06
-0.000459239
1.57609e-05
-0.000575135
1.92646e-05
-0.000670907
-0.000750037
1.27167e-06
-6.47199e-05
-9.25867e-07
8.99982e-07
-9.24038e-05
1.24705e-08
-0.000129632
-7.58423e-07
-0.000181693
-2.75903e-07
-0.000251489
1.70462e-06
-0.000340413
3.45208e-06
-0.000461294
1.14114e-05
-0.000583242
1.56373e-05
-0.000674909
-0.000734599
7.96519e-07
-6.36135e-05
-1.86669e-06
-8.93144e-07
-9.06992e-05
-2.9206e-06
-0.000127654
-4.74162e-06
-0.000180026
-5.40169e-06
-0.000250813
-4.41271e-06
-0.000340994
-4.00928e-06
-0.000461892
2.88181e-06
-0.000590266
8.35669e-06
-0.000680244
-0.000726557
4.0524e-08
-6.12829e-05
-2.34432e-06
-2.98392e-06
-8.76796e-05
-6.21981e-06
-0.00012445
-9.15883e-06
-0.000177209
-1.12864e-05
-0.000248639
-1.18987e-05
-0.000339951
-1.35214e-05
-0.000460422
-1.00791e-05
-0.000593935
-5.41845e-06
-0.000684977
-0.000732403
-1.13788e-06
-5.76946e-05
-2.43522e-06
-5.40699e-06
-8.34429e-05
-9.60701e-06
-0.00012027
-1.34929e-05
-0.000173412
-1.72477e-05
-0.000244812
-2.03384e-05
-0.000336465
-2.53349e-05
-0.000455707
-2.98503e-05
-0.000589932
-4.02967e-05
-0.000674866
-0.000773007
-3.26196e-06
-5.27281e-05
-1.70813e-06
-8.32042e-06
-7.84795e-05
-1.25644e-05
-0.000116046
-1.68384e-05
-0.000169203
-2.22712e-05
-0.000239313
-2.85584e-05
-0.000329941
-3.85321e-05
-0.000446541
-5.34376e-05
-0.000576385
-0.000103646
-0.000624866
-0.000874061
-4.77334e-06
1.81351e-07
-7.7608e-06
-8.89213e-06
-1.03069e-05
-1.3202e-05
-1.7581e-05
-3.25714e-05
-5.96358e-05
-9.16271e-05
-2.52089e-05
1.19227e-05
-3.68528e-05
5.44246e-06
-4.32072e-05
6.03257e-06
-4.65523e-05
3.43058e-06
-4.77425e-05
3.43871e-07
-4.71163e-05
-2.4331e-06
-4.52163e-05
-4.22371e-06
-4.21472e-05
-5.53581e-06
-3.77554e-05
-6.22447e-06
-4.92482e-06
-6.10027e-06
1.7988e-05
-1.72811e-05
1.66102e-05
-2.47231e-05
1.35467e-05
-2.92013e-05
7.99801e-06
-3.13415e-05
2.55255e-06
-3.1473e-05
-2.29279e-06
-3.03422e-05
-5.40911e-06
-2.8233e-05
-7.76557e-06
-2.52244e-05
-9.42112e-06
-9.03336e-06
2.26772e-06
1.57071e-05
-2.21023e-06
2.11552e-05
-7.33711e-06
1.88644e-05
-1.16542e-05
1.24806e-05
-1.44449e-05
5.45939e-06
-1.56647e-05
-1.02654e-06
-1.5595e-05
-5.50024e-06
-1.48143e-05
-8.64135e-06
-1.36376e-05
-1.07483e-05
-1.12866e-05
4.90549e-06
1.08261e-05
7.15966e-06
1.90911e-05
6.60125e-06
1.97316e-05
4.67798e-06
1.46439e-05
2.53944e-06
7.78041e-06
6.64012e-07
9.70455e-07
-4.22833e-07
-4.3586e-06
-1.03369e-06
-8.05113e-06
-1.49978e-06
-1.03541e-05
-1.14076e-05
4.65018e-06
6.24485e-06
1.06361e-05
1.33841e-05
1.45968e-05
1.61505e-05
1.59085e-05
1.36089e-05
1.5435e-05
8.47329e-06
1.38134e-05
2.75862e-06
1.19162e-05
-2.35981e-06
1.00255e-05
-6.12123e-06
8.2005e-06
-8.53058e-06
-9.83268e-06
3.45629e-06
2.88695e-06
9.66991e-06
7.49889e-06
1.57587e-05
1.04746e-05
1.95811e-05
1.00669e-05
2.12034e-05
7.07264e-06
2.10187e-05
3.12127e-06
1.95308e-05
-7.45864e-07
1.73257e-05
-3.84325e-06
1.47855e-05
-5.96209e-06
-7.17888e-06
2.22338e-06
7.65707e-07
7.08457e-06
2.96986e-06
1.30169e-05
4.94041e-06
1.78266e-05
5.52251e-06
2.06697e-05
4.44046e-06
2.16163e-05
2.34324e-06
2.0993e-05
-3.40247e-09
1.92049e-05
-1.98908e-06
1.66996e-05
-3.43471e-06
-4.21996e-06
1.41339e-06
-5.62702e-07
4.71526e-06
-3.80353e-08
8.98113e-06
1.01174e-06
1.29758e-05
1.75979e-06
1.58585e-05
1.74282e-06
1.72845e-05
1.06347e-06
1.73051e-05
7.83893e-08
1.61752e-05
-8.00868e-07
1.422e-05
-1.44346e-06
-1.4584e-06
7.0867e-07
-1.2132e-06
2.61608e-06
-1.72182e-06
4.97736e-06
-1.12099e-06
7.30948e-06
-3.98101e-07
9.16977e-06
1.93968e-08
1.02217e-05
1.11543e-07
1.03581e-05
3.52316e-09
9.72037e-06
-1.29443e-07
8.44564e-06
-1.26134e-07
7.8676e-07
-1.18402e-06
-2.80217e-06
-3.84763e-06
-4.18542e-06
-4.11949e-06
-3.97524e-06
-3.95124e-06
-4.06798e-06
-4.18465e-06
)
;

boundaryField
{
    right
    {
        type            cyclic;
        value           nonuniform List<scalar> 
20
(
0.000966989
0.000593484
0.000547502
0.000431512
0.000324934
0.000235369
0.000166739
0.000114146
7.53629e-05
4.83593e-05
3.3142e-05
2.15994e-05
1.17767e-05
1.6462e-06
-6.53427e-06
-1.21364e-05
-1.37679e-05
-1.14951e-05
-6.30664e-06
3.37308e-06
)
;
    }
    left
    {
        type            cyclic;
        value           nonuniform List<scalar> 
20
(
-0.000966989
-0.000593484
-0.000547502
-0.000431512
-0.000324934
-0.000235369
-0.000166739
-0.000114146
-7.53629e-05
-4.83593e-05
-3.3142e-05
-2.15994e-05
-1.17767e-05
-1.6462e-06
6.53427e-06
1.21364e-05
1.37679e-05
1.14951e-05
6.30664e-06
-3.37308e-06
)
;
    }
    outerWall
    {
        type            calculated;
        value           uniform 0;
    }
    stirrerWall
    {
        type            calculated;
        value           uniform 0;
    }
    top
    {
        type            empty;
        value           nonuniform List<scalar> 0();
    }
    bottom
    {
        type            empty;
        value           nonuniform List<scalar> 0();
    }
}


// ************************************************************************* //
