/*--------------------------------*- C++ -*----------------------------------*\
  =========                 |
  \\      /  F ield         | OpenFOAM: The Open Source CFD Toolbox
   \\    /   O peration     | Website:  https://openfoam.org
    \\  /    A nd           | Version:  10
     \\/     M anipulation  |
\*---------------------------------------------------------------------------*/
FoamFile
{
    format      ascii;
    class       volVectorField;
    location    "400";
    object      U;
}
// * * * * * * * * * * * * * * * * * * * * * * * * * * * * * * * * * * * * * //

dimensions      [0 1 -1 0 0 0 0];

internalField   nonuniform List<vector> 
420
(
(0.054287 8.3986 8.87019e-18)
(-0.817218 10.6126 -6.31382e-17)
(-0.139566 12.3468 -2.41445e-16)
(0.170688 13.8029 6.29623e-17)
(0.347347 14.954 -3.94628e-16)
(0.392563 15.7973 0)
(0.290624 16.4312 0)
(-0.0103005 16.9098 3.23799e-16)
(-0.380828 17.3849 -3.85576e-16)
(-0.741467 17.6903 0)
(-0.541253 8.1276 3.22852e-17)
(-1.45407 10.2717 -1.61744e-16)
(-1.14037 12.0352 7.66035e-16)
(-0.973888 13.5224 -9.56053e-16)
(-0.931569 14.7325 3.03958e-16)
(-1.03088 15.6676 2.58227e-17)
(-1.27227 16.4292 2.34695e-15)
(-1.68042 17.0911 -5.06434e-16)
(-2.09182 17.6584 8.92212e-16)
(-2.41664 17.9292 0)
(-1.11117 8.19114 1.76525e-16)
(-2.19676 10.046 -7.78562e-16)
(-2.17151 11.7095 7.49311e-16)
(-2.20179 13.1741 1.13075e-15)
(-2.32031 14.4431 -7.2727e-16)
(-2.56733 15.5058 3.3824e-15)
(-2.93944 16.4232 1.42227e-15)
(-3.42618 17.2273 3.52008e-15)
(-3.83594 17.8139 -1.48537e-15)
(-4.05444 17.9301 -3.84067e-15)
(-1.68689 8.18587 -9.18681e-17)
(-2.93773 9.85851 6.50424e-16)
(-3.12524 11.4195 -1.0104e-15)
(-3.35374 12.8462 7.88896e-16)
(-3.64578 14.1612 -1.51208e-15)
(-4.0559 15.3407 1.57485e-15)
(-4.57054 16.4012 -9.34095e-15)
(-5.1016 17.2816 0)
(-5.39087 17.752 -3.95139e-15)
(-5.41006 17.648 3.57883e-15)
(-2.26081 8.12726 0)
(-3.66908 9.65749 4.09394e-16)
(-4.00941 11.1263 -4.36222e-16)
(-4.38691 12.5199 0)
(-4.82277 13.8778 -2.71801e-16)
(-5.34784 15.1748 -3.08213e-16)
(-5.90762 16.3765 3.38146e-15)
(-6.35118 17.2386 -4.06233e-15)
(-6.5521 17.5277 0)
(-6.53878 17.2043 -1.42911e-14)
(-2.83376 8.02413 3.22057e-17)
(-4.3833 9.41228 0)
(-4.81549 10.7939 0)
(-5.2854 12.1589 1.53604e-15)
(-5.7944 13.55 -2.31206e-15)
(-6.36098 14.9373 2.60052e-15)
(-6.89991 16.2322 7.13098e-16)
(-7.29391 17.0491 8.87948e-15)
(-7.50411 17.2107 -1.16053e-14)
(-7.51318 16.7773 6.97957e-15)
(-3.41159 7.87538 0)
(-5.07748 9.09515 -4.28739e-16)
(-5.54798 10.3919 -2.41606e-15)
(-6.05429 11.7107 -8.85368e-16)
(-6.58528 13.095 -4.16147e-15)
(-7.14304 14.5262 2.53658e-15)
(-7.63007 15.8916 -6.28794e-15)
(-8.00677 16.8005 7.53228e-16)
(-8.2589 17.0128 -3.87028e-15)
(-8.4004 16.5196 -1.09878e-14)
(-4.0159 7.67686 -5.69491e-17)
(-5.74724 8.6904 4.33998e-16)
(-6.22203 9.90442 3.10683e-15)
(-6.74809 11.1548 5.12059e-16)
(-7.29188 12.4851 2.33076e-15)
(-7.82897 13.8931 0)
(-8.29672 15.2963 5.77424e-15)
(-8.65528 16.3606 7.15739e-15)
(-8.94419 16.9085 1.01841e-14)
(-9.28974 16.5474 8.41048e-15)
(-4.69022 7.43066 -5.22287e-17)
(-6.3682 8.24199 4.34308e-16)
(-6.85562 9.38342 -4.63456e-16)
(-7.44667 10.5283 -1.92529e-15)
(-8.05913 11.728 6.08147e-15)
(-8.62918 13.0159 7.78561e-15)
(-9.11277 14.3501 -2.5396e-15)
(-9.53294 15.5298 0)
(-9.92571 16.3811 0)
(-10.4332 16.504 -8.18178e-15)
(-5.49927 7.03086 9.77508e-17)
(-6.90096 7.70185 8.5773e-16)
(-7.52212 8.7191 0)
(-8.23701 9.73972 0)
(-8.93582 10.7493 -3.52308e-15)
(-9.58133 11.7534 -1.45558e-17)
(-10.1717 12.746 5.80201e-15)
(-10.7515 13.7059 -1.22144e-14)
(-11.4092 14.6001 1.43756e-14)
(-12.2241 15.0279 1.15806e-15)
(-1.02173 17.6945 0)
(-1.15708 17.3371 0)
(-1.12841 16.7012 0)
(-1.07133 15.8842 -1.00046e-15)
(-1.1594 14.9385 0)
(-1.11493 13.7663 0)
(-0.769276 12.881 1.24672e-15)
(-1.50883 12.5089 0)
(-8.17226 15.0201 0)
(17.7224 8.98674 0)
(-2.5879 17.7743 1.60883e-15)
(-2.54241 17.2377 3.0362e-15)
(-2.34636 16.5393 2.60587e-16)
(-2.16637 15.7656 1.19852e-15)
(-2.1482 14.8857 1.69088e-16)
(-1.96373 13.7576 1.4982e-15)
(-1.38374 13.0032 1.42057e-16)
(-1.99081 12.6557 1.34218e-17)
(-8.55925 14.3849 -3.81877e-15)
(17.5512 9.03447 -3.78587e-15)
(-4.01495 17.5611 1.46015e-15)
(-3.78008 16.9137 0)
(-3.45877 16.2278 -2.44456e-15)
(-3.18701 15.5332 -2.15132e-15)
(-3.07883 14.7407 5.96083e-15)
(-2.76855 13.6707 -1.32398e-15)
(-1.997 13.0181 2.10345e-15)
(-2.65092 12.569 0)
(-8.96118 13.481 2.31852e-15)
(17.5123 10.602 3.83131e-16)
(-5.23358 17.1176 3.16891e-15)
(-4.86783 16.4324 8.2428e-15)
(-4.46541 15.8055 -8.85362e-15)
(-4.14436 15.1965 3.44988e-15)
(-3.96521 14.4824 -1.77796e-16)
(-3.57193 13.468 0)
(-2.66437 12.8774 -2.09723e-15)
(-3.38649 12.3481 -2.7743e-15)
(-9.44571 12.4981 -2.29837e-15)
(17.0501 12.3488 1.1685e-14)
(-6.30406 16.564 2.70201e-15)
(-5.8437 15.8839 -2.56619e-15)
(-5.39348 15.3164 8.45198e-15)
(-5.05114 14.7812 -3.45015e-15)
(-4.81407 14.1354 2.7568e-15)
(-4.36341 13.1701 -4.20708e-15)
(-3.35619 12.6297 3.46911e-15)
(-4.14906 12.0249 2.49942e-15)
(-9.91574 11.5002 0)
(16.1483 14.2469 -2.38993e-14)
(-7.27653 16.0137 3.20621e-15)
(-6.72536 15.3105 -1.44333e-14)
(-6.25371 14.7837 -4.27267e-15)
(-5.91086 14.3043 9.42196e-15)
(-5.63062 13.7165 7.62654e-15)
(-5.14635 12.7931 1.08028e-16)
(-4.05378 12.2964 -1.36846e-16)
(-4.91127 11.625 -2.14161e-15)
(-10.3137 10.5137 -2.66194e-15)
(14.8692 16.1406 1.87945e-14)
(-8.19204 15.5227 3.18124e-15)
(-7.53586 14.7354 4.84359e-15)
(-7.06108 14.2292 0)
(-6.73527 13.7837 -3.08013e-15)
(-6.42464 13.2416 -4.70035e-15)
(-5.92458 12.3538 -1.05656e-18)
(-4.75465 11.8977 -8.42007e-15)
(-5.64925 11.1649 -1.98356e-15)
(-10.6168 9.55927 3.4869e-15)
(13.1639 17.8995 -8.02664e-15)
(-9.10607 15.0966 1.21264e-14)
(-8.33898 14.1645 -4.54655e-15)
(-7.84488 13.6655 0)
(-7.54439 13.2238 -1.14349e-16)
(-7.21032 12.7161 1.75246e-14)
(-6.70386 11.8541 -6.4899e-15)
(-5.46467 11.4368 -4.27624e-15)
(-6.35559 10.6718 3.43136e-15)
(-10.9095 8.66569 -9.85761e-16)
(10.9797 19.359 0)
(-9.99548 14.5766 2.33174e-16)
(-9.25854 13.5272 -4.39616e-15)
(-8.66687 13.0559 0)
(-8.36275 12.6003 5.23369e-15)
(-7.99247 12.114 -1.2556e-14)
(-7.47309 11.2729 6.1465e-15)
(-6.16323 10.8707 2.38324e-15)
(-6.99284 10.2216 0)
(-11.329 7.92634 2.65519e-16)
(8.32874 20.269 9.75498e-15)
(-10.5778 13.6622 3.95406e-16)
(-10.3195 12.7402 -2.01234e-17)
(-9.65933 12.347 0)
(-9.29248 11.8848 -1.04896e-14)
(-8.85996 11.4121 4.23298e-15)
(-8.3184 10.6204 -2.74413e-15)
(-6.90517 10.1958 1.74926e-15)
(-7.51485 9.74291 -1.19578e-15)
(-11.9787 7.56426 -6.00683e-16)
(5.65921 20.2908 -9.19828e-15)
(-10.9169 13.1143 2.8779e-15)
(-11.1782 11.9523 -4.58602e-15)
(-10.7083 11.4891 0)
(-10.3247 10.9799 0)
(-9.8791 10.4536 0)
(-9.32284 9.64102 -1.36079e-15)
(-7.91615 9.1787 5.16063e-15)
(-8.42354 8.57299 0)
(-11.9199 6.72469 0)
(3.56668 21.4183 0)
(-11.6732 12.2293 -2.88574e-15)
(-11.5704 11.4733 -4.59827e-15)
(-11.2221 11.0462 0)
(-10.7961 10.5627 2.65656e-15)
(-10.3122 10.0501 -2.04902e-15)
(-9.76306 9.20142 1.36171e-15)
(-8.27437 8.8406 2.10289e-15)
(-8.77812 8.16666 3.87047e-16)
(-11.9719 5.63891 2.19605e-16)
(2.89049 22.3775 0)
(-12.1724 11.5384 1.1546e-16)
(-11.8802 11.0022 -4.65845e-17)
(-11.5361 10.6622 0)
(-11.0709 10.2306 -1.18554e-16)
(-10.4816 9.80702 3.93732e-15)
(-9.87885 8.98515 -3.19916e-15)
(-8.29176 8.67399 -6.197e-15)
(-8.73691 8.2327 -1.49452e-15)
(-12.5721 4.0682 1.84187e-15)
(1.67613 22.6945 1.0217e-14)
(-13.2974 10.1412 -1.15755e-14)
(-12.7934 9.95544 4.41027e-15)
(-12.3921 9.63701 0)
(-11.8822 9.23775 -5.65935e-15)
(-11.2126 8.85771 -4.24173e-15)
(-10.5408 8.13251 6.1139e-15)
(-8.94484 7.75887 2.28637e-15)
(-9.22305 7.54034 0)
(-13.2076 3.9002 -2.17789e-15)
(-0.728445 22.7282 -2.94181e-15)
(-13.977 8.80316 -9.78531e-17)
(-13.5138 8.73736 4.30719e-15)
(-13.1145 8.51039 0)
(-12.5682 8.15441 1.13087e-14)
(-11.8317 7.80916 1.20158e-16)
(-11.0959 7.15817 1.83162e-16)
(-9.49623 6.83394 4.78419e-15)
(-9.55899 6.70764 -3.47214e-15)
(-13.3595 2.94584 -1.14396e-15)
(-3.35601 22.3146 0)
(-14.4282 7.60657 -2.66997e-15)
(-14.1007 7.57711 9.1336e-15)
(-13.7485 7.38685 7.61168e-15)
(-13.1883 7.05011 -8.94718e-15)
(-12.3939 6.7264 -1.43225e-14)
(-11.5769 6.1535 6.35143e-17)
(-9.97925 5.88288 -2.74063e-15)
(-9.81114 5.90704 -2.20079e-15)
(-13.3854 2.01931 -3.63684e-15)
(-5.94605 21.5232 -1.33527e-14)
(-14.8655 6.49807 -8.54156e-15)
(-14.6407 6.43939 4.76335e-15)
(-14.3311 6.23998 -3.75649e-15)
(-13.755 5.89828 -9.77172e-15)
(-12.9015 5.57468 7.47617e-15)
(-11.9927 5.07576 -6.83507e-17)
(-10.4052 4.84299 6.11929e-15)
(-9.98357 4.94745 1.70486e-15)
(-13.3955 0.9928 2.79332e-15)
(-8.34481 20.4182 1.84681e-15)
(-15.3353 5.4059 2.57051e-15)
(-15.1775 5.28996 -2.46154e-15)
(-14.8888 5.05874 -2.29034e-16)
(-14.2838 4.69972 1.00892e-14)
(-13.3663 4.36639 -1.40659e-14)
(-12.3651 3.93209 4.38477e-15)
(-10.7961 3.73677 -3.73911e-15)
(-10.139 3.81854 8.95041e-15)
(-13.3115 -0.106075 0)
(-10.577 19.0304 -9.76188e-16)
(-15.8311 4.28755 2.78307e-15)
(-15.7219 4.10457 2.44701e-15)
(-15.4332 3.82755 4.50524e-15)
(-14.7797 3.44929 -7.24286e-15)
(-13.7951 3.11181 2.7051e-15)
(-12.7007 2.72307 0)
(-11.1629 2.55591 -2.22437e-15)
(-10.2944 2.50875 -6.83985e-15)
(-13.1755 -1.2577 -3.22226e-16)
(-12.3425 17.3302 1.29994e-14)
(-16.3528 3.11777 1.25844e-15)
(-16.2788 2.86143 0)
(-15.9634 2.54467 2.3711e-15)
(-15.2438 2.16723 2.19872e-15)
(-14.2149 1.84281 6.89655e-17)
(-13.0366 1.49587 -1.39622e-15)
(-11.5405 1.25216 2.23122e-15)
(-10.6046 1.12258 0)
(-13.2473 -3.01394 3.12141e-15)
(-13.1595 15.329 1.66614e-14)
(-16.873 1.8392 1.40784e-15)
(-16.8092 1.51724 -2.75395e-15)
(-16.4412 1.21348 -2.55525e-16)
(-15.6457 0.891944 7.91814e-16)
(-14.5976 0.570548 -1.90279e-16)
(-13.4144 0.329918 1.22754e-15)
(-11.9359 -0.119108 -2.81051e-15)
(-10.9648 -0.334144 -2.77692e-16)
(-14.2423 -6.20083 4.63528e-15)
(-15.9121 15.0077 -1.12588e-14)
(-17.3961 0.477215 2.04617e-29)
(-17.189 0.229386 0)
(-16.6454 0.127626 0)
(-15.8192 0.042814 -1.01355e-15)
(-14.8122 -0.172919 0)
(-13.5803 -0.179262 0)
(-12.4283 -0.237539 1.28062e-15)
(-11.9194 -1.08309 0)
(-15.621 -9.26212 0)
(-4.29567 18.1605 -5.74943e-29)
(-14.283 12.0581 8.31577e-16)
(-14.1228 10.4468 -6.80757e-15)
(-14.464 8.77431 6.39662e-15)
(-14.7021 7.5527 -9.05748e-15)
(-15.0013 6.49591 6.20295e-15)
(-15.3861 5.48053 -1.28006e-14)
(-15.8324 4.43444 3.00816e-15)
(-16.3104 3.34121 -3.09382e-15)
(-16.7942 2.15901 0)
(-17.3171 0.808865 -3.39223e-16)
(-15.0868 11.6061 1.36004e-14)
(-15.0467 10.0977 0)
(-14.9941 8.51277 6.90283e-15)
(-15.0364 7.39194 -2.96695e-15)
(-15.1847 6.42344 -1.00391e-14)
(-15.4559 5.51054 0)
(-15.8185 4.5474 -3.29386e-15)
(-16.2123 3.53343 -1.34614e-15)
(-16.6212 2.44751 8.44029e-16)
(-17.0404 1.15684 -3.47502e-16)
(-14.868 10.8358 -1.1298e-14)
(-15.3957 9.37135 0)
(-15.4085 8.10634 6.70818e-15)
(-15.3766 7.18845 4.71371e-16)
(-15.4056 6.3594 8.65647e-15)
(-15.5505 5.5613 -4.32604e-15)
(-15.8101 4.65075 0)
(-16.1023 3.67869 3.64105e-15)
(-16.395 2.63821 -5.48622e-16)
(-16.665 1.42782 4.1088e-16)
(-13.7105 10.1196 5.27423e-15)
(-15.0287 8.70836 -2.24593e-15)
(-15.4696 7.59592 5.06335e-15)
(-15.6151 6.83477 -5.57715e-15)
(-15.6547 6.16686 5.19221e-16)
(-15.7221 5.50076 3.93071e-15)
(-15.8585 4.69193 -1.11492e-14)
(-16.0365 3.77046 1.80819e-15)
(-16.205 2.74658 2.67385e-15)
(-16.3421 1.61334 6.81476e-17)
(-12.3303 9.44794 -8.14108e-15)
(-13.9045 8.24559 6.6514e-15)
(-14.8663 7.20906 0)
(-15.3281 6.48753 2.10983e-15)
(-15.5518 5.87457 2.28639e-15)
(-15.6527 5.24749 -2.47388e-16)
(-15.7185 4.52274 1.74317e-15)
(-15.7774 3.66328 3.65658e-15)
(-15.8208 2.68838 -2.35218e-17)
(-15.8314 1.62024 3.07615e-16)
(-11.0117 8.77699 -3.35879e-15)
(-12.4653 7.8192 5.66388e-15)
(-13.5959 6.86763 1.99595e-15)
(-14.3472 6.14487 -3.35269e-15)
(-14.7764 5.52807 -1.96412e-15)
(-15.0388 4.91206 -2.45071e-16)
(-15.1598 4.22113 -3.55349e-15)
(-15.1945 3.40729 1.0341e-15)
(-15.1711 2.48349 3.00891e-16)
(-15.0946 1.47527 -3.32809e-16)
(-9.81967 8.09895 0)
(-10.9893 7.35397 -2.00918e-15)
(-12.0215 6.51307 4.47604e-16)
(-12.9002 5.79948 -8.14539e-16)
(-13.4841 5.15115 1.37672e-15)
(-13.8575 4.5088 0)
(-14.0696 3.81146 8.28177e-16)
(-14.1454 3.02348 1.15031e-15)
(-14.1165 2.14878 -1.02093e-15)
(-14.0037 1.20698 -2.66102e-17)
(-8.73338 7.41013 0)
(-9.62657 6.82747 -5.99467e-16)
(-10.444 6.10622 3.51405e-15)
(-11.2339 5.42014 -2.52493e-15)
(-11.8482 4.74405 0)
(-12.2815 4.0654 -4.26678e-16)
(-12.5508 3.35018 -1.0141e-15)
(-12.675 2.5656 8.19532e-16)
(-12.6804 1.72578 7.95771e-16)
(-12.569 0.827298 -3.01762e-16)
(-7.69859 6.66793 -9.33877e-16)
(-8.3629 6.20768 6.00678e-16)
(-9.00409 5.54742 5.68427e-16)
(-9.63354 4.86531 -5.32697e-16)
(-10.1544 4.17262 0)
(-10.5443 3.47299 4.82962e-16)
(-10.803 2.75553 6.99452e-16)
(-10.9359 2.00582 -8.20708e-16)
(-10.9554 1.21617 -1.64264e-16)
(-10.879 0.298235 1.34371e-17)
(-6.3445 6.25127 -2.7896e-16)
(-6.53114 6.00357 1.20876e-16)
(-6.89877 5.43205 1.0394e-16)
(-7.28771 4.78757 0)
(-7.65246 4.14782 -4.31535e-17)
(-7.97044 3.51599 0)
(-8.22833 2.88008 -1.79965e-16)
(-8.42051 2.23322 2.23545e-16)
(-8.54881 1.57501 3.81513e-17)
(-8.68535 0.835787 -1.17905e-17)
)
;

boundaryField
{
    right
    {
        type            cyclic;
    }
    left
    {
        type            cyclic;
    }
    outerWall
    {
        type            calculated;
        value           nonuniform List<vector> 
22
(
(-1.55201 41.8305 0)
(-4.64749 41.6006 0)
(-7.71741 41.1419 0)
(-10.7449 40.4569 0)
(-13.7132 39.5492 0)
(-16.6061 38.424 0)
(-19.4075 37.0874 0)
(-22.1022 35.5467 0)
(-24.6752 33.8104 0)
(-27.1124 31.8882 0)
(-28.9573 30.2506 0)
(-30.2506 28.9573 0)
(-31.8882 27.1124 0)
(-33.8104 24.6752 0)
(-35.5467 22.1022 0)
(-37.0874 19.4075 0)
(-38.424 16.6061 0)
(-39.5492 13.7132 0)
(-40.4569 10.7449 0)
(-41.1419 7.71741 0)
(-41.6006 4.64749 0)
(-41.8305 1.55201 0)
)
;
    }
    stirrerWall
    {
        type            calculated;
        value           nonuniform List<vector> 
42
(
(-0.310178 8.3662 0)
(-0.928834 8.32046 0)
(-1.54239 8.22894 0)
(-2.14746 8.09214 0)
(-2.74072 7.91082 0)
(-3.31888 7.68598 0)
(-3.87877 7.41885 0)
(-4.41729 7.11092 0)
(-4.93148 6.76387 0)
(-5.4185 6.37963 0)
(-6.07951 6.64185 0)
(-6.92878 7.56862 0)
(-7.77806 8.49539 0)
(-8.62734 9.42216 0)
(-9.47661 10.3489 0)
(-10.3259 11.2757 0)
(-11.1752 12.2025 0)
(-12.0244 13.1292 0)
(-12.8737 14.056 0)
(-13.723 14.9828 0)
(-14.4723 15.1215 0)
(-15.1215 14.4723 0)
(-14.9828 13.723 0)
(-14.056 12.8737 0)
(-13.1292 12.0244 0)
(-12.2025 11.1752 0)
(-11.2757 10.3259 0)
(-10.3489 9.47661 0)
(-9.42216 8.62734 0)
(-8.49539 7.77806 0)
(-7.56862 6.92878 0)
(-6.64185 6.07951 0)
(-6.37963 5.4185 0)
(-6.76387 4.93148 0)
(-7.11092 4.41729 0)
(-7.41885 3.87877 0)
(-7.68598 3.31888 0)
(-7.91082 2.74072 0)
(-8.09214 2.14746 0)
(-8.22894 1.54239 0)
(-8.32046 0.928834 0)
(-8.3662 0.310178 0)
)
;
    }
    top
    {
        type            empty;
    }
    bottom
    {
        type            empty;
    }
}


// ************************************************************************* //
