/*--------------------------------*- C++ -*----------------------------------*\
  =========                 |
  \\      /  F ield         | OpenFOAM: The Open Source CFD Toolbox
   \\    /   O peration     | Website:  https://openfoam.org
    \\  /    A nd           | Version:  10
     \\/     M anipulation  |
\*---------------------------------------------------------------------------*/
FoamFile
{
    format      ascii;
    class       volVectorField;
    location    "400";
    object      U;
}
// * * * * * * * * * * * * * * * * * * * * * * * * * * * * * * * * * * * * * //

dimensions      [0 1 -1 0 0 0 0];

internalField   nonuniform List<vector> 
2000
(
(1.68159 37.0815 -6.70935e-18)
(-1.10997 42.7928 9.33898e-18)
(2.23788 49.4549 -6.70633e-18)
(5.21745 56.9625 0)
(7.62204 63.6938 0)
(9.18451 68.8058 1.71285e-16)
(10.1284 72.5055 -2.26891e-16)
(10.6163 75.178 -2.93457e-16)
(10.7887 77.1003 3.73325e-16)
(10.7516 78.4831 4.69559e-16)
(10.588 79.5007 5.86605e-16)
(10.3466 80.2945 0)
(10.0799 80.9969 9.06334e-16)
(9.73025 81.5773 1.02321e-15)
(9.07475 81.9054 9.85774e-16)
(8.46644 82.4472 9.64271e-16)
(8.08164 83.7356 -9.53371e-16)
(7.67804 85.0143 4.20584e-16)
(7.33434 85.8232 4.02525e-16)
(6.72457 86.8474 1.62963e-15)
(0.460473 37.0667 9.09152e-18)
(-3.98537 42.1221 1.26363e-17)
(-0.507262 47.6369 -1.03195e-16)
(2.4806 55.1552 -2.9497e-16)
(5.11178 62.271 5.11705e-17)
(6.94652 67.8454 -7.10064e-16)
(8.08304 71.9329 4.21981e-16)
(8.69005 74.9034 8.43654e-16)
(8.91924 77.0218 3.32059e-16)
(8.87555 78.5263 4.19304e-16)
(8.61291 79.6174 -1.05652e-15)
(8.18991 80.4349 -6.44944e-16)
(7.69235 81.0894 -8.61042e-16)
(7.08818 81.5982 -9.61837e-16)
(6.30045 82.0323 -2.86802e-15)
(5.50042 82.7831 -1.05046e-15)
(4.8374 83.9514 2.66833e-15)
(4.28048 85.2522 -2.42826e-15)
(3.46103 86.5615 0)
(2.31324 88.0712 -2.37012e-15)
(-0.620271 37.1969 -3.24671e-20)
(-5.75404 41.6271 -7.52638e-17)
(-4.0258 45.8228 1.23885e-16)
(-1.58767 52.3343 3.21015e-16)
(1.1068 59.5503 5.01535e-16)
(3.4404 65.6815 1.52023e-16)
(5.00686 70.3445 4.35349e-16)
(5.93381 73.7889 -8.07372e-16)
(6.36078 76.2998 -7.03168e-16)
(6.43501 78.1253 -8.65344e-16)
(6.14369 79.4712 1.06056e-15)
(5.6923 80.4941 0)
(5.13636 81.3283 -3.07372e-15)
(4.43189 81.9763 0)
(3.52035 82.577 0)
(2.51469 83.4205 0)
(1.49627 84.6043 1.79656e-15)
(0.264024 86.0802 -3.03606e-15)
(-1.16402 87.7079 0)
(-2.91744 89.488 1.63161e-15)
(-1.61922 37.3337 -5.5513e-17)
(-6.92337 41.3791 2.97267e-16)
(-6.40648 44.9758 0)
(-4.79788 50.3403 6.97161e-16)
(-3.03973 56.9675 1.81712e-16)
(-0.654934 63.2554 1.29141e-16)
(1.17275 68.4023 -5.88266e-17)
(2.36462 72.3592 1.44846e-15)
(2.99413 75.3318 0)
(3.16201 77.5467 6.64247e-16)
(2.9857 79.2015 9.06957e-16)
(2.57614 80.4547 2.33161e-15)
(1.9352 81.4612 3.00065e-15)
(1.05533 82.222 6.49201e-15)
(-0.042995 83.0076 -3.02901e-15)
(-1.36048 84.0643 -1.68306e-16)
(-2.97151 85.4289 6.13539e-15)
(-4.83534 87.1347 3.13038e-15)
(-6.99188 89.0488 3.25909e-15)
(-9.13003 90.9738 3.48386e-15)
(-2.69041 37.3462 0)
(-7.99964 41.1505 -5.40381e-16)
(-7.86849 44.4338 -2.08464e-16)
(-7.42455 49.1738 -8.90317e-16)
(-6.55154 54.7705 -1.07615e-15)
(-4.87369 60.7064 2.95024e-16)
(-3.1229 66.082 -8.90171e-16)
(-1.87298 70.474 -1.47564e-15)
(-1.16349 73.9129 -5.60462e-16)
(-0.93778 76.5516 8.51102e-17)
(-1.10708 78.567 -1.74408e-15)
(-1.60097 80.1174 -2.39714e-15)
(-2.36858 81.351 -2.77038e-15)
(-3.49215 82.3176 -3.13925e-15)
(-4.91513 83.4128 0)
(-6.73431 84.8074 9.41379e-17)
(-9.06294 86.4963 1.31722e-16)
(-11.6371 88.4733 -3.37468e-15)
(-14.1805 90.5249 -1.12141e-14)
(-16.2269 92.2555 3.67072e-15)
(-3.88099 37.2193 0)
(-9.22952 40.8297 2.85354e-16)
(-9.02367 43.9451 0)
(-9.53618 48.2576 5.26687e-16)
(-9.13128 53.2779 1.5603e-15)
(-8.65639 58.5169 0)
(-7.48135 63.7077 1.75624e-15)
(-6.48772 68.329 3.15963e-15)
(-5.92756 72.1526 0)
(-5.82947 75.207 -1.29661e-15)
(-6.16121 77.61 4.06701e-15)
(-6.89054 79.4893 3.62385e-16)
(-7.98767 80.9893 3.34934e-15)
(-9.55369 82.2752 -2.94106e-15)
(-11.5323 83.7997 0)
(-14.0472 85.6489 -6.76698e-15)
(-17.0934 87.7639 -3.60877e-15)
(-20.0258 89.8977 0)
(-22.2665 91.7056 9.41777e-15)
(-23.3815 92.7047 -2.0012e-14)
(-5.16044 36.9944 -1.97378e-16)
(-10.5952 40.3761 9.3437e-17)
(-10.2384 43.4124 -6.24486e-16)
(-11.0363 47.4946 -2.51914e-16)
(-11.317 52.2333 9.96661e-17)
(-11.4525 56.9099 -1.16424e-15)
(-11.437 61.6798 2.14448e-15)
(-11.0447 66.2491 -3.46254e-15)
(-10.9256 70.3064 -4.30908e-15)
(-11.2161 73.7074 3.08777e-15)
(-11.9563 76.4799 -2.34847e-15)
(-13.1891 78.7132 -2.72636e-15)
(-14.9288 80.5288 2.91842e-15)
(-17.2156 82.2325 -7.029e-15)
(-20.0116 84.3167 0)
(-23.2811 86.7249 1.70995e-14)
(-26.644 89.2249 -1.88959e-14)
(-28.8915 90.8748 1.04555e-14)
(-29.6598 91.1664 1.35414e-14)
(-29.204 90.4988 4.09032e-16)
(-6.48638 36.6943 -1.93468e-17)
(-12.0786 39.8172 -1.85806e-16)
(-11.667 42.7865 7.70632e-16)
(-12.5385 46.7234 -9.51633e-16)
(-13.2581 51.2988 -1.56269e-15)
(-13.7753 55.8851 0)
(-14.5464 60.1666 -2.65748e-15)
(-15.1386 64.5354 0)
(-15.7083 68.6726 3.28039e-15)
(-16.6428 72.3263 0)
(-18.0556 75.4444 0)
(-20.0707 78.0888 -4.74447e-16)
(-22.8177 80.3747 1.49055e-14)
(-26.2313 82.3857 9.98636e-15)
(-29.9778 85.0636 5.38338e-16)
(-33.4905 87.1637 -1.20477e-14)
(-36.0131 87.7783 0)
(-35.7336 87.9101 0)
(-34.2238 88.4642 1.55498e-14)
(-32.729 88.311 2.80181e-14)
(-7.8493 36.3585 1.89232e-16)
(-13.6462 39.201 -5.20983e-16)
(-13.3243 42.0585 3.24288e-16)
(-14.2371 45.8479 -6.14216e-16)
(-15.1104 50.3504 -9.7285e-16)
(-16.1607 54.9607 1.07286e-15)
(-17.2164 59.1544 1.86474e-15)
(-18.5846 63.2781 -1.67499e-15)
(-19.9671 67.4762 0)
(-21.6731 71.3393 -5.21922e-15)
(-23.9133 74.8165 5.16647e-15)
(-26.8402 78.0116 -7.08895e-15)
(-30.5766 80.9356 0)
(-35.1056 82.6229 1.31086e-15)
(-39.121 84.1144 8.56197e-16)
(-40.6517 85.9743 1.74761e-14)
(-40.463 86.8518 -3.00822e-14)
(-39.0823 86.8631 1.28285e-14)
(-37.4826 86.2456 -1.21812e-14)
(-35.9686 85.6046 -1.14806e-14)
(-9.2523 36.0188 0)
(-15.2775 38.5508 -1.05461e-17)
(-15.1028 41.2664 -9.22525e-16)
(-16.184 44.8538 -7.04125e-17)
(-17.1553 49.2715 0)
(-18.4364 54.0023 0)
(-20.0009 58.3673 -6.07639e-15)
(-21.5303 62.2682 2.20285e-15)
(-23.6548 66.7065 -1.14754e-14)
(-26.0144 70.8339 -1.1312e-15)
(-28.9088 74.5898 1.43711e-14)
(-32.4679 77.9272 -8.29572e-15)
(-36.7369 82.154 5.33608e-16)
(-40.8199 86.0022 1.71647e-15)
(-43.6262 87.642 -9.44439e-15)
(-44.8722 87.1843 0)
(-44.4005 84.958 -1.13063e-14)
(-42.3942 83.4938 4.52268e-14)
(-40.2524 83.0168 -2.08617e-14)
(-38.495 82.7336 1.09518e-14)
(-10.7114 35.6913 9.17363e-17)
(-16.976 37.8762 5.42417e-16)
(-17.0308 40.3966 9.16693e-16)
(-18.333 43.7244 5.25648e-16)
(-19.423 48.0178 8.52266e-16)
(-20.8334 52.8912 0)
(-22.6361 57.5057 1.74292e-15)
(-24.3307 61.3294 2.84126e-15)
(-26.9148 66.0933 -8.13463e-15)
(-29.6934 70.4879 1.50478e-14)
(-33.3512 74.7943 1.00173e-14)
(-37.8993 79.7076 -7.95142e-15)
(-42.3317 84.1778 1.45286e-14)
(-46.0226 86.0906 7.86409e-15)
(-48.0921 86.5904 8.22489e-15)
(-47.8137 85.3455 1.00435e-15)
(-45.7927 82.3771 -9.97739e-15)
(-43.4026 80.6852 4.97325e-16)
(-41.8062 80.3601 -2.25125e-14)
(-40.4542 80.1797 -1.15195e-14)
(-12.2166 35.406 0)
(-18.7994 37.2249 -4.12309e-16)
(-19.2497 39.463 3.88879e-16)
(-20.739 42.4816 -7.92979e-16)
(-21.9365 46.5211 2.10519e-15)
(-23.3901 51.3427 -1.45038e-15)
(-25.2286 56.0229 0)
(-27.2219 59.7814 0)
(-30.1154 64.7291 7.91538e-15)
(-33.6051 70.2844 0)
(-37.8113 75.2703 1.06696e-15)
(-42.03 80.042 -1.33012e-14)
(-45.6761 84.3177 7.10197e-15)
(-48.4925 86.5758 -6.58479e-15)
(-49.7197 85.8993 0)
(-49.2546 83.8194 8.75013e-15)
(-46.7123 79.9752 0)
(-44.7911 78.4911 -1.10745e-14)
(-43.233 78.2406 -2.195e-14)
(-41.9298 78.0952 2.00164e-14)
(-13.7719 35.1945 -1.36134e-16)
(-20.7508 36.6454 -6.918e-16)
(-21.5953 38.5501 0)
(-23.3057 41.1873 -1.36883e-15)
(-24.7576 45.0519 -8.71932e-16)
(-26.4482 49.9383 -1.40082e-15)
(-28.5205 54.8826 0)
(-30.9608 59.1199 0)
(-33.866 63.8386 8.40141e-15)
(-37.2505 70.0177 0)
(-41.2397 75.4499 7.48769e-15)
(-45.3111 80.5433 -5.79961e-15)
(-48.8395 84.5614 -5.60661e-15)
(-51.2307 86.2167 9.15027e-16)
(-51.8269 85.8113 -2.19806e-14)
(-50.2962 82.8172 8.21832e-15)
(-46.9426 78.3646 -1.31343e-14)
(-45.2334 76.6889 0)
(-43.6901 76.4684 -1.14719e-14)
(-42.6044 76.4473 3.28232e-14)
(-15.3722 35.0805 -7.70952e-17)
(-22.7907 36.1711 1.36227e-15)
(-24.0137 37.6263 -4.07937e-16)
(-25.9191 39.8088 1.31522e-15)
(-27.5228 43.3331 1.90395e-15)
(-29.2789 48.2212 -3.6198e-15)
(-31.4347 53.5309 9.98028e-15)
(-33.9696 58.203 -1.34436e-14)
(-37.1162 62.6864 -3.9984e-16)
(-40.5192 69.2458 -7.5712e-15)
(-44.2686 74.9389 1.92959e-14)
(-47.9335 80.2064 -1.29823e-14)
(-50.8257 84.2042 6.15799e-15)
(-52.4161 85.8349 0)
(-52.1954 84.8842 0)
(-49.9729 81.4674 0)
(-46.5992 77.3991 1.78201e-14)
(-45.3996 75.6865 9.11562e-16)
(-43.7763 75.2389 -1.24202e-14)
(-42.943 75.3345 -1.13209e-14)
(-17.0097 35.0698 -8.13082e-17)
(-24.8703 35.827 -1.5406e-15)
(-26.4571 36.8185 -6.18646e-16)
(-28.5694 38.4117 5.87491e-16)
(-30.3335 41.2816 1.14554e-15)
(-32.0126 45.6365 -1.29986e-15)
(-33.8591 50.8187 0)
(-36.1781 55.8161 0)
(-39.454 60.8537 0)
(-42.9206 67.7792 0)
(-46.4283 73.8916 -1.25561e-14)
(-49.5675 79.4919 1.95113e-14)
(-51.4844 83.7661 -6.3097e-15)
(-52.3964 85.6504 0)
(-51.3989 84.8802 0)
(-48.9434 81.5381 0)
(-45.4898 77.913 4.07029e-14)
(-44.3173 75.3831 1.01185e-15)
(-42.8298 74.6404 7.00385e-16)
(-42.7188 74.9658 0)
(-18.6912 35.1134 0)
(-26.9201 35.6297 3.28189e-15)
(-28.813 36.247 -6.59364e-16)
(-31.1945 37.3009 3.47544e-15)
(-33.294 39.3221 -3.81344e-15)
(-35.2154 42.71 0)
(-37.1057 47.232 0)
(-39.5644 52.2387 1.38091e-14)
(-42.4554 58.112 0)
(-45.3296 65.5364 0)
(-48.3434 72.1086 -1.37941e-14)
(-50.6674 77.9897 2.19951e-14)
(-52.0273 82.5243 -7.37214e-15)
(-51.5703 84.8967 -3.90166e-14)
(-49.6385 84.9136 -1.78756e-15)
(-46.9016 82.6772 -2.18214e-15)
(-43.5595 79.9071 9.34431e-14)
(-42.4297 76.6369 3.23001e-14)
(-41.8396 75.3951 0)
(-42.777 75.8375 -2.67563e-14)
(-20.4125 35.1777 0)
(-28.8057 35.565 -1.78732e-15)
(-30.8464 36.1667 2.51771e-15)
(-33.5203 36.7867 -2.07328e-15)
(-36.0587 38.2205 2.90501e-15)
(-38.4535 40.667 0)
(-40.7128 44.2433 0)
(-43.2727 48.9304 -1.5787e-17)
(-45.4763 54.8652 -7.64947e-15)
(-47.4464 62.1378 6.22751e-15)
(-49.6636 69.1189 1.48529e-14)
(-51.1487 75.5324 -1.68752e-14)
(-51.35 80.5131 -3.80493e-14)
(-49.666 83.3816 3.60535e-14)
(-47.0824 84.1359 1.89793e-14)
(-44.5575 83.4163 -2.33078e-14)
(-42.1618 81.7368 -8.59907e-16)
(-41.2552 78.8443 -2.23588e-14)
(-42.1504 77.1354 -2.26536e-14)
(-45.013 77.3077 4.6374e-14)
(-22.1178 35.1592 0)
(-30.3648 35.4608 1.96128e-15)
(-32.1826 36.5063 -2.80125e-15)
(-35.0424 37.2168 2.57849e-15)
(-38.0202 38.228 9.12064e-16)
(-40.9357 39.9688 0)
(-43.6311 42.5302 0)
(-46.0545 46.1715 -5.46341e-15)
(-47.9393 51.0813 -1.46365e-15)
(-49.1797 57.5426 6.54017e-15)
(-50.4907 64.6219 0)
(-50.7354 71.3866 0)
(-49.7173 76.6058 1.76385e-14)
(-47.4214 79.9404 -1.00947e-15)
(-44.9052 81.6758 1.89555e-14)
(-43.1361 82.0374 -1.92741e-14)
(-42.1179 81.0251 0)
(-42.6273 79.1151 0)
(-45.3854 77.7962 0)
(-50.3571 77.7982 0)
(-24.0812 34.8655 3.33382e-16)
(-31.4605 35.0971 -4.48219e-15)
(-32.6519 36.9588 4.632e-15)
(-35.3082 38.2173 -5.28923e-15)
(-38.516 39.3322 -3.01009e-15)
(-41.9026 40.7048 9.16619e-15)
(-45.1748 42.5557 0)
(-47.9309 45.0982 -9.72623e-15)
(-50.2501 48.7013 -7.12358e-15)
(-51.3576 53.6826 7.11919e-15)
(-52.0385 59.898 3.20653e-14)
(-51.0654 66.4576 -3.60728e-14)
(-48.6796 71.6531 4.1442e-14)
(-46.2708 75.4077 -1.85405e-14)
(-44.7441 77.7488 1.92762e-14)
(-44.3809 78.6547 -3.75989e-14)
(-45.4743 78.4052 2.04229e-14)
(-48.8208 77.1894 -2.06207e-14)
(-53.9041 76.2997 0)
(-60.466 76.6216 0)
(-26.7736 33.76 0)
(-32.1366 34.3388 2.37853e-15)
(-33.6954 36.6687 -4.02288e-15)
(-36.3448 38.766 0)
(-39.1869 40.7108 0)
(-42.0272 42.5848 -8.71607e-15)
(-44.7507 44.4509 -5.80993e-15)
(-47.2177 46.4331 5.70576e-15)
(-49.1671 48.7045 0)
(-50.2473 51.3759 0)
(-50.4703 54.7021 -2.20013e-14)
(-50.1918 58.4889 0)
(-49.972 62.5068 -3.31023e-14)
(-50.0312 66.1974 -3.4286e-14)
(-50.8659 69.2675 6.66369e-14)
(-52.8807 71.9577 3.70822e-14)
(-55.9696 74.5302 0)
(-59.6431 77.0823 4.84912e-14)
(-63.0748 78.8818 5.86262e-14)
(-65.8715 76.6673 -5.91449e-14)
(5.75407 88.3722 -7.82129e-16)
(4.50989 90.3374 -3.68598e-17)
(3.12553 92.4693 8.13026e-16)
(1.85251 94.3488 -9.00598e-16)
(1.00623 95.5909 8.5128e-16)
(0.557907 96.1427 -8.90212e-16)
(0.273106 96.3796 7.94771e-16)
(0.0240253 96.8834 7.93022e-16)
(-0.254281 97.9296 -7.10489e-16)
(-0.552135 99.5012 -1.3828e-15)
(-0.828252 101.551 -2.67614e-15)
(-1.09716 104.07 1.23766e-15)
(-1.31656 107.021 0)
(-1.54451 110.397 0)
(-1.74662 114.197 -2.30405e-15)
(-1.75982 118.136 0)
(-2.57477 123.26 0)
(-0.488221 125.814 1.04531e-15)
(-7.87647 137.947 -1.0467e-15)
(12.5441 125.236 3.46228e-15)
(0.894761 89.8596 -1.69049e-15)
(-0.617272 91.8567 -9.78981e-16)
(-2.03825 93.7755 -6.33126e-17)
(-3.07984 95.1953 -1.82123e-15)
(-3.5436 95.9304 -3.79113e-15)
(-3.66901 96.1838 3.41717e-15)
(-3.75486 96.3866 1.04688e-16)
(-3.89776 96.963 -3.01769e-15)
(-4.12718 98.0508 -2.91948e-15)
(-4.41459 99.6176 -1.45437e-15)
(-4.71408 101.64 3.90275e-15)
(-5.03903 104.12 2.46483e-15)
(-5.33236 107.036 7.27423e-15)
(-5.67306 110.373 0)
(-5.98858 114.155 6.91177e-15)
(-6.16942 118.066 -4.58033e-15)
(-7.15073 123.151 8.58268e-15)
(-5.18662 125.739 4.17817e-15)
(-13.0927 137.487 -4.17169e-15)
(7.76354 125.85 -1.77647e-18)
(-4.66787 91.3495 -3.55041e-15)
(-6.24726 93.146 3.46184e-15)
(-7.44772 94.5927 9.65548e-15)
(-8.04401 95.4022 -1.80276e-15)
(-8.0515 95.6762 0)
(-7.8744 95.7839 -1.17005e-16)
(-7.79775 96.0688 3.28064e-15)
(-7.8616 96.7677 0)
(-8.05212 97.9189 2.94892e-15)
(-8.32551 99.4997 -5.70705e-15)
(-8.63945 101.516 5.16001e-15)
(-9.01237 103.976 -5.08618e-15)
(-9.37578 106.873 1.19984e-16)
(-9.82395 110.172 -4.6188e-15)
(-10.2441 113.94 -4.61253e-15)
(-10.5842 117.815 0)
(-11.7111 122.874 -4.35386e-15)
(-9.87498 125.506 0)
(-18.1424 136.807 -8.51425e-15)
(3.02688 126.256 0)
(-10.9077 92.6422 1.31005e-16)
(-12.1722 93.9072 -3.85347e-15)
(-12.8083 94.6463 -8.45675e-15)
(-12.7744 94.8479 0)
(-12.3376 94.8714 -8.37123e-15)
(-11.9466 95.0381 3.49055e-15)
(-11.7809 95.4949 3.42533e-15)
(-11.8042 96.3353 6.31743e-15)
(-11.9724 97.5574 -5.91022e-15)
(-12.2403 99.1648 5.73046e-15)
(-12.5732 101.188 2.75925e-16)
(-12.9932 103.636 -4.95193e-15)
(-13.425 106.525 0)
(-13.9766 109.789 9.4751e-15)
(-14.4998 113.556 -9.46769e-15)
(-14.9955 117.384 -2.36709e-16)
(-16.2622 122.426 -8.96412e-15)
(-14.5571 125.085 8.09664e-15)
(-23.196 135.942 9.09247e-15)
(-1.69341 126.486 3.09294e-16)
(-17.442 93.3 1.80254e-14)
(-17.9145 93.7251 -1.40747e-14)
(-17.7473 93.7333 4.37172e-15)
(-17.1066 93.5764 0)
(-16.3814 93.6379 0)
(-15.896 94.0157 -7.87277e-15)
(-15.7046 94.6833 1.366e-14)
(-15.7127 95.667 -1.29633e-14)
(-15.8689 96.9661 5.48269e-15)
(-16.1373 98.6145 1.092e-14)
(-16.4932 100.66 1.09248e-14)
(-16.9615 103.108 -1.01945e-14)
(-17.4641 105.998 9.55133e-15)
(-18.1163 109.227 -2.11175e-17)
(-18.7441 113 9.46925e-15)
(-19.391 116.77 2.53602e-16)
(-20.7939 121.807 -8.96288e-15)
(-19.2226 124.484 1.60129e-14)
(-28.1988 134.876 -1.68826e-14)
(-6.40914 126.537 -1.38998e-14)
(-23.3841 92.6331 6.10394e-15)
(-22.8651 92.2048 -4.86937e-15)
(-22.0215 91.8844 3.17521e-16)
(-21.0301 91.8039 0)
(-20.2151 92.133 0)
(-19.7272 92.7856 -1.60198e-14)
(-19.5492 93.662 1.36359e-14)
(-19.5561 94.7822 2.61461e-14)
(-19.7102 96.164 -1.76834e-14)
(-19.9896 97.8652 -1.15648e-14)
(-20.3784 99.9439 2.13564e-14)
(-20.9008 102.397 -4.08001e-14)
(-21.4805 105.295 9.29145e-15)
(-22.2308 108.489 9.21561e-15)
(-22.9687 112.276 9.47189e-15)
(-23.7604 115.973 -8.64988e-15)
(-25.2995 121.018 0)
(-23.8632 123.696 1.66334e-14)
(-33.1313 133.611 1.80289e-14)
(-11.1301 126.423 1.45466e-14)
(-27.9442 89.8625 -1.45517e-14)
(-26.8186 89.8304 0)
(-25.6904 89.7486 2.32534e-14)
(-24.6264 89.8714 -1.96178e-14)
(-23.8659 90.4732 0)
(-23.4288 91.3841 0)
(-23.2824 92.4458 -7.098e-15)
(-23.2992 93.6931 -2.60389e-14)
(-23.4655 95.1606 1.20739e-14)
(-23.771 96.9212 0)
(-24.206 99.0391 0)
(-24.7902 101.503 1.02286e-14)
(-25.4566 104.415 -9.83945e-15)
(-26.3037 107.573 -9.4986e-15)
(-27.1624 111.382 -1.89522e-14)
(-28.0904 114.992 1.72841e-14)
(-29.7732 120.061 5.46851e-16)
(-28.4695 122.724 4.83978e-16)
(-38.0021 132.154 -1.67302e-14)
(-15.8561 126.143 -1.39531e-14)
(-31.4303 87.8246 -1.23386e-14)
(-30.259 87.5004 -2.3375e-14)
(-29.0474 87.4865 -1.16546e-15)
(-27.9969 87.8715 2.8004e-14)
(-27.331 88.7204 0)
(-26.9715 89.8299 1.58133e-14)
(-26.8719 91.0487 -1.47032e-14)
(-26.915 92.4179 1.24157e-14)
(-27.1136 93.9741 1.1815e-14)
(-27.4632 95.798 -1.16558e-14)
(-27.9596 97.9583 1.04565e-14)
(-28.6146 100.436 0)
(-29.3787 103.365 -2.01936e-14)
(-30.322 106.484 3.79572e-14)
(-31.3163 110.319 -3.63857e-14)
(-32.3685 113.832 0)
(-34.2088 118.938 2.65435e-17)
(-33.0332 121.569 -1.61952e-14)
(-42.7855 130.505 3.40973e-14)
(-20.6056 125.694 -4.12244e-14)
(-34.6105 85.1257 -6.2847e-16)
(-33.3395 84.9512 3.07715e-14)
(-32.1008 85.1313 -1.87645e-14)
(-31.1266 85.787 -8.93233e-15)
(-30.5806 86.8749 1.67219e-14)
(-30.3144 88.1626 -3.12822e-14)
(-30.2821 89.5118 1.39126e-14)
(-30.3835 90.9965 0)
(-30.6406 92.6413 3.1185e-16)
(-31.0559 94.5278 -1.10958e-14)
(-31.6304 96.729 -2.20623e-14)
(-32.366 99.2189 1.99467e-14)
(-33.2405 102.162 -2.02059e-14)
(-34.2777 105.238 1.89899e-14)
(-35.4242 109.099 1.94785e-14)
(-36.5835 112.504 -1.72445e-14)
(-38.6026 117.641 5.27158e-14)
(-37.5515 120.231 -1.56598e-14)
(-47.474 128.678 -3.31077e-14)
(-25.3949 125.068 3.67091e-17)
(-37.1016 82.5655 -1.03533e-14)
(-35.8898 82.5349 3.98234e-14)
(-34.7572 82.8383 8.6092e-16)
(-33.9513 83.7162 -3.44746e-14)
(-33.576 84.9788 -1.68978e-14)
(-33.4359 86.4139 2.98771e-14)
(-33.496 87.8821 0)
(-33.6905 89.4666 1.34449e-14)
(-34.0356 91.1874 -2.41092e-14)
(-34.5392 93.1278 0)
(-35.2092 95.3626 -2.15241e-14)
(-36.0355 97.8598 2.04791e-14)
(-37.034 100.811 0)
(-38.1626 103.842 3.79285e-14)
(-39.4793 107.725 -1.84503e-14)
(-40.7256 111.016 0)
(-42.9503 116.185 -5.27289e-14)
(-42.0155 118.713 4.86763e-14)
(-52.0672 126.688 3.37618e-14)
(-30.218 124.245 5.58553e-14)
(-39.2854 80.1212 1.97088e-14)
(-38.2076 80.1375 9.93954e-15)
(-37.1673 80.5723 -1.73645e-14)
(-36.5323 81.6725 -1.7127e-14)
(-36.3325 83.0689 3.15843e-14)
(-36.3436 84.6242 -2.93078e-14)
(-36.5258 86.1905 1.39163e-14)
(-36.8448 87.8571 -2.66248e-14)
(-37.3003 89.6353 3.58671e-14)
(-37.9116 91.614 2.33884e-14)
(-38.6921 93.8712 -2.09752e-14)
(-39.6176 96.3684 5.19568e-16)
(-40.7521 99.3171 -1.91835e-14)
(-41.9674 102.301 -5.73637e-14)
(-43.4741 106.2 3.69655e-14)
(-44.7852 109.369 9.82964e-16)
(-47.2478 114.566 3.52923e-14)
(-46.412 116.999 0)
(-56.5865 124.556 -3.27935e-14)
(-35.0455 123.202 2.79092e-14)
(-40.9342 78.046 0)
(-40.0997 78.0274 0)
(-39.2276 78.4878 -1.7724e-14)
(-38.8425 79.7208 -7.07124e-16)
(-38.8512 81.2027 4.6786e-14)
(-39.0559 82.8552 -1.4354e-14)
(-39.3927 84.4942 1.44551e-14)
(-39.865 86.2127 -2.51865e-14)
(-40.448 88.0244 0)
(-41.1805 90.0198 2.27599e-14)
(-42.0834 92.2813 2.15212e-14)
(-43.1159 94.7657 0)
(-44.3958 97.6964 -2.02078e-14)
(-45.6913 100.631 3.73801e-14)
(-47.4082 104.526 3.74605e-14)
(-48.7544 107.553 -1.61731e-14)
(-51.4934 112.822 -6.87357e-14)
(-50.7245 115.104 0)
(-61.0249 122.296 0)
(-39.8515 121.931 -1.47491e-17)
(-42.0897 76.4821 -1.9752e-14)
(-41.7066 76.3382 0)
(-41.0061 76.6669 2.40395e-16)
(-40.9261 77.9304 1.71593e-14)
(-41.1645 79.4443 -3.06363e-14)
(-41.609 81.1457 0)
(-42.1243 82.8176 1.37473e-14)
(-42.7698 84.5493 0)
(-43.4944 86.3655 0)
(-44.3581 88.3549 -2.27055e-14)
(-45.3909 90.6014 0)
(-46.5347 93.0597 2.09794e-14)
(-47.9666 95.9553 -5.90524e-14)
(-49.3372 98.8399 3.78492e-14)
(-51.2852 102.699 -1.79736e-14)
(-52.6298 105.633 7.05156e-14)
(-55.6954 110.929 0)
(-54.9372 113.038 -3.20214e-14)
(-65.3741 119.932 0)
(-44.6203 120.43 5.58636e-14)
(-43.0965 75.5752 0)
(-43.232 75.1768 2.33237e-16)
(-42.6197 75.1755 4.59138e-16)
(-42.8911 76.3575 -4.95402e-14)
(-43.3627 77.8427 1.5264e-14)
(-44.0741 79.5262 -1.47086e-14)
(-44.772 81.1791 -1.37106e-14)
(-45.591 82.8796 2.63187e-14)
(-46.458 84.6687 -2.3539e-14)
(-47.4558 86.6273 -4.59092e-14)
(-48.6221 88.8382 2.09286e-14)
(-49.879 91.2563 2.04338e-14)
(-51.466 94.0983 1.96753e-14)
(-52.9087 96.9327 1.89071e-14)
(-55.1034 100.721 0)
(-56.4175 103.559 9.65691e-16)
(-59.8649 108.868 -6.88902e-14)
(-59.0405 110.816 -7.79255e-16)
(-69.6395 117.464 3.16583e-14)
(-49.3772 118.691 -5.57989e-14)
(-44.0196 75.4881 2.29826e-14)
(-44.8046 74.569 1.97662e-14)
(-44.1849 74.0773 1.78449e-14)
(-44.8399 75.0488 -1.74247e-14)
(-45.5324 76.4239 1.513e-14)
(-46.5121 78.0054 3.01491e-14)
(-47.3852 79.5854 -1.32013e-14)
(-48.3689 81.212 -5.22108e-14)
(-49.3708 82.9427 -1.12516e-15)
(-50.4956 84.8442 -1.10372e-15)
(-51.7908 86.9981 2.08957e-14)
(-53.1574 89.3618 -4.08236e-14)
(-54.8973 92.1307 0)
(-56.4089 94.9166 1.99053e-14)
(-58.8575 98.5946 -7.39417e-14)
(-60.1112 101.382 3.42003e-14)
(-64.0034 106.624 3.50066e-14)
(-63.0237 108.429 0)
(-73.8265 114.906 -3.24472e-14)
(-54.1839 116.662 0)
(-45.3448 76.3685 5.86028e-16)
(-46.7366 74.4427 4.73588e-16)
(-45.9172 73.3674 1.87337e-14)
(-46.9375 73.9643 -5.25822e-14)
(-47.7872 75.1489 4.75824e-14)
(-48.9872 76.5485 1.49262e-14)
(-50.0067 78.0089 -1.38306e-14)
(-51.13 79.527 2.51645e-14)
(-52.2505 81.1746 2.34804e-14)
(-53.4897 82.9991 -1.61401e-17)
(-54.9053 85.0783 0)
(-56.3755 87.3765 -5.19104e-16)
(-58.2625 90.0542 1.91566e-14)
(-59.8422 92.7942 3.88087e-14)
(-62.5414 96.3198 2.00665e-15)
(-63.713 99.1125 -6.93711e-14)
(-68.102 104.18 3.61328e-14)
(-66.8686 105.904 -6.26586e-14)
(-77.9867 112.23 3.24789e-14)
(-59.0015 114.29 0)
(-48.4718 77.2628 0)
(-49.7312 74.0806 -2.06831e-14)
(-48.2233 72.6658 -1.83077e-14)
(-49.4098 72.8637 0)
(-50.2775 73.874 4.81451e-14)
(-51.5805 75.0749 -4.37619e-14)
(-52.6821 76.4052 -5.55374e-14)
(-53.8978 77.7998 -5.36387e-16)
(-55.1111 79.3502 0)
(-56.4473 81.0847 -1.54946e-17)
(-57.9714 83.0756 2.13668e-14)
(-59.5375 85.3003 0)
(-61.5631 87.8701 4.03503e-14)
(-63.2119 90.568 -7.56669e-14)
(-66.1469 93.9018 3.60108e-14)
(-67.2318 96.7643 -1.61955e-17)
(-72.1513 101.507 -3.51495e-14)
(-70.5446 103.265 3.17497e-14)
(-82.1588 109.483 -3.39952e-14)
(-63.7184 111.576 5.37821e-14)
(-54.0376 76.8428 0)
(-53.3157 72.3347 0)
(-50.8643 71.4495 -3.67262e-14)
(-52.0568 71.4747 6.72188e-14)
(-52.8808 72.4629 -6.19968e-14)
(-54.2314 73.511 1.46204e-14)
(-55.387 74.7365 5.45575e-14)
(-56.6682 76.009 2.60448e-14)
(-57.9568 77.4592 -2.33265e-14)
(-59.3737 79.0977 2.24718e-14)
(-60.9925 80.9891 -4.32062e-14)
(-62.6467 83.1355 1.98799e-14)
(-64.7999 85.5818 4.03719e-14)
(-66.521 88.2422 3.98866e-14)
(-69.6677 91.3494 -3.60449e-14)
(-70.6885 94.3394 3.43102e-14)
(-76.1496 98.6041 7.04502e-14)
(-74.0456 100.576 -3.0778e-14)
(-86.459 106.669 0)
(-68.145 108.522 0)
(-59.3765 74.0452 0)
(-56.0004 68.8734 2.1433e-14)
(-53.2363 69.8124 -1.76531e-14)
(-54.6574 69.8121 -3.38785e-14)
(-55.4958 70.9153 1.43104e-14)
(-56.9097 71.825 2.84386e-14)
(-58.0871 72.9536 7.60337e-18)
(-59.4162 74.1081 0)
(-60.7561 75.4569 0)
(-62.2365 76.9999 4.54285e-14)
(-63.9385 78.7887 1.04464e-15)
(-65.6696 80.8539 -4.0291e-14)
(-67.9361 83.1618 0)
(-69.7377 85.7974 -7.59115e-14)
(-73.0635 88.6405 3.8073e-14)
(-74.0729 91.8194 -1.05101e-13)
(-80.0517 95.469 3.51525e-14)
(-77.382 97.9717 3.26287e-14)
(-90.9711 103.69 -6.64159e-14)
(-72.231 104.963 5.33024e-14)
(-58.0405 71.107 -9.45039e-16)
(-57.5982 65.9158 -1.97203e-14)
(-55.5363 68.0795 -1.71157e-14)
(-57.4918 67.9394 1.60159e-14)
(-58.3256 69.0783 3.04975e-14)
(-59.7658 69.767 -2.75994e-14)
(-60.8593 70.7989 -2.63827e-14)
(-62.1549 71.8594 2.52843e-14)
(-63.4808 73.1451 -2.26976e-14)
(-64.9839 74.6276 -2.23803e-14)
(-66.7416 76.3447 4.16123e-14)
(-68.5449 78.3583 4.90683e-16)
(-70.9012 80.5201 -3.94933e-14)
(-72.8023 83.171 3.6125e-14)
(-76.2403 85.687 0)
(-77.365 89.1815 3.47791e-14)
(-83.6978 91.9886 1.06649e-15)
(-80.6102 95.6269 -3.02687e-14)
(-95.6865 99.9991 0)
(-76.1292 100.646 -5.22382e-14)
(-56.3616 71.8081 2.05918e-14)
(-59.5322 64.5833 -9.37524e-18)
(-57.6229 66.5161 1.55442e-14)
(-60.1533 66.1155 -2.922e-14)
(-60.7532 67.311 -4.32183e-16)
(-62.204 68.0802 1.31323e-14)
(-63.1146 69.2358 3.79624e-16)
(-64.2876 70.4185 1.53591e-17)
(-65.4829 71.8017 -2.11124e-14)
(-66.9076 73.3578 -1.97964e-14)
(-68.603 75.0855 5.70741e-16)
(-70.3996 77.1264 -1.76149e-14)
(-72.7449 79.2118 0)
(-74.7128 81.9114 6.51283e-14)
(-78.124 84.1886 0)
(-79.4143 87.9746 -3.05165e-14)
(-85.6112 90.0541 2.9601e-14)
(-82.7075 94.862 2.70724e-14)
(-97.9732 97.3678 -4.30817e-16)
(-78.5608 99.3837 3.13694e-16)
(-56.4471 71.2427 0)
(-60.0335 64.4975 1.38154e-14)
(-57.9957 66.2047 0)
(-60.6145 65.8496 1.21363e-14)
(-61.163 66.9709 0)
(-62.61 67.7367 -2.15161e-14)
(-63.4949 68.8672 3.23097e-16)
(-64.6634 70.0515 -2.90812e-16)
(-65.8538 71.4324 1.78763e-14)
(-67.2795 72.9962 1.68257e-14)
(-68.9712 74.7258 -1.59986e-14)
(-70.7735 76.7771 2.98879e-14)
(-73.1096 78.8511 0)
(-75.1058 81.568 -2.81531e-14)
(-78.4878 83.799 4.41398e-16)
(-79.8466 87.6522 -5.36536e-18)
(-85.997 89.5716 -3.88263e-16)
(-83.1755 94.6507 -2.35573e-14)
(-98.3523 96.6879 -2.13754e-14)
(-79.0412 99.1106 -1.74731e-14)
(-56.724 70.4626 2.4818e-16)
(-60.5535 64.3771 -2.10405e-16)
(-58.4088 65.8125 0)
(-61.1021 65.5355 1.25442e-14)
(-61.5994 66.5835 1.10194e-14)
(-63.0388 67.3581 2.12418e-14)
(-63.8981 68.4744 6.35432e-16)
(-65.0589 69.6674 1.32776e-17)
(-66.2422 71.0509 -2.75117e-16)
(-67.6666 72.6257 -3.39328e-14)
(-69.352 74.3595 -1.72072e-17)
(-71.1586 76.4242 -2.99533e-14)
(-73.4827 78.4914 2.19771e-16)
(-75.5073 81.225 -4.51806e-16)
(-78.8426 83.4192 -2.70524e-14)
(-80.2916 87.3334 2.6538e-14)
(-86.3342 89.1037 4.12281e-16)
(-83.6664 94.4539 -3.51098e-16)
(-98.6845 96.0106 2.16949e-14)
(-79.5253 98.9068 3.51705e-14)
(-57.0966 69.6549 0)
(-61.0836 64.2113 0)
(-58.8694 65.3871 1.26867e-14)
(-61.6137 65.1922 -1.21715e-14)
(-62.0595 66.1724 -1.10314e-14)
(-63.4824 66.9619 -3.22325e-16)
(-64.3138 68.0682 -2.00756e-14)
(-65.4644 69.2725 -6.00321e-16)
(-66.6391 70.6603 2.7645e-16)
(-68.0608 72.2471 1.70579e-14)
(-69.7388 73.9863 3.2038e-14)
(-71.5487 76.0638 -1.59609e-17)
(-73.8586 78.1274 1.44445e-14)
(-75.9108 80.8765 0)
(-79.1994 83.0389 2.70141e-14)
(-80.7391 87.0085 4.03373e-16)
(-86.6623 88.649 2.54444e-14)
(-84.1645 94.2466 2.34112e-14)
(-99.0048 95.3531 3.55549e-16)
(-79.9817 98.7167 -1.76796e-14)
(-57.5004 68.8633 1.48457e-14)
(-61.614 64.0209 -9.64487e-18)
(-59.3595 64.9473 1.92977e-16)
(-62.1337 64.8352 -3.87727e-16)
(-62.5272 65.751 -1.10737e-14)
(-63.9267 66.5576 -1.08465e-14)
(-64.7308 67.6552 2.01064e-14)
(-65.8707 68.8709 2.94387e-16)
(-67.037 70.2632 1.81865e-14)
(-68.456 71.8615 0)
(-70.1264 73.6068 -1.6113e-14)
(-71.9401 75.6962 3.00451e-14)
(-74.2344 77.759 -1.44394e-14)
(-76.3144 80.5222 0)
(-79.5549 82.655 -4.41847e-16)
(-81.1878 86.6759 -2.62468e-14)
(-86.9817 88.1975 -2.54155e-14)
(-84.6697 94.0286 -2.30928e-14)
(-99.3132 94.7063 -3.32165e-16)
(-80.419 98.5332 2.78626e-16)
(-57.9156 68.0986 -2.99022e-14)
(-62.1426 63.8105 1.38674e-14)
(-59.8707 64.4956 -8.49069e-18)
(-62.6561 64.4662 1.86207e-16)
(-62.9976 65.3213 2.28845e-14)
(-64.3684 66.1468 1.05267e-14)
(-65.1468 67.2367 -1.98476e-14)
(-66.2761 68.4638 -2.951e-16)
(-67.4347 69.8608 -1.82286e-14)
(-68.8508 71.4701 -2.75695e-16)
(-70.5138 73.2219 2.47174e-16)
(-72.3318 75.3221 -1.51172e-14)
(-74.6098 77.3863 -1.42298e-14)
(-76.7176 80.1621 -2.15064e-16)
(-79.9126 82.2689 2.74832e-14)
(-81.6372 86.3356 2.6665e-14)
(-87.2934 87.7485 2.58023e-14)
(-85.1819 93.7996 -3.54397e-16)
(-99.6079 94.0699 -2.19613e-14)
(-80.8428 98.3564 2.65952e-16)
(-58.3392 67.3633 1.45867e-14)
(-62.67 63.5833 -1.39377e-14)
(-60.3989 64.0348 -2.53538e-14)
(-63.1778 64.0872 0)
(-63.4681 64.8851 3.73808e-18)
(-64.8058 65.7308 -3.41487e-16)
(-65.5608 66.8137 2.08144e-14)
(-66.6796 68.0522 3.09227e-16)
(-67.8311 69.4538 -2.79272e-16)
(-69.2443 71.0736 0)
(-70.9001 72.8322 0)
(-72.7231 74.9421 1.52274e-14)
(-74.9843 77.0097 1.44561e-14)
(-77.1202 79.7965 2.83193e-14)
(-80.2678 81.8815 -5.53933e-14)
(-82.0869 85.9874 4.05029e-16)
(-87.5975 87.3022 -2.53583e-14)
(-85.7009 93.5597 0)
(-99.8881 93.4418 9.10407e-18)
(-81.2562 98.1865 -1.80591e-14)
(-58.7714 66.6546 1.44772e-14)
(-63.1972 63.3415 1.44325e-14)
(-60.9407 63.5676 1.26788e-14)
(-63.6946 63.7007 1.22574e-14)
(-63.9361 64.4443 -2.33094e-14)
(-65.2377 65.3109 -1.02068e-14)
(-65.9719 66.3872 1.38726e-17)
(-67.0802 67.6369 -1.96848e-14)
(-68.2254 69.0433 0)
(-69.6357 70.6728 1.73638e-14)
(-71.2847 72.4385 -2.6183e-16)
(-73.1131 74.5569 -1.48184e-14)
(-75.3574 76.6294 -2.20477e-16)
(-77.5217 79.4254 2.89598e-17)
(-80.6204 81.4937 2.74672e-14)
(-82.5366 85.6311 0)
(-87.8944 86.8586 0)
(-86.2265 93.3087 -2.37371e-14)
(-100.154 92.8197 7.90151e-18)
(-81.6616 98.0233 -4.64196e-17)
(-59.211 65.9799 -2.92314e-14)
(-63.7245 63.0871 -1.42764e-14)
(-61.4925 63.0965 -1.2684e-14)
(-64.2028 63.3092 -1.22765e-14)
(-64.3996 64.0007 2.29489e-14)
(-65.6627 64.8884 0)
(-66.3789 65.9585 0)
(-67.477 67.2188 -8.43419e-18)
(-68.6168 68.6301 0)
(-70.0242 70.2687 -1.73957e-14)
(-71.6667 72.0416 -1.61518e-14)
(-73.5011 74.1673 -1.56218e-14)
(-75.7288 76.2458 -1.4721e-14)
(-77.9218 79.0491 -5.64935e-14)
(-80.9705 81.1056 0)
(-82.9861 85.2668 0)
(-88.1841 86.418 0)
(-86.7586 93.0464 2.37852e-14)
(-100.404 92.2025 4.29899e-14)
(-82.0607 97.8665 1.81804e-14)
(-59.6573 65.3379 1.45289e-14)
(-64.2511 62.8236 0)
(-62.0508 62.6236 1.2687e-14)
(-64.6991 62.915 3.90875e-16)
(-64.8565 63.5564 -1.18228e-14)
(-66.0796 64.4644 0)
(-66.781 65.5286 0)
(-67.8692 66.7991 1.94046e-14)
(-69.0043 68.2152 2.9411e-16)
(-70.4091 69.8621 -5.45041e-16)
(-72.0455 71.6423 1.66964e-14)
(-73.8864 73.774 1.54352e-14)
(-76.0981 75.8595 1.44831e-14)
(-78.3199 78.6679 2.7909e-14)
(-81.318 80.7175 -2.35108e-17)
(-83.435 84.894 4.06477e-16)
(-88.4667 85.9806 0)
(-87.2974 92.7725 0)
(-100.637 91.5892 -2.14466e-14)
(-82.4537 97.7178 0)
(-60.1118 64.7253 1.44815e-14)