/*--------------------------------*- C++ -*----------------------------------*\
  =========                 |
  \\      /  F ield         | OpenFOAM: The Open Source CFD Toolbox
   \\    /   O peration     | Website:  https://openfoam.org
    \\  /    A nd           | Version:  10
     \\/     M anipulation  |
\*---------------------------------------------------------------------------*/
FoamFile
{
    format      ascii;
    class       volVectorField;
    location    "400";
    object      Urel;
}
// * * * * * * * * * * * * * * * * * * * * * * * * * * * * * * * * * * * * * //

dimensions      [0 1 -1 0 0 0 0];

internalField   nonuniform List<vector> 
420
(
(0.388287 -0.609647 8.87019e-18)
(-0.436717 0.351245 -6.31382e-17)
(0.287449 0.831973 -2.41445e-16)
(0.644229 1.03433 6.29623e-17)
(0.867421 0.931411 -3.94628e-16)
(0.959175 0.520642 0)
(0.903779 -0.0997691 0)
(0.649401 -0.875494 3.23799e-16)
(0.325422 -1.6548 -3.85576e-16)
(0.0113338 -2.6038 0)
(0.458923 -0.831365 3.22852e-17)
(-0.314643 0.0665258 -1.61744e-16)
(0.138338 0.583476 7.66035e-16)
(0.444143 0.823903 -9.56053e-16)
(0.625804 0.786886 3.03958e-16)
(0.665856 0.474843 2.58227e-17)
(0.563834 -0.0108822 2.34695e-15)
(0.295063 -0.596414 -5.06434e-16)
(0.0230584 -1.27653 8.92212e-16)
(-0.162367 -2.25329 0)
(0.549692 -0.669243 1.76525e-16)
(-0.304676 -0.0468268 -7.78562e-16)
(-0.0481226 0.383905 7.49311e-16)
(0.152941 0.615424 1.13075e-15)
(0.265802 0.651122 -7.2727e-16)
(0.250194 0.480441 3.3824e-15)
(0.109525 0.164276 1.42227e-15)
(-0.145763 -0.265252 3.52008e-15)
(-0.324063 -0.91234 -1.48537e-15)
(-0.311081 -2.02984 -3.84067e-15)
(0.62552 -0.527199 -9.18681e-17)
(-0.303383 -0.0664601 6.50424e-16)
(-0.168858 0.282239 -1.0104e-15)
(-0.0752519 0.496456 7.88896e-16)
(-0.0451339 0.59872 -1.51208e-15)
(-0.133053 0.565361 1.57485e-15)
(-0.325465 0.412783 -9.34095e-15)
(-0.534274 0.0801695 0)
(-0.501277 -0.662632 -3.95139e-15)
(-0.19818 -1.97981 3.57883e-15)
(0.690436 -0.390566 0)
(-0.306957 -0.0450618 4.09394e-16)
(-0.23628 0.238611 -4.36222e-16)
(-0.20268 0.446928 0)
(-0.227377 0.619281 -2.71801e-16)
(-0.34123 0.730579 -3.08213e-16)
(-0.489762 0.746508 3.38146e-15)
(-0.522031 0.42268 -4.06233e-15)
(-0.311641 -0.474187 0)
(0.113 -1.98354 -1.42911e-14)
(0.740062 -0.2516 3.22057e-17)
(-0.311901 -0.0145028 0)
(-0.246364 0.215659 0)
(-0.218434 0.429078 1.53604e-15)
(-0.229514 0.668339 -2.31206e-15)
(-0.298118 0.903646 2.60052e-15)
(-0.339025 1.04642 7.13098e-16)
(-0.23496 0.711181 8.87948e-15)
(0.0529317 -0.279516 -1.16053e-14)
(0.541977 -1.86515 6.97957e-15)
(0.765145 -0.112738 0)
(-0.319205 -0.00402995 -4.28739e-16)
(-0.207985 0.181296 -2.41606e-15)
(-0.132439 0.388425 -8.85368e-16)
(-0.0814842 0.660916 -4.16147e-15)
(-0.0572372 0.980127 2.53658e-15)
(0.0378043 1.23351 -6.28794e-15)
(0.243219 1.03027 7.53228e-16)
(0.573226 0.130376 -3.87028e-15)
(1.0139 -1.47516 -1.09878e-14)
(0.740743 0.0202891 -5.69491e-17)
(-0.328271 -0.0311518 4.33998e-16)
(-0.140535 0.117571 3.10683e-15)
(-0.00392289 0.302435 5.12059e-16)
(0.115071 0.567016 2.33076e-15)
(0.240838 0.909164 0)
(0.436018 1.24646 5.77424e-15)
(0.740428 1.24471 7.15739e-15)
(1.11453 0.72656 1.01841e-14)
(1.43202 -0.700752 8.41048e-15)
(0.620144 0.147742 -5.22287e-17)
(-0.318357 -0.0539779 4.34308e-16)
(-0.0660721 0.0741045 -4.63456e-16)
(0.0827442 0.205449 -1.92529e-15)
(0.210268 0.39136 6.08147e-15)
(0.380302 0.66537 7.78561e-15)
(0.636859 0.985663 -2.5396e-15)
(0.956884 1.1513 0)
(1.30436 0.988545 0)
(1.53713 0.0972458 -8.18178e-15)
(0.335572 0.161637 9.77508e-17)
(-0.253545 -0.122915 8.5773e-16)
(-0.0618659 -0.0615169 0)
(0.036252 0.00305331 0)
(0.150585 0.0564355 -3.52308e-15)
(0.318316 0.104189 -1.45558e-17)
(0.541254 0.140373 5.80201e-15)
(0.774859 0.143793 -1.22144e-14)
(0.930565 0.0814209 1.43756e-14)
(0.929164 -0.447363 1.15806e-15)
(-0.222118 -3.86075 0)
(-0.307866 -5.55495 0)
(-0.224263 -7.67098 0)
(-0.106377 -10.1267 -1.00046e-15)
(-0.127117 -12.8868 0)
(-0.00809272 -16.0679 0)
(0.420099 -19.1774 1.24672e-15)
(-0.228066 -22.0121 0)
(-6.79031 -22.2275 0)
(19.2163 -31.2796 0)
(-0.193486 -3.66241 1.60883e-15)
(0.000559264 -5.5284 3.0362e-15)
(0.361085 -7.69881 2.60587e-16)
(0.723184 -10.1023 1.19852e-15)
(0.942977 -12.7867 1.69088e-16)
(1.35069 -15.9126 1.4982e-15)
(2.17784 -18.879 1.42057e-16)
(1.84442 -21.6756 1.34218e-17)
(-4.42103 -22.658 -3.81877e-15)
(22.0249 -31.0107 -3.78587e-15)
(-0.0388771 -3.63923 1.46015e-15)
(0.442671 -5.60142 0)
(1.03709 -7.74308 -2.44456e-15)
(1.61125 -10.0495 -2.15132e-15)
(2.05424 -12.6266 5.96083e-15)
(2.73522 -15.6724 -1.32398e-15)
(3.9172 -18.5126 2.10345e-15)
(3.7177 -21.3837 0)
(-2.08944 -23.1534 2.31852e-15)
(24.9411 -29.0016 3.83131e-16)
(0.302305 -3.72992 3.16891e-15)
(1.01149 -5.70803 8.2428e-15)
(1.79417 -7.76643 -8.85362e-15)
(2.53624 -9.96035 3.44988e-15)
(3.18154 -12.4293 -1.77796e-16)
(4.09094 -15.3866 0)
(5.56992 -18.1284 -2.09723e-15)
(5.48049 -21.0394 -2.7743e-15)
(0.121761 -23.5264 -2.29837e-15)
(27.3932 -26.5953 1.1685e-14)
(0.761228 -3.81621 2.70201e-15)
(1.65991 -5.76017 -2.56619e-15)
(2.59542 -7.72704 8.45198e-15)
(3.47509 -9.81154 -3.45015e-15)
(4.30707 -12.1728 2.7568e-15)
(5.41641 -15.0374 -4.20708e-15)
(7.15291 -17.6806 3.46911e-15)
(7.1675 -20.6137 2.49942e-15)
(2.29481 -23.7162 0)
(29.3487 -23.8236 -2.38993e-14)
(1.27936 -3.7872 3.20621e-15)
(2.36131 -5.71826 -1.44333e-14)
(3.42062 -7.60461 -4.27267e-15)
(4.41413 -9.58915 9.42196e-15)
(5.41477 -11.8436 7.62654e-15)
(6.69667 -14.6122 1.08028e-16)
(8.67234 -17.1518 -1.36846e-16)
(8.79263 -20.0852 -2.14161e-15)
(4.47271 -23.7009 -2.66194e-15)
(30.8543 -20.8468 1.87945e-14)
(1.80748 -3.59012 3.18124e-15)
(3.08396 -5.56259 4.84359e-15)
(4.24553 -7.38095 0)
(5.33175 -9.27917 -3.08013e-15)
(6.48429 -11.4298 -4.70035e-15)
(7.9165 -14.0985 -1.05656e-18)
(10.1185 -16.5265 -8.42007e-15)
(10.3666 -19.4424 -1.98356e-15)
(6.66419 -23.4653 3.4869e-15)
(31.8456 -17.8012 -8.02664e-15)
(2.28218 -3.22323 1.21264e-14)
(3.75566 -5.29107 -4.54655e-15)
(5.03189 -7.04771 0)
(6.19833 -8.88174 -1.14349e-16)
(7.49118 -10.9311 1.75246e-14)
(9.05919 -13.4999 -6.4899e-15)
(11.4737 -15.807 -4.27624e-15)
(11.8841 -18.6644 3.43136e-15)
(8.77101 -22.9871 -9.85761e-16)
(32.2554 -14.8587 0)
(2.71895 -2.84952 2.33174e-16)
(4.2445 -4.9792 -4.39616e-15)
(5.70931 -6.64648 0)
(6.98016 -8.42634 5.23369e-15)
(8.42079 -10.3789 -1.2556e-14)
(10.1253 -12.8434 6.1465e-15)
(12.7472 -15.0429 2.38324e-15)
(13.3704 -17.6821 0)
(10.6427 -22.1807 2.65519e-16)
(32.0812 -12.2776 9.75498e-15)
(3.39305 -2.7744 3.95406e-16)
(4.51777 -4.71523 -2.01234e-17)
(6.13727 -6.23638 0)
(7.5663 -7.94745 -1.04896e-14)
(9.17484 -9.80292 4.23298e-15)
(11.0185 -12.1255 -2.74413e-15)
(13.8733 -14.2452 1.74926e-15)
(14.8598 -16.5748 -1.19578e-15)
(12.1632 -20.8314 -6.00683e-16)
(31.7578 -10.4055 -9.19828e-15)
(3.99883 -2.47012 2.8779e-15)
(4.66327 -4.59909 -4.58602e-15)
(6.15821 -6.13289 0)
(7.67677 -7.82752 0)
(9.37894 -9.66629 0)
(11.3265 -11.932 -1.36079e-15)
(14.2735 -14.0031 5.16063e-15)
(15.4716 -16.3902 0)
(13.8635 -20.2107 0)
(31.4408 -7.70077 0)
(3.91125 -2.68644 -2.88574e-15)
(4.98098 -4.36826 -4.59827e-15)
(6.39995 -5.82032 0)
(8.01131 -7.43875 2.65656e-15)
(9.80762 -9.20791 -2.04902e-15)
(11.8099 -11.4479 1.36171e-15)
(14.9075 -13.3491 2.10289e-15)
(16.185 -15.7285 3.87047e-16)
(14.9635 -20.1445 2.19605e-16)
(32.0095 -5.49659 0)
(4.26421 -2.43239 1.1546e-16)
(5.5752 -3.8351 -4.65845e-17)
(7.04732 -5.13443 0)
(8.7614 -6.62816 -1.18554e-16)
(10.7334 -8.22778 3.93732e-15)
(12.8671 -10.3517 -3.19916e-15)
(16.1493 -12.1045 -6.197e-15)
(17.5808 -14.142 -1.49452e-15)
(15.8235 -20.0737 1.84187e-15)
(32.3724 -3.40413 1.0217e-14)
(4.12868 -2.57326 -1.15755e-14)
(5.71292 -3.5476 4.41027e-15)
(7.31028 -4.73917 0)
(9.14447 -6.10516 -5.65935e-15)
(11.2804 -7.55556 -4.24173e-15)
(13.5755 -9.46584 6.1139e-15)
(16.9688 -11.1516 2.28637e-15)
(18.6807 -12.8229 0)
(16.8995 -18.0715 -2.17789e-15)
(31.8181 -1.02432 -2.94181e-15)
(4.34276 -2.58508 -9.78531e-17)
(5.94179 -3.35729 4.30719e-15)
(7.5987 -4.36638 0)
(9.53732 -5.58832 1.13087e-14)
(11.8155 -6.89234 1.20158e-16)
(14.2582 -8.60488 1.83162e-16)
(17.7476 -10.1044 4.78419e-15)
(19.7772 -11.5321 -3.47214e-15)
(18.2933 -16.7346 -1.14396e-15)
(30.8618 1.03891 0)
(4.68469 -2.39295 -2.66997e-15)
(6.19726 -3.04271 9.1336e-15)
(7.86159 -3.91976 7.61168e-15)
(9.87457 -5.0169 -8.94718e-15)
(12.2775 -6.18253 -1.43225e-14)
(14.8754 -7.68758 6.35143e-17)
(18.4449 -8.99027 -2.74063e-15)
(20.7962 -10.1088 -2.20079e-15)
(19.6391 -15.2617 -3.63684e-15)
(29.7547 2.8414 -1.33527e-14)
(4.93546 -2.05782 -8.54156e-15)
(6.38806 -2.64727 4.76335e-15)
(8.0572 -3.43436 -3.75649e-15)
(10.1385 -4.42671 -9.77172e-15)
(12.6586 -5.47071 7.47617e-15)
(15.4126 -6.76725 -6.83507e-17)
(19.043 -7.88313 6.11929e-15)
(21.7266 -8.75644 1.70486e-15)
(20.8191 -13.7937 2.79332e-15)
(28.6426 4.43317 1.84681e-15)
(5.04494 -1.65939 2.57051e-15)
(6.46658 -2.21365 -2.46154e-15)
(8.15466 -2.93017 -2.29034e-16)
(10.3089 -3.82651 1.00892e-14)
(12.9419 -4.75475 -1.40659e-14)
(15.8424 -5.84773 4.38477e-15)
(19.5142 -6.77233 -3.73911e-15)
(22.4996 -7.49802 8.95041e-15)
(21.9049 -12.3166 0)
(27.4935 5.83004 -9.76188e-16)
(5.01646 -1.24833 2.78307e-15)
(6.41856 -1.77475 2.44701e-15)
(8.1387 -2.43203 4.50524e-15)
(10.3772 -3.23131 -7.24286e-15)
(13.1165 -4.03494 2.7051e-15)
(16.1539 -4.93979 0)
(19.8429 -5.67838 -2.22437e-15)
(23.0931 -6.35822 -6.83985e-15)
(22.849 -10.8252 -3.22226e-16)
(26.6017 6.98718 1.29994e-14)
(4.84753 -0.858302 1.25844e-15)
(6.23629 -1.36132 0)
(8.00748 -1.9512 2.3711e-15)
(10.3389 -2.63104 2.19872e-15)
(13.1523 -3.29026 6.89655e-17)
(16.3064 -4.0079 -1.39622e-15)
(19.9902 -4.66204 2.23122e-15)
(23.3482 -5.24604 0)
(23.3872 -9.88569 3.12141e-15)
(26.4441 7.90017 1.66614e-14)
(4.56368 -0.555219 1.40784e-15)
(5.95697 -1.02573 -2.75395e-15)
(7.79694 -1.49397 -2.55525e-16)
(10.2222 -1.99761 7.91814e-16)
(13.0747 -2.52063 -1.90279e-16)
(16.2558 -2.98449 1.22754e-15)
(19.9463 -3.68069 -2.81051e-15)
(23.3665 -4.16938 -2.77692e-16)
(22.8006 -10.339 4.63528e-15)
(24.133 10.534 -1.12588e-14)
(4.15919 -0.322392 2.04617e-29)
(5.7031 -0.61983 0)
(7.72674 -0.776516 0)
(10.1918 -0.922141 -1.01355e-15)
(13.0131 -1.20521 0)
(16.2539 -1.2861 0)
(19.6301 -1.42691 1.28062e-15)
(22.6016 -2.36385 0)
(21.6266 -10.6441 0)
(35.9707 16.6665 -5.74943e-29)
(1.19227 -1.09511 8.31577e-16)
(2.28395 -1.52354 -6.80757e-15)
(2.78415 -1.94744 6.39662e-15)
(3.29261 -1.86161 -9.05748e-15)
(3.64124 -1.55925 6.20295e-15)
(3.80172 -1.17125 -1.28006e-14)
(3.7954 -0.777439 3.00816e-15)
(3.64955 -0.40215 -3.09382e-15)
(3.38826 -0.0952673 0)
(2.97703 0.0560636 -3.39223e-16)
(-0.568179 -0.733691 1.36004e-14)
(0.345902 -1.1324 0)
(1.18789 -1.54594 6.90283e-15)
(1.8461 -1.44019 -2.96695e-15)
(2.30547 -1.1336 -1.00391e-14)
(2.54591 -0.729918 0)
(2.59607 -0.342193 -3.29386e-15)
(2.5139 0.0215463 -1.34614e-15)
(2.31373 0.332633 8.44029e-16)
(1.99923 0.450593 -3.47502e-16)
(-1.30585 -0.690569 -1.1298e-14)
(-1.01722 -1.11847 0)
(-0.292594 -1.28937 6.70818e-15)
(0.393644 -1.06154 4.71371e-16)
(0.932352 -0.699549 8.65647e-15)
(1.2654 -0.267847 -4.32604e-15)
(1.39131 0.0834301 0)
(1.39019 0.39827 3.64105e-15)
(1.29251 0.662721 -5.48622e-16)
(1.12023 0.768118 4.1088e-16)
(-1.10485 -0.593391 5.27423e-15)
(-1.6642 -1.04126 -2.24593e-15)
(-1.4197 -1.13681 5.06335e-15)
(-0.956977 -0.833107 -5.57715e-15)
(-0.468963 -0.394031 5.19221e-16)
(-0.0920382 0.0828952 3.93071e-15)
(0.129889 0.446852 -1.11492e-14)
(0.222421 0.721498 1.80819e-15)
(0.235119 0.910479 2.67385e-15)
(0.188862 1.00018 6.81476e-17)
(-0.681097 -0.451705 -8.14108e-15)
(-1.55395 -0.763892 6.6514e-15)
(-1.88238 -0.86075 0)
(-1.78202 -0.598275 2.10983e-15)
(-1.51812 -0.188291 2.28639e-15)
(-1.20844 0.240882 -2.47388e-16)
(-0.943091 0.599897 1.74317e-15)
(-0.751993 0.845755 3.65658e-15)
(-0.628015 0.991644 -2.35218e-17)
(-0.554712 1.05362 3.07615e-16)
(-0.318787 -0.309407 -3.35879e-15)
(-1.12869 -0.450198 5.66388e-15)
(-1.67782 -0.53932 1.99595e-15)
(-1.91311 -0.358917 -3.35269e-15)
(-1.89466 -0.0368172 -1.96412e-15)
(-1.78031 0.31667 -2.45071e-16)
(-1.59732 0.620479 -3.55349e-15)
(-1.4026 0.821169 1.0341e-15)
(-1.22553 0.926113 3.00891e-16)
(-1.07199 0.955198 -3.32809e-16)
(-0.0830015 -0.174312 0)
(-0.666376 -0.175449 -2.00918e-15)
(-1.16911 -0.231104 4.47604e-16)
(-1.57798 -0.122365 -8.14539e-16)
(-1.75428 0.0841841 1.37672e-15)
(-1.78448 0.324567 0)
(-1.71979 0.532974 8.28177e-16)
(-1.58673 0.668745 1.15031e-15)
(-1.41793 0.730751 -1.02093e-15)
(-1.23511 0.733443 -2.66102e-17)
(0.0472368 -0.0501167 0)
(-0.317253 0.0379186 -5.99467e-16)
(-0.657137 0.0247213 3.51405e-15)
(-1.02327 0.0801456 -2.52493e-15)
(-1.27006 0.174923 0)
(-1.39389 0.292265 -4.26678e-16)
(-1.41357 0.393792 -1.0141e-15)
(-1.34944 0.44222 8.19532e-16)
(-1.2287 0.447069 7.95771e-16)
(-1.05419 0.400282 -3.01762e-16)
(0.126184 0.0205106 -9.33877e-16)
(-0.0669322 0.157842 6.00678e-16)
(-0.282544 0.128451 5.68427e-16)
(-0.534357 0.107036 -5.32697e-16)
(-0.727572 0.101225 0)
(-0.84179 0.110873 4.82962e-16)
(-0.878014 0.121181 6.99452e-16)
(-0.84312 0.113732 -8.20708e-16)
(-0.750259 0.0767434 -1.64264e-16)
(-0.617646 -0.0822653 1.34371e-17)
(0.524719 0.416429 -2.7896e-16)
(0.751786 0.693204 1.20876e-16)
(0.757805 0.675403 1.0394e-16)
(0.700415 0.610837 0)
(0.623271 0.573997 -4.31535e-17)
(0.547391 0.564744 0)
(0.48474 0.567669 -1.79965e-16)
(0.439881 0.572361 2.23545e-16)
(0.410152 0.574834 3.81513e-17)
(0.322902 0.501787 -1.17905e-17)
)
;

boundaryField
{
    right
    {
        type            cyclic;
    }
    left
    {
        type            cyclic;
    }
    outerWall
    {
        type            noSlip;
    }
    stirrerWall
    {
        type            noSlip;
    }
    top
    {
        type            empty;
    }
    bottom
    {
        type            empty;
    }
}


// ************************************************************************* //
