/*--------------------------------*- C++ -*----------------------------------*\
  =========                 |
  \\      /  F ield         | OpenFOAM: The Open Source CFD Toolbox
   \\    /   O peration     | Website:  https://openfoam.org
    \\  /    A nd           | Version:  10
     \\/     M anipulation  |
\*---------------------------------------------------------------------------*/
FoamFile
{
    format      ascii;
    class       volVectorField;
    location    "400";
    object      Urel;
}
// * * * * * * * * * * * * * * * * * * * * * * * * * * * * * * * * * * * * * //

dimensions      [0 1 -1 0 0 0 0];

internalField   nonuniform List<vector> 
2000
(
(2.48703 -6.3815 -6.70935e-18)
(-0.246299 -3.8094 9.33898e-18)
(3.15978 -0.286692 -6.70633e-18)
(6.19758 4.08135 0)
(8.6604 7.67311 0)
(10.2811 9.64536 1.71285e-16)
(11.2832 10.2053 -2.26891e-16)
(11.8294 9.73794 -2.93457e-16)
(12.06 8.52036 3.73325e-16)
(12.0811 6.76317 4.69559e-16)
(11.9758 4.6408 5.86605e-16)
(11.7926 2.29451 0)
(11.5841 -0.143153 9.06334e-16)
(11.2928 -2.70287 1.02321e-15)
(10.6955 -5.51493 9.85774e-16)
(10.1454 -8.11323 9.64271e-16)
(9.81888 -9.96503 -9.53371e-16)
(9.47353 -11.8265 4.20584e-16)
(9.18807 -14.1578 4.02525e-16)
(8.63654 -16.2739 1.62963e-15)
(2.87572 -6.33722 9.09152e-18)
(-1.39553 -4.41671 1.26363e-17)
(2.25718 -2.03686 -1.03195e-16)
(5.41966 2.34627 -2.9497e-16)
(8.22545 6.32683 5.11705e-17)
(10.2348 8.76595 -7.10064e-16)
(11.546 9.71802 4.21981e-16)
(12.3276 9.55307 8.43654e-16)
(12.7314 8.5359 3.32059e-16)
(12.8624 6.90479 4.19304e-16)
(12.7744 4.86022 -1.05652e-15)
(12.526 2.54208 -6.44944e-16)
(12.2031 0.0609089 -8.61042e-16)
(11.7736 -2.56601 -9.61837e-16)
(11.1605 -5.26775 -2.86802e-15)
(10.5351 -7.65266 -1.05046e-15)
(10.0467 -9.62023 2.66833e-15)
(9.66447 -11.4552 -2.42826e-15)
(9.01968 -13.2818 0)
(8.04654 -14.908 -2.37012e-15)
(3.40147 -6.08821 -3.24671e-20)
(-1.44158 -4.78412 -7.52638e-17)
(0.577401 -3.71477 1.23885e-16)
(3.30629 -0.3298 3.21015e-16)
(6.29152 3.75968 5.01535e-16)
(8.91589 6.76424 1.52023e-16)
(10.7731 8.30043 4.35349e-16)
(11.9909 8.61807 -8.07372e-16)
(12.7086 8.00211 -7.03168e-16)
(13.0736 6.70068 -8.65344e-16)
(13.0731 4.91964 1.06056e-15)
(12.9125 2.81553 0)
(12.6474 0.522712 -3.07372e-15)
(12.2337 -1.95637 0)
(11.613 -4.48279 0)
(10.8982 -6.7664 0)
(10.1706 -8.70971 1.79656e-15)
(9.22913 -10.361 -3.03606e-15)
(8.0919 -11.8604 0)
(6.6293 -13.2076 1.63161e-15)
(4.0035 -5.77299 -5.5513e-17)
(-0.8942 -4.84083 2.97267e-16)
(0.0291682 -4.35749 0)
(2.04426 -2.10648 6.97161e-16)
(4.20891 1.40707 1.81712e-16)
(7.00023 4.58124 1.29141e-16)
(9.23444 6.61442 -5.88266e-17)
(10.8328 7.4574 1.44846e-15)
(11.8689 7.31615 0)
(12.4433 6.4171 6.64247e-16)
(12.6736 4.95789 9.06957e-16)
(12.6706 3.09706 2.33161e-15)
(12.4362 0.989461 3.00065e-15)
(11.9629 -1.36383 6.49201e-15)
(11.2712 -3.69238 -3.02901e-15)
(10.3602 -5.74981 -1.68306e-16)
(9.1558 -7.49943 6.13539e-15)
(7.69855 -8.9078 3.13038e-15)
(5.9486 -10.1079 3.25909e-15)
(4.21702 -11.2971 3.48386e-15)
(4.52557 -5.5228 0)
(-0.262041 -4.81456 -5.40381e-16)
(0.390763 -4.62739 -2.08464e-16)
(1.35637 -2.98367 -8.90317e-16)
(2.75107 -0.483352 -1.07615e-15)
(4.95062 2.35617 2.95024e-16)
(7.22313 4.63513 -8.90171e-16)
(8.99478 5.93053 -1.47564e-15)
(10.226 6.27283 -5.60462e-16)
(10.9735 5.81481 8.51102e-17)
(11.3259 4.73344 -1.74408e-15)
(11.3538 3.187 -2.39714e-15)
(11.108 1.32376 -2.77038e-15)
(10.5062 -0.806533 -3.13925e-15)
(9.60497 -2.80816 0)
(8.30757 -4.51051 9.41379e-17)
(6.50072 -5.91857 1.31722e-16)
(4.44832 -7.0385 -3.37468e-15)
(2.42675 -8.08391 -1.12141e-14)
(0.902116 -9.45033 3.67072e-15)
(4.91832 -5.35305 0)
(0.205866 -4.81712 2.85354e-16)
(1.04782 -4.77644 0)
(1.17145 -3.53872 5.26687e-16)
(2.21251 -1.59328 1.5603e-15)
(3.32358 0.570675 0)
(5.13481 2.68639 1.75624e-15)
(6.76465 4.23255 3.15963e-15)
(7.96103 4.98103 0)
(8.69536 4.96019 -1.29661e-15)
(8.99985 4.28786 4.06701e-15)
(8.90677 3.09189 3.62385e-16)
(8.44589 1.5165 3.34934e-15)
(7.51614 -0.272983 -2.94106e-15)
(6.17374 -1.8239 0)
(4.29518 -3.05007 -6.76698e-15)
(1.88528 -4.01062 -3.60877e-15)
(-0.41089 -4.95226 0)
(-2.01535 -6.21986 9.41777e-15)
(-2.49402 -8.29625 -2.0012e-14)
(5.21009 -5.22276 -1.97378e-16)
(0.525006 -4.88987 9.3437e-17)
(1.63151 -4.90251 -6.24486e-16)
(1.58329 -3.86934 -2.51914e-16)
(2.05242 -2.1799 9.96661e-17)
(2.66662 -0.552573 -1.16424e-15)
(3.43191 1.16795 2.14448e-15)
(4.57402 2.68783 -3.46254e-15)
(5.44296 3.69565 -4.30908e-15)
(5.90229 4.04711 3.08777e-15)
(5.912 3.77004 -2.34847e-15)
(5.42902 2.95375 -2.72636e-15)
(4.43923 1.71969 2.91842e-15)
(2.90227 0.373714 -7.029e-15)
(0.856142 -0.591867 0)
(-1.66348 -1.23334 1.70995e-14)
(-4.27647 -1.78308 -1.88959e-14)
(-5.77404 -3.18292 1.04555e-14)
(-5.79245 -5.94116 1.35414e-14)
(-4.58675 -9.65852 4.09032e-16)
(5.44111 -5.10945 -1.93468e-17)
(0.711053 -5.00555 -1.85806e-16)
(1.985 -5.05531 7.70632e-16)
(1.97579 -4.13758 -9.51633e-16)
(2.11847 -2.58149 -1.56269e-15)
(2.46361 -1.01463 0)
(2.55489 0.247426 -2.65748e-15)
(2.82504 1.59665 0)
(3.11777 2.7142 3.28039e-15)
(3.04567 3.34825 0)
(2.49535 3.44671 0)
(1.34272 3.07133 -4.74447e-16)
(-0.541838 2.33755 1.49055e-14)
(-3.09296 1.32867 9.98636e-15)
(-5.97701 0.986761 5.38338e-16)
(-8.62728 0.0670488 -1.20477e-14)
(-10.2874 -2.33823 0)
(-9.14538 -5.22629 0)
(-6.77308 -7.69204 1.55498e-14)
(-4.41582 -10.8652 2.80181e-14)
(5.61873 -4.97444 1.89232e-16)
(0.795381 -5.11688 -5.20983e-16)
(2.09091 -5.24442 3.24288e-16)
(2.15187 -4.44022 -6.14216e-16)
(2.25226 -2.923 -9.7285e-16)
(2.17563 -1.29811 1.07286e-15)
(2.09377 -0.0898357 1.86474e-15)
(1.69932 1.04832 -1.67499e-15)
(1.29061 2.26092 0)
(0.558389 3.13836 -5.21922e-15)
(-0.707952 3.62996 5.16647e-15)
(-2.66095 3.83928 -7.08895e-15)
(-5.42358 3.77758 0)
(-8.97863 2.47913 1.31086e-15)
(-12.0202 0.984878 8.56197e-16)
(-12.577 -0.141073 1.74761e-14)
(-11.4144 -2.24935 -3.00822e-14)
(-9.05987 -5.22391 1.28285e-14)
(-6.48626 -8.82726 -1.21812e-14)
(-3.99834 -12.4542 -1.14806e-14)
(5.73773 -4.78642 0)
(0.796113 -5.20126 -1.05461e-17)
(2.05453 -5.43258 -9.22525e-16)
(2.05709 -4.79228 -7.04125e-17)
(2.16954 -3.32167 0)
(1.97217 -1.53811 0)
(1.49151 -0.120457 -6.07639e-15)
(1.046 0.832978 2.20285e-15)
(0.00536208 2.3239 -1.14754e-14)
(-1.27044 3.50379 -1.1312e-15)
(-3.08094 4.31213 1.43711e-14)
(-5.55612 4.70197 -8.29572e-15)
(-8.74115 5.98115 5.33608e-16)
(-11.7403 6.88174 1.71647e-15)
(-13.4626 5.5739 -9.44439e-15)
(-13.6247 2.16854 0)
(-12.069 -3.00547 -1.13063e-14)
(-8.97873 -7.41734 4.52268e-14)
(-5.75291 -10.8421 -2.08617e-14)
(-2.91154 -14.0731 1.09518e-14)
(5.78004 -4.5301 9.17363e-17)
(0.707523 -5.24983 5.42417e-16)
(1.84498 -5.63423 9.16693e-16)
(1.73504 -5.21133 5.25648e-16)
(1.83744 -3.82292 8.52266e-16)
(1.61939 -1.85459 0)
(1.00906 -0.145232 1.74292e-15)
(0.5069 0.773213 2.84126e-15)
(-0.884758 2.63188 -8.13463e-15)
(-2.47093 4.12113 1.50478e-14)
(-4.93622 5.52215 1.00173e-14)
(-8.29187 7.53011 -7.95142e-15)
(-11.5318 9.0949 1.45286e-14)
(-14.0302 8.10219 7.86409e-15)
(-14.9071 5.69652 8.22489e-15)
(-13.4362 1.54617 1.00435e-15)
(-10.2227 -4.3278 -9.97739e-15)
(-6.63998 -8.92525 4.97325e-16)
(-3.851 -12.1559 -2.25125e-14)
(-1.30651 -15.2419 -1.15195e-14)
(5.75341 -4.17623 0)
(0.469696 -5.21588 -4.12309e-16)
(1.31858 -5.83633 3.88879e-16)
(1.12851 -5.67651 -7.92979e-16)
(1.23023 -4.49579 2.10519e-15)
(1.07599 -2.53314 -1.45038e-15)
(0.536798 -0.712001 0)
(-0.157167 0.187475 0)
(-1.7513 2.27607 7.91538e-15)
(-3.94159 4.97226 0)
(-6.84833 7.09893 1.06696e-15)
(-9.76757 9.01141 -1.33012e-14)
(-12.1143 10.4278 7.10197e-15)
(-13.6313 9.82661 -6.58479e-15)
(-13.5589 6.29076 0)
(-11.7943 1.35159 8.75013e-15)
(-7.95251 -5.35199 0)
(-4.73188 -9.69552 -1.10745e-14)
(-1.87427 -12.8054 -2.195e-14)
(0.7285 -15.8102 2.00164e-14)
(5.65208 -3.69412 -1.36134e-16)
(0.0773763 -5.05163 -6.918e-16)
(0.637217 -5.95546 0)
(0.331149 -6.12696 -1.36883e-15)
(0.283647 -5.07111 -8.71932e-16)
(-0.00251968 -2.99356 -1.40082e-15)
(-0.670277 -0.858194 0)
(-1.70611 0.57013 0)
(-3.20673 2.47981 8.40141e-15)
(-5.18675 5.84982 0)
(-7.77127 8.47292 7.48769e-15)
(-10.4381 10.7572 -5.79961e-15)
(-12.5619 11.9661 -5.60661e-15)
(-13.5484 10.8122 9.15027e-16)
(-12.74 7.59755 -2.19806e-14)
(-9.80463 1.79422 8.21832e-15)
(-5.04636 -5.46764 -1.31343e-14)
(-1.93249 -9.95265 0)
(1.01545 -12.9825 -1.14719e-14)
(3.50587 -15.8129 3.28232e-14)
(5.47892 -3.06105 -7.70952e-17)
(-0.432109 -4.72494 1.36227e-15)
(-0.147597 -6.02428 -4.07937e-16)
(-0.54548 -6.59653 1.31522e-15)
(-0.641501 -5.82708 1.90395e-15)
(-0.889941 -3.69387 -3.6198e-15)
(-1.53804 -1.13915 9.98028e-15)
(-2.56512 0.777869 -1.34436e-14)
(-4.20394 2.50615 -3.9984e-16)
(-6.09918 6.31047 -7.5712e-15)
(-8.34075 9.24843 1.92959e-14)
(-10.4978 11.7607 -1.29823e-14)
(-11.8822 13.0033 6.15799e-15)
(-11.9647 11.8786 0)
(-10.2361 8.17272 0)
(-6.50572 2.0006 0)
(-1.62411 -4.82306 1.78201e-14)
(1.08339 -9.29102 9.11562e-16)
(4.21465 -12.494 -1.24202e-14)
(6.55586 -15.1538 -1.13209e-14)
(5.23987 -2.27213 -8.13082e-17)
(-1.01215 -4.21168 -1.5406e-15)
(-0.990306 -5.91716 -6.18646e-16)
(-1.4939 -7.02098 5.87491e-16)
(-1.64919 -6.84816 1.14554e-15)
(-1.71938 -5.19047 -1.29986e-15)
(-1.95701 -2.70557 0)
(-2.66712 -0.405409 0)
(-4.33409 1.93479 0)
(-6.19168 6.16286 0)
(-8.09041 9.5778 -1.25561e-14)
(-9.62056 12.4806 1.95113e-14)
(-9.92838 14.0573 -6.3097e-15)
(-9.2314 13.2441 0)
(-6.62479 9.77634 0)
(-2.56025 3.73662 0)
(2.50246 -2.58608 4.07029e-14)
(5.28402 -7.81359 1.01185e-15)
(8.38064 -11.2539 7.00385e-16)
(10.1008 -13.6262 0)
(4.9261 -1.37766 0)
(-1.59527 -3.4967 3.28189e-15)
(-1.78055 -5.51488 -6.59364e-16)
(-2.45432 -7.0966 3.47544e-15)
(-2.84605 -7.71112 -3.81344e-15)
(-3.0596 -6.95896 0)
(-3.24212 -5.07282 0)
(-3.99294 -2.70201 1.38091e-14)
(-5.17602 0.535375 0)
(-6.34226 5.32371 0)
(-7.64811 9.25987 -1.37941e-14)
(-8.26407 12.505 2.19951e-14)
(-7.91603 14.4034 -7.37214e-15)
(-5.75095 14.1397 -3.90166e-14)
(-2.11109 11.5205 -1.78756e-15)
(2.33385 6.64795 -2.18214e-15)
(7.38399 1.24168 9.34431e-14)
(10.2219 -4.66469 3.23001e-14)
(12.5201 -8.54274 0)
(13.2908 -10.7365 -2.67563e-14)
(4.54008 -0.412213 0)
(-2.04898 -2.59524 -1.78732e-15)
(-2.28546 -4.56402 2.51771e-15)
(-3.15505 -6.51458 -2.07328e-15)
(-3.88904 -7.65145 2.90501e-15)
(-4.47944 -7.77566 0)
(-4.93426 -6.77018 0)
(-5.6896 -4.65397 -1.5787e-17)
(-6.08869 -1.2901 -7.64947e-15)
(-6.25426 3.41155 6.22751e-15)
(-6.66677 7.82166 1.48529e-14)
(-6.34733 11.6641 -1.68752e-14)
(-4.74391 14.0739 -3.80493e-14)
(-1.25534 14.3713 3.60535e-14)
(3.133 12.5545 1.89793e-14)
(7.46261 9.26381 -2.33078e-14)
(11.6629 5.01311 -8.59907e-16)
(14.3743 -0.450474 -2.23588e-14)
(15.2838 -4.73055 -2.26536e-14)
(14.2259 -7.12942 4.6374e-14)
(4.13568 0.519375 0)
(-2.21299 -1.68082 1.96128e-15)
(-2.13247 -3.1372 -2.80125e-15)
(-3.0938 -4.92875 2.57849e-15)
(-4.17306 -6.41966 9.12064e-16)
(-5.18998 -7.18099 0)
(-5.9868 -7.12188 0)
(-6.51154 -5.98281 -5.46341e-15)
(-6.49762 -3.57533 -1.46365e-15)
(-5.83926 0.383577 6.54017e-15)
(-5.25155 4.96042 0)
(-3.5975 9.22269 0)
(-0.680535 11.9394 1.76385e-14)
(3.5142 12.7715 -1.00947e-15)
(7.92923 12.0044 1.89555e-14)
(11.5972 9.86342 -1.92741e-14)
(14.5142 6.34863 0)
(15.9037 1.93601 0)
(15.0445 -1.88549 0)
(11.9717 -4.3861 0)
(3.43704 1.2234 3.33382e-16)
(-1.95251 -0.974789 -4.48219e-15)
(-1.15398 -1.543 4.632e-15)
(-1.82023 -2.71452 -5.28923e-15)
(-3.03804 -4.02969 -3.01009e-15)
(-4.43443 -5.08736 9.16619e-15)
(-5.71645 -5.6667 0)
(-6.48238 -5.55441 -9.72623e-15)
(-6.81128 -4.38164 -7.12358e-15)
(-5.92853 -1.83076 7.11919e-15)
(-4.61908 1.95426 3.20653e-14)
(-1.65565 6.08344 -3.60728e-14)
(2.72053 8.84844 4.1442e-14)
(7.1197 10.1725 -1.85405e-14)
(10.6368 10.0831 1.92762e-14)
(12.9904 8.55852 -3.75989e-14)
(13.8874 5.87845 2.04229e-14)
(12.5314 2.23207 -2.06207e-14)
(9.43854 -1.08813 0)
(4.8671 -3.19685 0)
(1.97146 1.1619 0)
(-1.31298 -0.613751 2.37853e-15)
(-0.793015 -0.638527 -4.02288e-15)
(-1.36363 -0.895855 0)
(-2.12685 -1.3058 0)
(-2.88813 -1.78666 -8.71607e-15)
(-3.53267 -2.27551 -5.80993e-15)
(-3.92063 -2.64823 5.70576e-15)
(-3.79093 -2.73186 0)
(-2.79197 -2.41541 0)
(-0.935899 -1.44426 -2.20013e-14)
(1.42182 -0.0125934 0)
(3.72084 1.65014 -3.31023e-14)
(5.7408 2.98565 -3.4286e-14)
(6.98539 3.70057 6.66369e-14)
(7.04976 4.03559 3.70822e-14)
(6.04013 4.2529 0)
(4.44591 4.44975 4.84912e-14)
(3.09355 3.89406 5.86262e-14)
(2.37618 -0.675688 -5.91449e-14)
(7.72472 -17.9122 -7.82129e-16)
(6.54111 -19.212 -3.68598e-17)
(5.2203 -20.5065 8.13026e-16)
(4.01398 -22.2227 -9.00598e-16)
(3.23768 -24.7539 8.5128e-16)
(2.86281 -28.1618 -8.90212e-16)
(2.65508 -32.0804 7.94771e-16)
(2.48689 -35.9373 7.93022e-16)
(2.29346 -39.4672 -7.10489e-16)
(2.08468 -42.6979 -1.3828e-15)
(1.90204 -45.688 -2.67614e-15)
(1.73122 -48.4569 1.23766e-15)
(1.61477 -51.0561 0)
(1.49484 -53.5043 0)
(1.4061 -55.8164 -2.30405e-15)
(1.51186 -58.2912 0)
(0.821756 -59.8973 0)
(3.03932 -64.407 1.04531e-15)
(-4.21144 -59.6861 -1.0467e-15)
(16.3534 -80.1753 3.46228e-15)
(6.804 -16.2783 -1.69049e-15)
(5.47357 -17.5418 -9.78981e-16)
(4.24317 -19.0447 -6.33126e-17)
(3.40156 -21.2156 -1.82123e-15)
(3.14768 -24.2487 -3.79113e-15)
(3.24251 -27.9497 3.41717e-15)
(3.38778 -31.8966 1.04688e-16)
(3.48742 -35.6749 -3.01769e-15)
(3.51252 -39.1571 -2.91948e-15)
(3.49222 -42.386 -1.45437e-15)
(3.47303 -45.396 3.90275e-15)
(3.44222 -48.1972 2.46483e-15)
(3.45758 -50.8235 7.27423e-15)
(3.44081 -53.3027 0)
(3.46523 -55.6246 6.91177e-15)
(3.64112 -58.1181 -4.58033e-15)
(3.03418 -59.7555 8.58268e-15)
(5.39114 -64.2202 4.17817e-15)
(-2.10265 -59.8752 -4.17169e-15)
(19.1862 -79.2793 -1.77647e-18)
(5.17183 -14.4961 -3.55041e-15)
(3.89483 -15.9513 3.46184e-15)
(3.0117 -17.9169 9.65548e-15)
(2.74842 -20.6883 -1.80276e-15)
(3.09039 -24.172 0)
(3.63423 -28.0079 -1.17005e-16)
(4.09573 -31.8613 3.28064e-15)
(4.43575 -35.5052 0)
(4.66905 -38.9114 2.94892e-15)
(4.84042 -42.1131 -5.70705e-15)
(4.99322 -45.1154 5.16001e-15)
(5.11009 -47.9228 -5.08618e-15)
(5.26069 -50.5527 1.19984e-16)
(5.35192 -53.0541 -4.6188e-15)
(5.49782 -55.3722 -4.61253e-15)
(5.7517 -57.8845 0)
(5.24821 -59.5293 -4.35386e-15)
(7.73847 -63.9312 0)
(0.157511 -60.012 -8.51425e-15)
(22.0472 -78.3091 0)
(2.84893 -12.7658 1.31005e-16)
(2.00718 -14.7389 -3.85347e-15)
(1.81473 -17.3981 -8.45675e-15)
(2.31423 -20.7625 0)
(3.23965 -24.4813 -8.37123e-15)
(4.14334 -28.2418 3.49055e-15)
(4.84707 -31.9063 3.42533e-15)
(5.38841 -35.3908 6.31743e-15)
(5.81276 -38.7072 -5.91022e-15)
(6.16665 -41.8626 5.73046e-15)
(6.48634 -44.8375 2.75925e-16)
(6.75109 -47.6345 -4.95193e-15)
(7.03789 -50.2497 0)
(7.24035 -52.7617 9.4751e-15)
(7.50859 -55.0569 -9.46769e-15)
(7.84336 -57.5892 -2.36709e-16)
(7.44811 -59.2228 -8.96412e-15)
(10.0678 -63.5687 8.09664e-15)
(2.38865 -60.0636 9.09247e-15)
(24.8984 -77.2344 3.09294e-16)
(0.212686 -11.5255 1.80254e-14)
(0.282747 -14.3206 -1.40747e-14)
(1.01929 -17.6918 4.37172e-15)
(2.25746 -21.3952 0)
(3.60967 -25.0552 0)
(4.75304 -28.583 -7.87277e-15)
(5.63504 -32.0138 1.366e-14)
(6.35149 -35.3311 -1.29633e-14)
(6.95575 -38.5455 5.48269e-15)
(7.48532 -41.6335 1.092e-14)
(7.96691 -44.5583 1.09248e-14)
(8.37744 -47.3269 -1.01945e-14)
(8.79706 -49.9105 9.55133e-15)
(9.11267 -52.4254 -2.11175e-17)
(9.50048 -54.6807 9.46925e-15)
(9.91933 -57.2367 2.53602e-16)
(9.63489 -58.8382 -8.96288e-15)
(12.3799 -63.1275 1.60129e-14)
(4.63539 -60.0465 -1.68826e-14)
(27.7176 -76.0568 -1.38998e-14)
(-1.85571 -11.4658 6.10394e-15)
(-0.675075 -15.0921 -4.86937e-15)
(0.862851 -18.7685 3.17521e-16)
(2.5828 -22.3708 0)
(4.1624 -25.7375 0)
(5.45269 -28.9633 -1.60198e-14)
(6.4727 -32.157 1.36359e-14)
(7.34939 -35.3079 2.61461e-14)
(8.12262 -38.4082 -1.76834e-14)
(8.81628 -41.4107 -1.15648e-14)
(9.44865 -44.268 2.13564e-14)
(9.99796 -46.9944 -4.08001e-14)
(10.5428 -49.5324 9.29145e-15)
(10.9726 -52.0433 9.21561e-15)
(11.4732 -54.2423 9.47189e-15)
(11.9811 -56.8275 -8.64988e-15)
(11.8059 -58.3749 0)
(14.6734 -62.615 1.66334e-14)
(6.90727 -59.9599 1.80289e-14)
(30.4847 -74.7667 1.45466e-14)
(-2.57158 -13.367 -1.45517e-14)
(-0.666258 -16.5703 0)
(1.28023 -19.98 2.32534e-14)
(3.20295 -23.3496 -1.96178e-14)
(4.86453 -26.4127 0)
(6.24731 -29.3477 0)
(7.386 -32.3221 -7.098e-15)
(8.41068 -35.3101 -2.60389e-14)
(9.33715 -38.2873 1.20739e-14)
(10.1785 -41.191 0)
(10.9471 -43.9678 0)
(11.6258 -46.6401 1.02286e-14)
(12.2848 -49.1187 -9.83945e-15)
(12.8285 -51.6176 -9.4986e-15)
(13.4295 -53.7449 -1.89522e-14)
(14.0332 -56.3639 1.72841e-14)
(13.9577 -57.8324 5.46851e-16)
(16.9482 -62.0296 4.83978e-16)
(9.18572 -59.7995 -1.67302e-14)
(33.1894 -73.365 -1.39531e-14)
(-2.24828 -14.3936 -1.23386e-14)
(-0.180248 -17.8579 -2.3375e-14)
(1.97252 -21.167 -1.16546e-15)
(4.01056 -24.2402 2.8004e-14)
(5.71287 -27.0202 0)
(7.15997 -29.7189 1.58133e-14)
(8.40092 -32.4965 -1.47032e-14)
(9.55554 -35.3211 1.24157e-14)
(10.6139 -38.1661 1.1815e-14)
(11.5833 -40.9607 -1.16558e-14)
(12.471 -43.6471 1.04565e-14)
(13.2686 -46.2554 0)
(14.0289 -48.6643 -2.01936e-14)
(14.6853 -51.1458 3.79572e-14)
(15.3697 -53.1889 -3.63857e-14)
(16.0791 -55.8447 0)
(16.0875 -57.2119 2.65435e-17)
(19.2031 -61.3742 -1.61952e-14)
(11.4867 -59.5661 3.40973e-14)
(35.8031 -71.8577 -4.12244e-14)
(-1.6592 -15.9408 -6.2847e-16)
(0.624418 -19.2199 3.07715e-14)
(2.92569 -22.2979 -1.87645e-14)
(5.01503 -25.0612 -8.93233e-15)
(6.73131 -27.5613 1.67219e-14)
(8.22554 -30.0388 -3.12822e-14)
(9.54668 -32.641 1.39126e-14)
(10.7976 -35.3028 0)
(11.9598 -38.0094 3.1185e-16)
(13.0338 -40.6893 -1.10958e-14)
(14.0223 -43.2801 -2.20623e-14)
(14.9269 -45.819 1.99467e-14)
(15.7736 -48.1535 -2.02059e-14)
(16.5427 -50.6147 1.89899e-14)
(17.2917 -52.566 1.94785e-14)
(18.1215 -55.2596 -1.72445e-14)
(18.1899 -56.5224 5.27158e-14)
(21.4316 -60.649 -1.56598e-14)
(13.8079 -59.2505 -3.31077e-14)
(38.2994 -70.256 3.67091e-17)
(-0.42627 -17.2104 -1.03533e-14)
(1.91253 -20.306 3.98234e-14)
(4.22788 -23.219 8.6092e-16)
(6.27489 -25.7163 -3.44746e-14)
(7.95265 -27.9959 -1.68978e-14)
(9.45965 -30.2778 2.98771e-14)
(10.8339 -32.7104 0)
(12.1446 -35.2194 1.34449e-14)
(13.3791 -37.7942 -2.41092e-14)
(14.5332 -40.3618 0)
(15.6028 -42.8577 -2.15241e-14)
(16.602 -45.325 2.04791e-14)
(17.5192 -47.584 0)
(18.401 -50.0199 3.79285e-14)
(19.194 -51.8737 -1.84503e-14)
(20.1616 -54.6032 0)
(20.2603 -55.753 -5.27289e-14)
(23.6331 -59.8552 4.86763e-14)
(16.14 -58.8381 3.37618e-14)
(40.6742 -68.5827 5.58553e-14)
(1.06355 -18.2271 1.97088e-14)
(3.38126 -21.2318 9.93954e-15)
(5.72276 -23.9672 -1.73645e-14)
(7.7232 -26.194 -1.7127e-14)
(9.35595 -28.2888 3.15843e-14)
(10.8486 -30.3974 -2.93078e-14)
(12.2444 -32.6759 1.39163e-14)
(13.5813 -35.044 -2.66248e-14)
(14.8636 -37.5 3.58671e-14)
(16.076 -39.9646 2.33884e-14)
(17.2093 -42.3703 -2.09752e-14)
(18.2921 -44.7664 5.19568e-16)
(19.2652 -46.9527 -1.91835e-14)
(20.2616 -49.3571 -5.73637e-14)
(21.0759 -51.1133 3.69655e-14)
(22.2004 -53.8789 9.82964e-16)
(22.2938 -54.9091 3.52923e-14)
(25.8119 -59.0116 0)
(18.4522 -58.3134 -3.27935e-14)
(42.9471 -66.8638 2.79092e-14)
(3.03295 -18.7396 0)
(5.2186 -21.731 0)
(7.50846 -24.3904 -1.7724e-14)
(9.38149 -26.4314 -7.07124e-16)
(10.9341 -28.3851 4.6786e-14)
(12.3679 -30.3381 -1.4354e-14)
(13.7507 -32.4827 1.44551e-14)
(15.0829 -34.7347 -2.51865e-14)
(16.3934 -37.0897 0)
(17.6481 -39.4669 2.27599e-14)
(18.8306 -41.7941 2.15212e-14)
(19.9865 -44.125 0)
(21.003 -46.2475 -2.02078e-14)
(22.1175 -48.6155 3.73801e-14)
(22.9296 -50.2861 3.74605e-14)
(24.2375 -53.0984 -1.61731e-14)
(24.2836 -53.9584 -6.87357e-14)
(27.9753 -58.1069 0)
(20.742 -57.6647 0)
(45.1341 -65.1122 -1.47491e-17)
(5.43541 -18.6078 -1.9752e-14)
(7.27879 -21.6723 0)
(9.51187 -24.4086 2.40395e-16)
(11.2001 -26.3616 1.71593e-14)
(12.6493 -28.223 -3.06363e-14)
(13.9759 -30.0638 0)
(15.3192 -32.109 1.37473e-14)
(16.6242 -34.2781 0)
(17.9463 -36.5554 0)
(19.2306 -38.8618 -2.27055e-14)
(20.4518 -41.1234 0)
(21.6734 -43.3959 2.09794e-14)
(22.7238 -45.4648 -5.90524e-14)
(23.9582 -47.79 3.78492e-14)
(24.7438 -49.3982 -1.79736e-14)
(26.2679 -52.2014 7.05156e-14)
(26.2127 -52.9262 0)
(30.1301 -57.1356 -3.20214e-14)
(23.0085 -56.8718 0)
(47.2413 -63.3326 5.58636e-14)
(7.92119 -17.6883 0)
(9.35335 -20.9512 2.33237e-16)
(11.6107 -23.9585 4.59138e-16)
(13.0657 -25.931 -4.95402e-14)
(14.4057 -27.7562 1.5264e-14)
(15.5956 -29.5466 -1.47086e-14)
(16.8928 -31.5393 -1.37106e-14)
(18.1675 -33.6645 2.63187e-14)
(19.4976 -35.8901 -2.3539e-14)
(20.8055 -38.1446 -4.59092e-14)
(22.0589 -40.3549 2.09286e-14)
(23.3411 -42.5766 2.04338e-14)
(24.4188 -44.6035 1.96753e-14)
(25.7724 -46.8786 1.89071e-14)
(26.5122 -48.4527 0)
(28.2774 -51.2415 9.65691e-16)
(28.0616 -51.8376 -6.88902e-14)
(32.2773 -56.0854 -7.79255e-16)
(25.2372 -55.9411 3.16583e-14)
(49.2341 -61.5376 -5.57989e-14)
(10.4207 -15.821 2.29826e-14)
(11.3084 -19.5443 1.97662e-14)
(13.6835 -22.9789 1.78449e-14)
(14.8707 -25.0957 -1.74247e-14)
(16.1113 -26.9614 1.513e-14)
(17.1603 -28.7808 3.01491e-14)
(18.4161 -30.7698 -1.32013e-14)
(19.6665 -32.8886 -5.22108e-14)
(21.009 -35.0882 -1.12516e-15)
(22.3446 -37.3114 -1.10372e-15)
(23.6312 -39.4858 2.08957e-14)
(24.9741 -41.6644 -4.08236e-14)
(26.0775 -43.6621 0)
(27.5496 -45.8783 1.99053e-14)
(28.2323 -47.4497 -7.39417e-14)
(30.2646 -50.1707 3.42003e-14)
(29.8206 -50.7098 3.50066e-14)
(34.4189 -54.9714 0)
(27.4136 -54.86 -3.24472e-14)
(51.0413 -59.785 0)
(12.4433 -12.8606 5.86028e-16)
(12.8271 -17.5266 4.73588e-16)
(15.5097 -21.4776 1.87337e-14)
(16.4448 -23.8984 -5.25822e-14)
(17.647 -25.8807 4.75824e-14)
(18.6004 -27.8044 1.49262e-14)
(19.8407 -29.8314 -1.38306e-14)
(21.0888 -31.9732 2.51645e-14)
(22.4568 -34.1662 2.34804e-14)
(23.8291 -36.3721 -1.61401e-17)
(25.1541 -38.5224 0)
(26.5599 -40.6627 -5.19104e-16)
(27.691 -42.6428 1.91566e-14)
(29.2784 -44.7908 3.88087e-14)
(29.9029 -46.3946 2.00665e-15)
(32.2192 -48.9848 -6.93711e-14)
(31.4904 -49.5661 3.61328e-14)
(36.5648 -53.7703 -6.26586e-14)
(29.4776 -53.6649 3.24789e-14)
(52.6928 -58.1333 0)
(12.5847 -9.76388 0)
(13.2012 -15.6184 -2.06831e-14)
(16.6777 -19.8377 -1.83077e-14)
(17.5571 -22.5828 0)
(18.8574 -24.661 4.81451e-14)
(19.8295 -26.7011 -4.37619e-14)
(21.1153 -28.772 -5.55374e-14)
(22.4051 -30.9467 -5.36387e-16)
(23.821 -33.1419 0)
(25.2439 -35.338 -1.54946e-17)
(26.6153 -37.4719 2.13668e-14)
(28.0877 -39.5759 0)
(29.2508 -41.5487 4.03503e-14)
(30.9481 -43.6178 -7.56669e-14)
(31.5246 -45.2864 3.60108e-14)
(34.1247 -47.6736 -1.61955e-17)
(33.0723 -48.4399 -3.51495e-14)
(38.7372 -52.4637 3.17497e-14)
(31.3817 -52.3117 -3.39952e-14)
(54.2911 -56.5853 5.37821e-14)
(10.2035 -7.86175 0)
(12.8991 -14.9708 0)
(17.4217 -18.5855 -3.67262e-14)
(18.4028 -21.4245 6.72188e-14)
(19.8597 -23.4422 -6.19968e-14)
(20.9027 -25.5484 1.46204e-14)
(22.2591 -27.6331 5.45575e-14)
(23.6139 -29.8344 2.60448e-14)
(25.0915 -32.0295 -2.33265e-14)
(26.5775 -34.2164 2.24718e-14)
(28.0051 -36.3395 -4.32062e-14)
(29.5478 -38.406 1.98799e-14)
(30.7495 -40.3808 4.03719e-14)
(32.549 -42.3598 3.98866e-14)
(33.0967 -44.1212 -3.60449e-14)
(35.953 -46.2405 3.43102e-14)
(34.5606 -47.3374 7.04502e-14)
(40.9342 -50.9919 -3.0778e-14)
(33.0015 -50.8035 0)
(56.0174 -55.1472 0)
(7.96106 -8.22095 0)
(13.4059 -15.9185 2.1433e-14)
(18.341 -17.6302 -1.76531e-14)
(19.1981 -20.4121 -3.38785e-14)
(20.7505 -22.228 1.43104e-14)
(21.8454 -24.3816 2.84386e-14)
(23.3009 -26.4676 7.60337e-18)
(24.7348 -28.6866 0)
(26.2944 -30.8779 0)
(27.8567 -33.05 4.54285e-14)
(29.3477 -35.1598 1.04464e-15)
(30.9674 -37.1859 -4.0291e-14)
(32.2173 -39.1713 0)
(34.1058 -41.0412 -7.59115e-14)
(34.6525 -42.9262 3.8073e-14)
(37.7069 -44.7091 -1.05101e-13)
(35.9926 -46.2664 3.51525e-14)
(43.1376 -49.2278 3.26287e-14)
(34.2449 -49.2436 -6.64159e-14)
(57.9134 -53.988 5.33024e-14)
(12.3011 -8.60765 -9.45039e-16)
(14.9043 -16.2461 -1.97203e-14)
(19.2339 -16.6506 -1.71157e-14)
(19.6581 -19.4858 1.60159e-14)
(21.3216 -21.1752 3.04975e-14)
(22.5022 -23.4545 -2.75994e-14)
(24.1588 -25.5372 -2.63827e-14)
(25.7493 -27.7453 2.52843e-14)
(27.4521 -29.8896 -2.26976e-14)
(29.1272 -32.0066 -2.23803e-14)
(30.705 -34.0669 4.16123e-14)
(32.4017 -36.0173 4.90683e-16)
(33.7186 -38.0153 -3.94933e-14)
(35.672 -39.7298 3.6125e-14)
(36.279 -41.7948 0)
(39.3992 -43.1078 3.47791e-14)
(37.5211 -45.3456 1.06649e-15)
(45.2833 -47.0015 -3.02687e-14)
(35.1127 -48.1851 0)
(59.818 -53.3683 -5.22382e-14)
(15.6233 -6.43834 2.05918e-14)
(14.6644 -16.0657 -9.37524e-18)
(18.8948 -16.6543 1.55442e-14)
(18.8001 -19.7007 -2.922e-14)
(20.7563 -21.2818 -4.32183e-16)
(21.9878 -23.4264 1.31323e-14)
(23.8921 -25.3286 3.79624e-16)
(25.6731 -27.3548 1.53591e-17)
(27.5777 -29.3389 -2.11124e-14)
(29.4061 -31.3166 -1.97964e-14)
(31.1245 -33.2973 5.70741e-16)
(32.9104 -35.1479 -1.76149e-14)
(34.3246 -37.1464 0)
(36.3019 -38.7324 6.51283e-14)
(37.0309 -40.9527 0)
(40.0853 -41.8863 -3.05165e-14)
(38.4478 -44.7596 2.9601e-14)
(46.1362 -45.1492 2.70724e-14)
(35.8915 -48.0977 -4.30817e-16)
(60.5731 -51.8055 3.13694e-16)
(15.8678 -6.67465 0)
(14.5041 -15.8132 1.38154e-14)
(18.8743 -16.6177 0)
(18.7032 -19.6086 1.21363e-14)
(20.7234 -21.2533 0)
(21.9719 -23.3902 -2.15161e-14)
(23.9157 -25.3058 3.23097e-16)
(25.7158 -27.3181 -2.90812e-16)
(27.6406 -29.2917 1.78763e-14)
(29.4839 -31.2482 1.68257e-14)
(31.2229 -33.2127 -1.59986e-14)
(33.0207 -35.0382 2.98879e-14)
(34.4626 -37.0325 0)
(36.4311 -38.5849 -2.81531e-14)
(37.2097 -40.8341 4.41398e-16)
(40.217 -41.6825 -5.36536e-18)
(38.6485 -44.697 -3.88263e-16)
(46.2782 -44.7955 -2.35573e-14)
(36.1472 -48.1918 -2.13754e-14)
(60.7534 -51.4711 -1.74731e-14)
(15.9208 -7.12556 2.4818e-16)
(14.3248 -15.5952 -2.10405e-16)
(18.8132 -16.6617 0)
(18.5796 -19.5643 1.25442e-14)
(20.6634 -21.2716 1.10194e-14)
(21.9326 -23.3884 2.12418e-14)
(23.9159 -25.3064 6.35432e-16)
(25.738 -27.2976 1.32776e-17)
(27.685 -29.2557 -2.75117e-16)
(29.5456 -31.1875 -3.39328e-14)
(31.3075 -33.1336 -1.72072e-17)
(33.1185 -34.9306 -2.99533e-14)
(34.5908 -36.9159 2.19771e-16)
(36.5502 -38.4351 -4.51806e-16)
(37.3956 -40.7038 -2.70524e-14)
(40.334 -41.473 2.6538e-14)
(38.8955 -44.6175 4.12281e-16)
(46.3949 -44.4249 -3.51098e-16)
(36.4471 -48.2806 2.16949e-14)
(60.9272 -51.0643 3.51705e-14)
(15.8781 -7.60404 0)
(14.1353 -15.4224 0)
(18.7045 -16.7387 1.26867e-14)
(18.4316 -19.5489 -1.21715e-14)
(20.5793 -21.3131 -1.10314e-14)
(21.878 -23.4037 -3.22325e-16)
(23.9028 -25.3197 -2.00756e-14)
(25.7494 -27.2872 -6.00321e-16)
(27.7201 -29.2277 2.7645e-16)
(29.5991 -31.1338 1.70579e-14)
(31.385 -33.0601 3.2038e-14)
(33.21 -34.8291 -1.59609e-17)
(34.7147 -36.8021 1.44445e-14)
(36.6655 -38.289 0)
(37.5777 -40.572 2.70141e-14)
(40.4464 -41.2674 4.03373e-16)
(39.1495 -44.5223 2.54444e-14)
(46.502 -44.062 2.34112e-14)
(36.7564 -48.3468 3.55549e-16)
(61.1257 -50.6406 -1.76796e-14)
(15.8042 -8.06631 1.48457e-14)
(13.9453 -15.274 -9.64487e-18)
(18.566 -16.8298 1.92977e-16)
(18.2749 -19.5467 -3.87727e-16)
(20.4872 -21.3645 -1.10737e-14)
(21.8222 -23.4265 -1.08465e-14)
(23.8878 -25.3392 2.01064e-14)
(25.7592 -27.2825 2.94387e-16)
(27.7532 -29.2054 1.81865e-14)
(29.6505 -31.086 0)
(31.4604 -32.9916 -1.6113e-14)
(33.2988 -34.7334 3.00451e-14)
(34.8371 -36.6911 -1.44394e-14)
(36.7791 -38.147 0)
(37.7594 -40.4418 -4.41847e-16)
(40.5556 -41.0673 -2.62468e-14)
(39.4099 -44.4216 -2.54155e-14)
(46.5996 -43.7074 -2.30928e-14)
(37.0748 -48.3994 -3.32165e-16)
(61.3406 -50.2074 2.78626e-16)
(15.7187 -8.50172 -2.99022e-14)
(13.757 -15.1456 1.38674e-14)
(18.4062 -16.9326 -8.49069e-18)
(18.1154 -19.5563 1.86207e-16)
(20.3919 -21.4237 2.28845e-14)
(21.7684 -23.4551 1.05267e-14)
(23.873 -25.3634 -1.98476e-14)
(25.7691 -27.2825 -2.951e-16)
(27.7856 -29.1873 -1.82286e-14)
(29.7013 -31.0428 -2.75695e-16)
(31.5348 -32.9271 2.47174e-16)
(33.3859 -34.6427 -1.51172e-14)
(34.9584 -36.5827 -1.42298e-14)
(36.8914 -38.0089 -2.15064e-16)
(37.9368 -40.3118 2.74832e-14)
(40.6621 -40.8727 2.6665e-14)
(39.6757 -44.316 2.58023e-14)
(46.6877 -43.3611 -3.54397e-16)
(37.4043 -48.4387 -2.19613e-14)
(61.5661 -49.7644 2.65952e-16)
(15.6249 -8.90769 1.45867e-14)
(13.5698 -15.0338 -1.39377e-14)
(18.229 -17.0442 -2.53538e-14)
(17.9563 -19.5754 0)
(20.2961 -21.4889 3.73808e-18)
(21.7182 -23.4884 -3.41487e-16)
(23.8595 -25.3914 2.08144e-14)
(25.7802 -27.2863 3.09227e-16)
(27.8183 -29.1728 -2.79272e-16)
(29.7523 -31.0037 0)
(31.609 -32.8662 0)
(33.4721 -34.5564 1.52274e-14)
(35.0792 -36.4766 1.44561e-14)
(37.0026 -37.8746 2.83193e-14)
(38.1149 -40.1813 -5.53933e-14)
(40.7662 -40.684 4.05029e-16)
(39.9469 -44.2054 -2.53583e-14)
(46.7666 -43.0232 0)
(37.7457 -48.4671 9.10407e-18)
(61.7991 -49.3116 -1.80591e-14)
(15.5224 -9.28695 1.44772e-14)
(13.3826 -14.9364 1.44325e-14)
(18.0382 -17.162 1.26788e-14)
(17.8017 -19.6018 1.22574e-14)
(20.2022 -21.5582 -2.33094e-14)
(21.6731 -23.525 -1.02068e-14)
(23.8484 -25.4221 1.38726e-17)
(25.7933 -27.2928 -1.96848e-14)
(27.8522 -29.1609 0)
(29.8042 -30.9677 1.73638e-14)
(31.6838 -32.808 -2.6183e-16)
(33.5582 -34.4739 -1.48184e-14)
(35.1997 -36.3726 -2.20477e-16)
(37.1132 -37.744 2.89598e-17)
(38.2938 -40.0491 2.74672e-14)
(40.8682 -40.5011 0)
(40.223 -44.0898 0)
(46.8364 -42.6939 -2.37371e-14)
(38.0991 -48.4867 7.90151e-18)
(62.0372 -48.849 -4.64196e-17)
(15.4124 -9.63215 -2.92314e-14)
(13.1952 -14.8514 -1.42764e-14)
(17.837 -17.2834 -1.2684e-14)
(17.6555 -19.6328 -1.22765e-14)
(20.1125 -21.6299 2.29489e-14)
(21.6343 -23.5637 0)
(23.8406 -25.4544 0)
(25.8093 -27.3013 -8.43419e-18)
(27.888 -29.1507 0)
(29.858 -30.9339 -1.73957e-14)
(31.7599 -32.7518 -1.61518e-14)
(33.6449 -34.3944 -1.56218e-14)
(35.3204 -36.2703 -1.4721e-14)
(37.2235 -37.6169 -5.64935e-14)
(38.4732 -39.9153 0)
(40.9684 -40.3242 0)
(40.5041 -43.9688 0)
(46.8972 -42.3732 2.37852e-14)
(38.4651 -48.4986 4.29899e-14)
(62.2787 -48.377 1.81804e-14)
(15.2957 -9.94466 1.45289e-14)
(13.0083 -14.7755 0)
(17.6291 -17.4064 1.2687e-14)
(17.5207 -19.6661 3.90875e-16)
(20.0288 -21.7018 -1.18228e-14)
(21.6029 -23.6032 0)
(23.837 -25.4872 0)
(25.8292 -27.3106 1.94046e-14)
(27.9267 -29.1412 2.9411e-16)
(29.9143 -30.9015 -5.45041e-16)
(31.8379 -32.6968 1.66964e-14)
(33.7329 -34.3172 1.54352e-14)
(35.4416 -36.1692 1.44831e-14)
(37.334 -37.493 2.7909e-14)
(38.6534 -39.7796 -2.35108e-17)