/*--------------------------------*- C++ -*----------------------------------*\
  =========                 |
  \\      /  F ield         | OpenFOAM: The Open Source CFD Toolbox
   \\    /   O peration     | Website:  https://openfoam.org
    \\  /    A nd           | Version:  10
     \\/     M anipulation  |
\*---------------------------------------------------------------------------*/
FoamFile
{
    format      ascii;
    class       volScalarField;
    location    "1300";
    object      k;
}
// * * * * * * * * * * * * * * * * * * * * * * * * * * * * * * * * * * * * * //

dimensions      [0 2 -2 0 0 0 0];

internalField   nonuniform List<scalar> 
420
(
2.22045e-16
2.22045e-16
2.22045e-16
2.22045e-16
2.22045e-16
2.22045e-16
2.22045e-16
2.22045e-16
2.22045e-16
2.22045e-16
2.22045e-16
2.22045e-16
2.22045e-16
2.22045e-16
2.22045e-16
2.22045e-16
2.22045e-16
2.22045e-16
2.22045e-16
2.22045e-16
2.22045e-16
2.22045e-16
2.22045e-16
2.22045e-16
2.22045e-16
2.22045e-16
2.22045e-16
2.22045e-16
2.22045e-16
2.22045e-16
2.22045e-16
2.22045e-16
2.22045e-16
2.22045e-16
2.22045e-16
2.22045e-16
2.22045e-16
2.22045e-16
2.22045e-16
2.22045e-16
2.22045e-16
2.22045e-16
2.22045e-16
2.22045e-16
2.22045e-16
2.22045e-16
2.22045e-16
2.22045e-16
2.22045e-16
2.22045e-16
2.22045e-16
2.22045e-16
2.22045e-16
2.22045e-16
2.22045e-16
2.22045e-16
2.22045e-16
2.22045e-16
2.22045e-16
2.22045e-16
2.22045e-16
2.22045e-16
2.22045e-16
2.22045e-16
2.22045e-16
2.22045e-16
2.22045e-16
2.22045e-16
2.22045e-16
2.22045e-16
2.22045e-16
2.22045e-16
2.22045e-16
2.22045e-16
2.22045e-16
2.22045e-16
2.22045e-16
2.22045e-16
2.22045e-16
2.22045e-16
2.22045e-16
2.22045e-16
2.22045e-16
2.22045e-16
2.22045e-16
2.22045e-16
2.22045e-16
2.22045e-16
2.22045e-16
2.22045e-16
2.22045e-16
2.22045e-16
2.22045e-16
2.22045e-16
2.22045e-16
2.22045e-16
2.22045e-16
2.22045e-16
2.22045e-16
2.22045e-16
2.22045e-16
2.22045e-16
2.41597e-16
2.95055e-16
3.29747e-16
3.25523e-16
3.14198e-16
2.28491e-16
2.88534e-16
3.48867e-16
2.22045e-16
2.22045e-16
2.41417e-16
2.95958e-16
3.2803e-16
3.24255e-16
3.13468e-16
2.26789e-16
2.91518e-16
3.48882e-16
2.22045e-16
2.22045e-16
2.35732e-16
2.90037e-16
3.19336e-16
3.18284e-16
3.11566e-16
2.2646e-16
2.91977e-16
3.54146e-16
2.22045e-16
2.22045e-16
2.26266e-16
2.80645e-16
3.08592e-16
3.11646e-16
3.09664e-16
2.28174e-16
2.91839e-16
3.62853e-16
2.22045e-16
2.22045e-16
2.22045e-16
2.69693e-16
2.97181e-16
3.04978e-16
3.0868e-16
2.3069e-16
2.90981e-16
3.72115e-16
2.22045e-16
2.22045e-16
2.22045e-16
2.61638e-16
2.87692e-16
2.9842e-16
3.08401e-16
2.33628e-16
2.89799e-16
3.83416e-16
2.22045e-16
2.22045e-16
2.22045e-16
2.56772e-16
2.81623e-16
2.92285e-16
3.08594e-16
2.36774e-16
2.87933e-16
3.97921e-16
2.22045e-16
2.22045e-16
2.22045e-16
2.53646e-16
2.77276e-16
2.87705e-16
3.09031e-16
2.40071e-16
2.85511e-16
4.13261e-16
2.22045e-16
2.22045e-16
2.22045e-16
2.51968e-16
2.73969e-16
2.84532e-16
3.09267e-16
2.43447e-16
2.82718e-16
4.29532e-16
2.22045e-16
2.22045e-16
2.22045e-16
2.50931e-16
2.7086e-16
2.81756e-16
3.09062e-16
2.46797e-16
2.79599e-16
4.46322e-16
2.22045e-16
2.22045e-16
2.25515e-16
2.4751e-16
2.67185e-16
2.78931e-16
3.08419e-16
2.5027e-16
2.74711e-16
4.58647e-16
2.22045e-16
2.22045e-16
2.27322e-16
2.43193e-16
2.65299e-16
2.77455e-16
3.09028e-16
2.52304e-16
2.73245e-16
4.55773e-16
2.22045e-16
2.22045e-16
2.28742e-16
2.41296e-16
2.656e-16
2.77586e-16
3.09289e-16
2.53442e-16
2.7352e-16
4.52675e-16
2.22045e-16
2.25463e-16
2.30427e-16
2.40605e-16
2.67331e-16
2.78768e-16
3.07581e-16
2.53982e-16
2.70577e-16
4.61567e-16
2.26347e-16
2.25732e-16
2.26962e-16
2.39564e-16
2.69379e-16
2.80432e-16
3.05854e-16
2.53874e-16
2.66532e-16
4.66788e-16
2.24021e-16
2.22045e-16
2.24675e-16
2.4043e-16
2.73219e-16
2.83192e-16
3.04757e-16
2.52552e-16
2.62988e-16
4.69062e-16
2.22045e-16
2.22045e-16
2.24297e-16
2.4401e-16
2.79186e-16
2.8776e-16
3.04351e-16
2.50727e-16
2.60252e-16
4.69115e-16
2.22045e-16
2.22045e-16
2.25464e-16
2.49891e-16
2.87291e-16
2.94073e-16
3.04841e-16
2.48482e-16
2.58546e-16
4.67722e-16
2.22045e-16
2.22045e-16
2.27966e-16
2.57491e-16
2.96702e-16
3.01582e-16
3.06237e-16
2.4584e-16
2.5766e-16
4.6653e-16
2.22045e-16
2.22045e-16
2.31015e-16
2.65191e-16
3.05265e-16
3.08314e-16
3.08044e-16
2.42725e-16
2.55379e-16
4.71055e-16
2.23404e-16
2.22045e-16
2.32889e-16
2.70511e-16
3.10185e-16
3.1161e-16
3.09089e-16
2.389e-16
2.5305e-16
4.97879e-16
2.2209e-16
2.22045e-16
2.33892e-16
2.74759e-16
3.13266e-16
3.13028e-16
3.08865e-16
2.35979e-16
2.57476e-16
5.09652e-16
2.22045e-16
2.22045e-16
2.22045e-16
2.26856e-16
2.23962e-16
2.22108e-16
2.22162e-16
2.24081e-16
2.26993e-16
2.25115e-16
2.22045e-16
2.22045e-16
2.22045e-16
2.22045e-16
2.22045e-16
2.22045e-16
2.22045e-16
2.22045e-16
2.22045e-16
2.22045e-16
2.22045e-16
2.22045e-16
2.22045e-16
2.22045e-16
2.22045e-16
2.22045e-16
2.22045e-16
2.22045e-16
2.22045e-16
2.22045e-16
2.22045e-16
2.22045e-16
2.22045e-16
2.22045e-16
2.22045e-16
2.22045e-16
2.22045e-16
2.22045e-16
2.22045e-16
2.22045e-16
2.22045e-16
2.22045e-16
2.22045e-16
2.22045e-16
2.22045e-16
2.22045e-16
2.22045e-16
2.22045e-16
2.22045e-16
2.22045e-16
2.22045e-16
2.22045e-16
2.22045e-16
2.22045e-16
2.22045e-16
2.22045e-16
2.22045e-16
2.22045e-16
2.22045e-16
2.22045e-16
2.22045e-16
2.22045e-16
2.22045e-16
2.22045e-16
2.22045e-16
2.22045e-16
2.22045e-16
2.22045e-16
2.22045e-16
2.22045e-16
2.22045e-16
2.22045e-16
2.22045e-16
2.22045e-16
2.22045e-16
2.22045e-16
2.22045e-16
2.22045e-16
2.22045e-16
2.22045e-16
2.22045e-16
2.22045e-16
2.22045e-16
2.22045e-16
2.22045e-16
2.22045e-16
2.22045e-16
2.22045e-16
2.22045e-16
2.22045e-16
2.22045e-16
2.22045e-16
2.22045e-16
2.22045e-16
2.22045e-16
2.22045e-16
2.22045e-16
2.22045e-16
2.22045e-16
2.22045e-16
)
;

boundaryField
{
    right
    {
        type            cyclic;
    }
    left
    {
        type            cyclic;
    }
    outerWall
    {
        type            kqRWallFunction;
        value           nonuniform List<scalar> 
22
(
3.48867e-16
3.48882e-16
3.54146e-16
3.62853e-16
3.72115e-16
3.83416e-16
3.97921e-16
4.13261e-16
4.29532e-16
4.46322e-16
4.58647e-16
4.55773e-16
4.52675e-16
4.61567e-16
4.66788e-16
4.69062e-16
4.69115e-16
4.67722e-16
4.6653e-16
4.71055e-16
4.97879e-16
5.09652e-16
)
;
    }
    stirrerWall
    {
        type            kqRWallFunction;
        value           uniform 2.22045e-16;
    }
    top
    {
        type            empty;
    }
    bottom
    {
        type            empty;
    }
}


// ************************************************************************* //
