/*--------------------------------*- C++ -*----------------------------------*\
  =========                 |
  \\      /  F ield         | OpenFOAM: The Open Source CFD Toolbox
   \\    /   O peration     | Website:  https://openfoam.org
    \\  /    A nd           | Version:  10
     \\/     M anipulation  |
\*---------------------------------------------------------------------------*/
FoamFile
{
    format      ascii;
    class       volScalarField;
    location    "1300";
    object      nut;
}
// * * * * * * * * * * * * * * * * * * * * * * * * * * * * * * * * * * * * * //

dimensions      [0 2 -1 0 0 0 0];

internalField   nonuniform List<scalar> 
420
(
1.04478e-20
5.64515e-20
1.48038e-19
2.65045e-19
3.82955e-19
4.90602e-19
5.79484e-19
6.31734e-19
6.21634e-19
5.53363e-19
1.04473e-20
6.11498e-20
1.55458e-19
2.7205e-19
3.89971e-19
4.97037e-19
5.79674e-19
6.14153e-19
5.77733e-19
4.91021e-19
1.04471e-20
6.29534e-20
1.69497e-19
2.9664e-19
4.19386e-19
5.2591e-19
5.94318e-19
5.92775e-19
5.19278e-19
4.20996e-19
1.04472e-20
6.37363e-20
1.82512e-19
3.26523e-19
4.5753e-19
5.57928e-19
5.94607e-19
5.42073e-19
4.42298e-19
3.55118e-19
1.04476e-20
6.46054e-20
1.85963e-19
3.3755e-19
4.72159e-19
5.55678e-19
5.46014e-19
4.666e-19
3.7164e-19
2.91741e-19
1.04483e-20
6.46582e-20
1.76822e-19
3.02218e-19
4.13384e-19
4.83244e-19
4.73468e-19
4.00112e-19
3.08947e-19
2.31496e-19
1.04493e-20
6.14336e-20
1.41094e-19
2.10901e-19
2.79638e-19
3.43259e-19
3.67825e-19
3.27456e-19
2.47824e-19
1.736e-19
1.04506e-20
4.8366e-20
8.02584e-20
1.04267e-19
1.32868e-19
1.67936e-19
1.99681e-19
2.05736e-19
1.70344e-19
1.16141e-19
1.04522e-20
2.1568e-20
2.79854e-20
3.43584e-20
4.21801e-20
5.19006e-20
6.20495e-20
6.96565e-20
6.96322e-20
5.92959e-20
2.82342e-21
3.6643e-21
4.61494e-21
5.67535e-21
6.84552e-21
8.12545e-21
9.51514e-21
1.10146e-20
1.26238e-20
1.43428e-20
4.82685e-19
4.58234e-19
5.55432e-19
8.22499e-19
1.02456e-18
9.97365e-19
6.83787e-19
4.94925e-19
2.66713e-19
9.74143e-20
4.22214e-19
4.11294e-19
5.25051e-19
8.18148e-19
1.02364e-18
9.11369e-19
6.41057e-19
4.85712e-19
2.53565e-19
9.74213e-20
3.64198e-19
3.66674e-19
4.85827e-19
7.99622e-19
1.00524e-18
9.08722e-19
6.3027e-19
4.80053e-19
2.52528e-19
9.88922e-20
3.07476e-19
3.21396e-19
4.39964e-19
7.73304e-19
9.80663e-19
9.12406e-19
6.29976e-19
4.78422e-19
2.52401e-19
1.01322e-19
2.50718e-19
2.74755e-19
4.0435e-19
7.12761e-19
8.81431e-19
9.21185e-19
6.34004e-19
4.81229e-19
2.54992e-19
1.03905e-19
1.9503e-19
2.28333e-19
3.7599e-19
6.83102e-19
7.8357e-19
9.36908e-19
6.38577e-19
4.87874e-19
2.57975e-19
1.07055e-19
1.42895e-19
1.84582e-19
3.48952e-19
7.08743e-19
7.80888e-19
8.94323e-19
6.43668e-19
4.97365e-19
2.62929e-19
1.11096e-19
9.64708e-20
1.45623e-19
3.26544e-19
7.04616e-19
8.05741e-19
8.70228e-19
6.48874e-19
5.08779e-19
2.69437e-19
1.15368e-19
5.7498e-20
1.12801e-19
3.13203e-19
7.09855e-19
8.05096e-19
8.68066e-19
6.55965e-19
5.21517e-19
2.77749e-19
1.19897e-19
2.78271e-20
8.76374e-20
3.20515e-19
6.91131e-19
7.41616e-19
8.23294e-19
6.54709e-19
5.35122e-19
2.78515e-19
1.24567e-19
1.03958e-20
8.40095e-20
4.18291e-19
6.65462e-19
7.43654e-19
8.65636e-19
6.73239e-19
5.48155e-19
2.76954e-19
1.2827e-19
1.03958e-20
1.11667e-19
4.99919e-19
7.67493e-19
8.30356e-19
9.09286e-19
6.86015e-19
5.51412e-19
2.89473e-19
1.27466e-19
6.28387e-20
2.75481e-19
6.19161e-19
7.58483e-19
8.06867e-19
9.10166e-19
6.45612e-19
5.52162e-19
2.86331e-19
1.2634e-19
3.01843e-19
5.64313e-19
6.29236e-19
7.07869e-19
7.61547e-19
9.09639e-19
6.63309e-19
5.61783e-19
2.8954e-19
1.28839e-19
5.60583e-19
6.30912e-19
6.61075e-19
7.39207e-19
7.81594e-19
9.10212e-19
6.81351e-19
5.67405e-19
2.91124e-19
1.30311e-19
6.9513e-19
7.01973e-19
6.93935e-19
7.51272e-19
8.17742e-19
9.12811e-19
7.11286e-19
5.67316e-19
2.92304e-19
1.30959e-19
7.18668e-19
6.84145e-19
6.74374e-19
7.49052e-19
8.79006e-19
9.19433e-19
7.42011e-19
5.69277e-19
2.92643e-19
1.30983e-19
6.96337e-19
6.57865e-19
6.56022e-19
7.52456e-19
8.95423e-19
9.3025e-19
7.79968e-19
5.63737e-19
2.91663e-19
1.30601e-19
6.65916e-19
6.27089e-19
6.39181e-19
7.60549e-19
9.16529e-19
9.44088e-19
8.07398e-19
5.54137e-19
2.87078e-19
1.30273e-19
6.30535e-19
5.92906e-19
6.22845e-19
7.7078e-19
9.38076e-19
9.56999e-19
7.86486e-19
5.42344e-19
2.78784e-19
1.31538e-19
5.94211e-19
5.56423e-19
6.04318e-19
7.77571e-19
9.52937e-19
9.63343e-19
6.98688e-19
5.28847e-19
2.68082e-19
1.39027e-19
5.48203e-19
5.17299e-19
5.80179e-19
7.79899e-19
9.64747e-19
9.6578e-19
6.79284e-19
5.18182e-19
2.48385e-19
1.4231e-19
1.43428e-20
1.19618e-19
4.37293e-19
6.40148e-19
7.4594e-19
7.3384e-19
7.12498e-19
6.90142e-19
6.63887e-19
6.20117e-19
1.26238e-20
8.67032e-20
3.0868e-19
5.76034e-19
6.9849e-19
7.23438e-19
7.16345e-19
7.00992e-19
6.81547e-19
6.5888e-19
1.10146e-20
5.97893e-20
2.01048e-19
4.14961e-19
5.71633e-19
6.40241e-19
6.53787e-19
6.54808e-19
6.52492e-19
6.46695e-19
9.51514e-21
4.70466e-20
1.27715e-19
2.5258e-19
3.86313e-19
4.87175e-19
5.40116e-19
5.64259e-19
5.76067e-19
5.80325e-19
8.12545e-21
4.01949e-20
9.83657e-20
1.77389e-19
2.65e-19
3.45253e-19
4.11854e-19
4.55802e-19
4.78943e-19
4.87567e-19
6.84552e-21
3.54271e-20
8.48757e-20
1.45364e-19
2.09706e-19
2.70842e-19
3.2385e-19
3.60656e-19
3.78069e-19
3.81775e-19
5.67535e-21
3.10953e-20
7.67284e-20
1.29543e-19
1.8101e-19
2.25569e-19
2.57679e-19
2.72185e-19
2.71986e-19
2.66538e-19
4.61494e-21
2.63312e-20
6.68275e-20
1.09205e-19
1.41178e-19
1.59819e-19
1.65243e-19
1.61237e-19
1.53148e-19
1.47916e-19
3.6643e-21
2.06772e-20
4.3124e-20
5.58119e-20
6.12416e-20
6.25103e-20
6.14572e-20
5.93314e-20
5.65008e-20
5.56211e-20
2.82342e-21
1.04522e-20
1.04506e-20
1.04493e-20
1.04483e-20
1.04476e-20
1.04472e-20
1.04471e-20
1.04473e-20
1.04478e-20
)
;

boundaryField
{
    right
    {
        type            cyclic;
    }
    left
    {
        type            cyclic;
    }
    outerWall
    {
        type            nutkWallFunction;
        Cmu             0.09;
        kappa           0.41;
        E               9.8;
        value           uniform 0;
    }
    stirrerWall
    {
        type            nutkWallFunction;
        Cmu             0.09;
        kappa           0.41;
        E               9.8;
        value           uniform 0;
    }
    top
    {
        type            empty;
    }
    bottom
    {
        type            empty;
    }
}


// ************************************************************************* //
