/*--------------------------------*- C++ -*----------------------------------*\
  =========                 |
  \\      /  F ield         | OpenFOAM: The Open Source CFD Toolbox
   \\    /   O peration     | Website:  https://openfoam.org
    \\  /    A nd           | Version:  10
     \\/     M anipulation  |
\*---------------------------------------------------------------------------*/
FoamFile
{
    format      ascii;
    class       volScalarField;
    location    "1300";
    object      omega;
}
// * * * * * * * * * * * * * * * * * * * * * * * * * * * * * * * * * * * * * //

dimensions      [0 0 -1 0 0 0 0];

internalField   nonuniform List<scalar> 
420
(
21252.7
3933.37
1499.91
837.761
579.819
452.597
383.176
351.484
357.195
401.264
21253.7
3631.16
1428.32
816.19
569.387
446.737
383.051
361.546
384.338
452.21
21254.2
3527.12
1310.02
748.531
529.452
422.21
373.612
374.585
427.603
527.426
21254
3483.8
1216.6
680.027
485.311
397.98
373.431
409.621
502.025
625.27
21253.2
3436.93
1194.03
657.813
470.275
399.592
406.665
475.878
597.473
761.102
21251.7
3434.13
1255.75
734.718
537.139
459.488
468.974
554.956
718.713
959.173
21249.7
3614.38
1573.74
1052.84
794.044
646.872
603.67
678.09
895.978
1279.06
21247.1
4590.92
2766.62
2129.58
1671.17
1322.2
1112
1079.27
1303.51
1911.85
21243.8
10295.1
7934.31
6462.59
5264.21
4278.27
3578.51
3187.71
3188.82
3744.69
78643.9
60596.7
48114.3
39124.4
32436.5
27327.1
23335.9
20159.1
17589.3
15481.3
460.02
484.566
434.97
358.73
321.843
321.718
378.682
461.669
1024.64
3581.27
525.905
539.868
459.797
361.742
320.454
321.559
380.33
466.92
1056.38
3581.17
609.68
605.564
485.217
362.717
317.673
319.943
380.68
471.739
1080.42
3581.13
722.153
690.876
514.283
362.917
314.677
318.069
380.336
476.93
1090.51
3581.18
885.633
808.155
549.14
362.973
311.874
315.848
379.138
479.376
1084.97
3581.3
1138.52
972.46
590.56
362.978
309.535
313.463
377.352
478.87
1073.26
3581.49
1553.9
1202.96
636.319
362.291
307.81
311.234
375.127
476.057
1054.17
3581.76
2301.68
1524.79
679.985
359.978
306.839
309.436
372.714
471.857
1030.13
3582.1
3861.78
1968.46
708.948
354.957
306.705
308.29
370.376
466.806
1003.72
3582.51
7979.43
2533.67
692.774
343.922
306.861
307.677
368.42
461.198
973.792
3582.99
21359.1
2643.09
539.135
323.387
306.337
306.777
366.676
456.568
937.87
3575.63
21359.1
1988.46
454.718
316.866
306.067
305.135
364.595
457.559
943.94
3575.63
3533.56
806.025
369.439
313.158
306.815
304.984
363.236
459
955.257
3582.99
735.63
387.921
323.452
312.662
309.441
306.46
361.383
452.101
934.505
3582.51
360.105
320.573
318.595
315.46
311.788
308.095
360.487
447.43
915.527
3582.1
309.663
316.315
323.77
320.03
314.494
310.242
360.373
443.035
899.706
3581.76
308.967
324.558
332.601
325.758
317.615
312.975
361.781
440.431
889.315
3581.49
318.875
337.523
343.684
332.1
320.844
316.123
364.358
440.776
886.455
3581.3
333.442
354.088
356.654
338.56
323.724
319.443
368.129
443.645
897.525
3581.18
352.153
374.502
370.903
344.055
325.416
322.168
372.772
447.548
916.047
3581.13
375.967
399.057
385.375
347.893
325.504
323.468
376.944
451.737
943.929
3581.17
405.125
429.239
403.138
352.3
324.713
324.119
378.934
455.399
988.01
3581.27
15481.3
1856.28
507.77
325.488
300.241
302.666
311.807
324.688
341.915
363.02
17589.3
2560.97
719.336
385.471
317.892
306.93
309.969
316.758
325.795
337.003
20159.1
3713.78
1104.44
535.098
388.439
346.814
339.629
339.099
340.303
343.353
23335.9
4719.67
1738.59
879.104
574.779
455.78
411.106
393.516
385.449
382.621
27327.1
5524.19
2257.34
1251.74
837.903
643.136
539.135
487.152
463.614
455.414
32436.5
6267.65
2616.11
1527.51
1058.84
819.831
685.641
615.668
587.313
581.611
39124.4
7140.77
2893.9
1714.06
1226.7
984.377
861.71
815.784
816.383
833.068
48114.3
8432.76
3322.65
2033.28
1572.8
1389.35
1343.74
1377.13
1449.87
1501.15
60596.7
10738.6
5148.98
3978.45
3625.72
3552.13
3613
3742.45
3929.94
3992.09
78643.9
21243.8
21247.1
21249.7
21251.7
21253.2
21254
21254.2
21253.7
21252.7
)
;

boundaryField
{
    right
    {
        type            cyclic;
    }
    left
    {
        type            cyclic;
    }
    outerWall
    {
        beta1           0.075;
        blended         0;
        type            omegaWallFunction;
        value           nonuniform List<scalar> 
22
(
3581.27
3581.17
3581.13
3581.18
3581.3
3581.49
3581.76
3582.1
3582.51
3582.99
3575.63
3575.63
3582.99
3582.51
3582.1
3581.76
3581.49
3581.3
3581.18
3581.13
3581.17
3581.27
)
;
    }
    stirrerWall
    {
        beta1           0.075;
        blended         0;
        type            omegaWallFunction;
        value           nonuniform List<scalar> 
42
(
21252.7
21253.7
21254.2
21254
21253.2
21251.7
21249.7
21247.1
21243.8
78643.9
78643.9
60596.7
48114.3
39124.4
32436.5
27327.1
23335.9
20159.1
17589.3
15481.3
21359.1
21359.1
15481.3
17589.3
20159.1
23335.9
27327.1
32436.5
39124.4
48114.3
60596.7
78643.9
78643.9
21243.8
21247.1
21249.7
21251.7
21253.2
21254
21254.2
21253.7
21252.7
)
;
    }
    top
    {
        type            empty;
    }
    bottom
    {
        type            empty;
    }
}


// ************************************************************************* //
