/*--------------------------------*- C++ -*----------------------------------*\
  =========                 |
  \\      /  F ield         | OpenFOAM: The Open Source CFD Toolbox
   \\    /   O peration     | Website:  https://openfoam.org
    \\  /    A nd           | Version:  10
     \\/     M anipulation  |
\*---------------------------------------------------------------------------*/
FoamFile
{
    format      ascii;
    class       volScalarField;
    location    "1300";
    object      p;
}
// * * * * * * * * * * * * * * * * * * * * * * * * * * * * * * * * * * * * * //

dimensions      [0 2 -2 0 0 0 0];

internalField   nonuniform List<scalar> 
420
(
-0.0164671
15.8483
32.2905
51.4976
72.5565
94.7067
117.316
139.312
159.868
178.557
0.832976
15.9463
31.9786
50.8171
71.5805
93.5575
116.106
138.19
158.89
177.816
1.18997
15.932
31.6091
50.0472
70.4603
92.2128
114.647
136.736
157.575
176.843
1.38292
15.8023
31.1162
49.1
69.0751
90.479
112.711
134.834
155.983
175.755
1.64612
15.7293
30.6153
48.0424
67.4706
88.4373
110.446
132.674
154.265
174.694
2.02543
15.8741
30.3346
47.1645
65.9887
86.4636
108.202
130.536
152.636
173.865
2.47946
16.3207
30.4968
46.8004
65.0303
84.9702
106.367
128.751
151.388
173.461
2.92435
17.0385
31.1409
47.0818
64.8358
84.2845
105.261
127.453
150.424
173.378
3.22276
17.8734
32.069
47.7939
65.2027
84.1992
104.645
126.34
149.087
172.351
3.39639
18.7406
33.0121
48.7037
66.0223
84.7948
104.811
125.837
147.497
169.667
195.589
212.031
228.284
243.579
257.01
267.981
272.986
276.154
268.725
271.246
195.113
211.785
228.167
243.41
256.651
267.345
271.942
274.933
271.876
282.588
194.559
211.601
228.188
243.449
256.659
267.37
271.955
275.659
276.353
291.483
194.023
211.541
228.362
243.692
256.997
267.892
272.777
278.124
282.336
295.361
193.653
211.679
228.691
244.114
257.568
268.692
274.098
281.363
288.295
297.839
193.598
212.049
229.192
244.726
258.343
269.745
275.692
284.414
293.143
302.086
193.998
212.661
229.792
245.478
259.289
271.032
277.471
287.065
296.872
306.727
194.862
213.377
230.315
246.27
260.402
272.567
279.467
289.592
300.741
310.02
195.432
214.349
231.04
247.222
261.738
274.407
281.983
293.002
305.982
312.518
195.095
216.209
232.577
248.588
263.378
276.616
285.206
298.171
311.727
314.657
195.702
217.771
234.257
250.199
265.216
279.226
288.094
303.344
314.33
314.041
197.302
218.372
235.212
251.147
266.333
280.821
290.503
306.038
314.656
312.548
201.186
218.834
235.818
252.049
267.502
282.262
293.431
307.227
315.538
314.997
200.784
218.377
235.534
252.13
267.909
283.062
294.874
308.472
317.296
316.213
199.829
217.552
234.86
251.674
267.695
283.159
295.51
309.342
318.049
316.74
199.107
216.674
233.962
250.811
266.877
282.407
295.005
308.805
317.212
315.945
198.561
215.827
232.939
249.637
265.506
280.823
293.409
306.898
314.619
313.557
198.032
214.986
231.832
248.216
263.64
278.447
290.598
303.229
310.316
311.903
197.47
214.155
230.717
246.708
261.536
275.509
286.327
296.913
304.266
314.832
196.909
213.413
229.753
245.401
259.689
272.648
281.145
287.943
294.514
313.877
196.413
212.836
229.073
244.543
258.545
270.736
277.312
280.676
279.427
281.671
196.027
212.381
228.614
244.059
257.821
269.388
275.339
278.601
270.094
254.866
182.854
181.143
180.628
180.548
180.562
180.473
180.219
179.815
179.356
179.061
154.838
156.88
158.758
160.077
160.967
161.478
161.577
161.307
160.795
160.424
126.254
130.954
135.06
137.931
139.807
140.946
141.417
141.283
140.686
140.035
101.039
105.988
110.902
114.682
117.3
118.937
119.733
119.762
119.161
118.278
79.2
83.2307
87.7187
91.5245
94.3293
96.1512
97.1064
97.2647
96.7394
95.78
60.1292
62.9347
66.3494
69.5335
72.0195
73.6959
74.6024
74.7984
74.3803
73.5287
43.3874
45.0258
47.1336
49.3122
51.1365
52.4026
53.0875
53.2264
52.8953
52.2399
28.6512
29.3343
30.2444
31.3022
32.268
32.9696
33.3434
33.3871
33.146
32.7319
15.7568
15.6312
15.6303
15.7959
16.0328
16.2259
16.311
16.2739
16.1343
15.9712
3.93946
2.64148
1.6683
1.11918
0.813804
0.605314
0.427158
0.279429
0.228787
0.238837
)
;

boundaryField
{
    right
    {
        type            cyclic;
    }
    left
    {
        type            cyclic;
    }
    outerWall
    {
        type            zeroGradient;
    }
    stirrerWall
    {
        type            zeroGradient;
    }
    top
    {
        type            empty;
    }
    bottom
    {
        type            empty;
    }
}


// ************************************************************************* //
