/*--------------------------------*- C++ -*----------------------------------*\
  =========                 |
  \\      /  F ield         | OpenFOAM: The Open Source CFD Toolbox
   \\    /   O peration     | Website:  https://openfoam.org
    \\  /    A nd           | Version:  10
     \\/     M anipulation  |
\*---------------------------------------------------------------------------*/
FoamFile
{
    format      ascii;
    class       surfaceScalarField;
    location    "1300";
    object      phi;
}
// * * * * * * * * * * * * * * * * * * * * * * * * * * * * * * * * * * * * * //

dimensions      [0 3 -1 0 0 0 0];

internalField   nonuniform List<scalar> 
788
(
1.43796e-06
-1.24864e-05
3.66219e-06
2.64734e-06
6.77749e-06
8.74651e-06
1.03668e-05
1.21698e-05
1.39197e-05
1.14578e-05
1.66122e-05
6.10479e-06
1.76282e-05
-2.53615e-06
1.57448e-05
-1.36424e-05
1.18599e-05
-2.36275e-05
-3.57809e-05
6.60526e-06
7.50421e-08
-1.2583e-05
2.92295e-06
-2.49276e-07
6.27837e-06
5.32701e-06
9.85719e-06
8.53247e-06
1.30513e-05
8.18196e-06
1.49853e-05
4.11225e-06
1.47689e-05
-2.31571e-06
1.1956e-05
-1.08664e-05
7.47108e-06
-1.92313e-05
-3.06128e-05
2.23459e-06
-6.8482e-07
-1.19183e-05
1.15991e-06
-2.07484e-06
3.60126e-06
2.85751e-06
6.45783e-06
5.64833e-06
8.76462e-06
5.89866e-06
9.72825e-06
3.21286e-06
8.79526e-06
-1.33756e-06
5.27583e-06
-7.36972e-06
1.27749e-07
-1.41166e-05
-2.60731e-05
-4.37542e-06
-1.06243e-06
-1.0862e-05
-1.38777e-07
-3.017e-06
1.31117e-06
1.39428e-06
3.14951e-06
3.84798e-06
4.42587e-06
4.69332e-06
4.02588e-06
3.6763e-06
1.34071e-06
1.36746e-06
-3.72201e-06
-2.31499e-06
-8.8825e-06
-8.9353e-06
-2.38701e-05
-1.1002e-05
-1.40051e-06
-9.46431e-06
-1.25929e-06
-3.12207e-06
-5.45229e-07
7.2131e-07
3.30496e-08
3.28378e-06
-2.83915e-07
5.0408e-06
-2.62272e-06
6.07888e-06
-7.42781e-06
6.24261e-06
-1.28241e-05
3.11894e-06
-1.57616e-05
-5.97012e-06
-2.4619e-05
-1.49334e-05
-1.78619e-06
-7.67739e-06
-2.51578e-06
-2.3497e-06
-2.15947e-06
4.12842e-07
-1.94429e-06
3.05955e-06
-3.02043e-06
6.14286e-06
-6.31595e-06
9.46058e-06
-1.14553e-05
1.14826e-05
-1.54905e-05
7.19379e-06
-1.6307e-05
-5.15231e-06
-2.628e-05
-1.4571e-05
-1.96289e-06
-5.70496e-06
-3.13811e-06
-1.13071e-06
-3.36984e-06
6.99294e-07
-3.3773e-06
3.05907e-06
-3.83599e-06
6.63052e-06
-5.54875e-06
1.12465e-05
-8.1387e-06
1.41276e-05
-1.08194e-05
9.86545e-06
-1.11691e-05
-4.81038e-06
-2.66374e-05
-1.0742e-05
-1.84406e-06
-3.835e-06
-2.92298e-06
2.24049e-09
-3.07061e-06
9.01459e-07
-2.70507e-06
2.67563e-06
-1.84056e-06
5.74702e-06
-3.12032e-07
9.72717e-06
1.53051e-06
1.22965e-05
1.7839e-06
9.60207e-06
-7.24218e-09
-3.00711e-06
-2.21112e-05
-4.47378e-06
-1.55489e-06
-2.2394e-06
-2.10935e-06
6.08834e-07
-2.20581e-06
1.02662e-06
-1.7887e-06
2.19698e-06
1.38786e-07
3.74074e-06
4.56586e-06
5.28822e-06
1.10135e-05
5.88714e-06
1.62944e-05
4.32265e-06
1.43756e-05
-1.12066e-06
-1.08861e-05
3.18104e-06
-2.20009e-06
-1.5983e-06
-6.218e-07
1.52735e-06
5.27018e-06
1.05944e-05
1.64806e-05
2.0749e-05
1.96199e-05
8.79448e-06
1.84624e-06
-5.21087e-05
-8.26418e-07
-8.15033e-05
-7.34275e-07
-0.000124018
1.08044e-06
-0.000181902
3.99593e-06
-0.000258101
6.72192e-06
-0.000358215
1.26894e-05
-0.000483598
2.14059e-05
-0.000672794
1.8702e-05
-0.00082952
-0.000373731
-1.44124e-06
-4.84118e-05
-2.52428e-06
-8.04033e-05
-1.75159e-06
-0.000124791
-2.56508e-07
-0.00018342
1.64208e-06
-0.000259988
3.041e-06
-0.000359528
5.69934e-06
-0.00048633
1.09308e-05
-0.000678073
8.0129e-06
-0.000826581
-0.000365823
-5.95283e-06
-4.68066e-05
-5.26712e-06
-8.11468e-05
-3.64741e-06
-0.000126399
-2.07339e-06
-0.000184965
-8.37729e-07
-0.00026126
-5.5377e-07
-0.000359743
-2.55985e-07
-0.000486686
2.12048e-06
-0.00068047
-3.59895e-06
-0.000820971
-0.000369463
-9.97691e-06
-4.77791e-05
-7.70584e-06
-8.3451e-05
-5.3718e-06
-0.000128703
-3.72078e-06
-0.000186568
-2.93476e-06
-0.000262055
-3.30751e-06
-0.000359263
-4.64889e-06
-0.000485377
-4.2159e-06
-0.000680997
-8.69895e-06
-0.000816561
-0.000378157
-1.21072e-05
-5.05188e-05
-8.9199e-06
-8.66231e-05
-6.3795e-06
-0.000131189
-4.77406e-06
-0.000188074
-4.33536e-06
-0.000262469
-5.22374e-06
-0.00035844
-7.71874e-06
-0.000482867
-8.38276e-06
-0.000680331
-1.06765e-05
-0.000814333
-0.000388821
-1.15121e-05
-5.34642e-05
-8.59139e-06
-8.95181e-05
-6.33974e-06
-0.000133425
-5.02627e-06
-0.000189337
-5.00875e-06
-0.000262457
-6.25438e-06
-0.000357186
-9.82033e-06
-0.000479321
-1.13587e-05
-0.000678781
-1.27139e-05
-0.000813084
-0.000401509
-8.76921e-06
-5.53365e-05
-6.78223e-06
-9.14977e-05
-5.12195e-06
-0.000135047
-4.2531e-06
-0.000190108
-4.77822e-06
-0.000261945
-6.33899e-06
-0.000355586
-1.07621e-05
-0.000474949
-1.31702e-05
-0.000676372
-1.37699e-05
-0.000812626
-0.000415284
-4.44819e-06
-5.5317e-05
-3.51568e-06
-9.24753e-05
-2.56141e-06
-0.000135969
-2.30212e-06
-0.000190234
-3.47539e-06
-0.000260761
-5.37684e-06
-0.000353647
-1.05358e-05
-0.000469919
-1.43882e-05
-0.000672506
-1.39176e-05
-0.000813069
-0.000429256
1.87322e-06
-5.39534e-05
1.37675e-06
-9.20004e-05
1.26533e-06
-0.000135695
5.47951e-07
-0.000189402
-1.45749e-06
-0.000258865
-3.76313e-06
-0.000351335
-9.51055e-06
-0.000464179
-1.51995e-05
-0.000666791
-1.44968e-05
-0.000813698
-0.000443783
1.05694e-05
-5.57033e-05
6.96311e-06
-8.83333e-05
4.46708e-06
-0.000133104
2.2161e-06
-0.000187152
-8.31711e-07
-0.000255896
-3.02419e-06
-0.000349119
-7.81859e-06
-0.000459384
-1.42994e-05
-0.000660389
-1.51049e-05
-0.000812857
-0.000458877
1.21423e-06
-5.68564e-05
-9.84608e-09
-8.71351e-05
-1.44128e-06
-0.000131706
-2.46096e-06
-0.000186178
-3.35804e-06
-0.000254912
-4.81472e-06
-0.000347639
-7.76126e-06
-0.000456535
-3.11428e-06
-0.000665095
3.23775e-06
-0.000819102
-0.000455643
1.06711e-06
-5.80002e-05
1.86206e-06
-8.80076e-05
1.63581e-06
-0.000131338
1.40171e-06
-0.000186005
1.05894e-06
-0.000254613
3.67197e-08
-0.000346637
-4.26414e-06
-0.00045219
-1.77974e-06
-0.000667579
4.31241e-06
-0.000825193
-0.000451346
3.70483e-06
-5.64323e-05
-5.50084e-06
5.95423e-06
-8.99807e-05
6.37894e-06
-0.000131726
5.21401e-06
-0.000185019
2.87348e-06
-0.000252278
1.36936e-06
-0.000345122
-5.22172e-06
-0.000445575
-1.50723e-05
-0.0006578
-1.1906e-05
-0.000828384
-0.00046325
2.7867e-06
-6.05263e-05
1.44361e-06
4.74419e-06
-9.19045e-05
5.56522e-06
-0.000132518
4.8346e-06
-0.000184406
3.01857e-06
-0.000250451
1.2606e-06
-0.000343374
-3.44621e-06
-0.000440885
-1.12153e-05
-0.00065011
-1.01042e-05
-0.000829534
-0.000473341
8.40054e-07
-6.47885e-05
3.37684e-06
3.22131e-06
-9.42467e-05
4.28677e-06
-0.00013345
3.97176e-06
-0.000184166
2.66641e-06
-0.000249153
9.67703e-07
-0.000341724
-2.89204e-06
-0.000437004
-9.75252e-06
-0.000643226
-8.97718e-06
-0.000830366
-0.000482324
1.44442e-06
-6.74864e-05
1.21489e-06
3.27815e-06
-9.59827e-05
4.12436e-06
-0.000134211
3.94291e-06
-0.00018408
3.15824e-06
-0.000248328
2.01781e-06
-0.000340661
-4.83258e-07
-0.000434516
-6.58992e-06
-0.000637093
-7.21338e-06
-0.000829835
-0.000489551
2.83076e-06
-6.85623e-05
-1.742e-06
3.86919e-06
-9.69794e-05
4.33197e-06
-0.000134627
4.09306e-06
-0.000183994
3.79227e-06
-0.000247993
3.38826e-06
-0.000340294
2.23135e-06
-0.00043344
-2.45538e-06
-0.000632403
-4.88333e-06
-0.000827499
-0.00049442
4.31422e-06
-6.87306e-05
-4.17925e-06
4.65696e-06
-9.72873e-05
4.60952e-06
-0.000134483
4.28331e-06
-0.000183784
4.65223e-06
-0.0002484
5.45509e-06
-0.000341152
6.27613e-06
-0.000434368
3.57121e-06
-0.000629671
-1.00417e-06
-0.000822989
-0.00049538
5.83496e-06
-6.81009e-05
-6.51238e-06
5.2461e-06
-9.66248e-05
4.25108e-06
-0.000133437
3.56814e-06
-0.000183225
4.71911e-06
-0.000249573
7.22785e-06
-0.00034365
1.13987e-05
-0.000438593
1.27975e-05
-0.000630995
7.10489e-06
-0.00081745
-0.000488341
7.00932e-06
-6.62987e-05
-8.78286e-06
4.38998e-06
-9.39495e-05
1.39937e-06
-0.000130443
-1.45062e-07
-0.000181754
1.47369e-06
-0.000251044
6.04525e-06
-0.000348108
1.63842e-05
-0.000449151
2.49785e-05
-0.000639571
2.5532e-05
-0.00081797
-0.00046286
6.05756e-06
-6.22435e-05
-1.00845e-05
7.23178e-07
-8.86772e-05
-3.58765e-06
-0.000125864
-5.35369e-06
-0.000179923
-3.49631e-06
-0.000253086
1.70505e-06
-0.000353272
1.79837e-05
-0.000465351
2.93599e-05
-0.000650991
2.99505e-05
-0.000818517
-0.000432855
3.00386e-06
-8.2415e-06
-1.41274e-06
-3.21851e-06
-3.20073e-06
-1.084e-06
1.54975e-06
1.39297e-05
2.68412e-05
4.05878e-05
-2.48449e-05
1.94392e-05
-3.65466e-05
1.31822e-05
-4.39241e-05
1.08248e-05
-4.82659e-05
5.62769e-06
-5.0163e-05
1.97652e-07
-5.03865e-05
-3.95829e-06
-4.95657e-05
-7.25819e-06
-4.7971e-05
-1.02854e-05
-4.52335e-05
-1.2835e-05
-1.26965e-05
-4.24679e-06
2.37685e-05
-1.48753e-05
2.39424e-05
-2.31688e-05
1.92274e-05
-2.87294e-05
1.13034e-05
-3.20382e-05
3.60066e-06
-3.28624e-05
-3.02913e-06
-3.24942e-05
-7.5072e-06
-3.13579e-05
-1.13946e-05
-2.98903e-05
-1.43057e-05
-1.55457e-05
3.84278e-06
2.00431e-05
9.63625e-07
2.6852e-05
-4.04804e-06
2.43135e-05
-8.90217e-06
1.62637e-05
-1.28109e-05
7.53006e-06
-1.49573e-05
-8.55827e-07
-1.58493e-05
-6.57597e-06
-1.60811e-05
-1.11952e-05
-1.61633e-05
-1.42742e-05
-1.64023e-05
6.20656e-06
1.38004e-05
9.96096e-06
2.30751e-05
1.00783e-05
2.42426e-05
8.20182e-06
1.81137e-05
5.83189e-06
9.80205e-06
3.61487e-06
1.30182e-06
2.22754e-06
-5.21113e-06
9.7877e-07
-9.95362e-06
-2.63442e-07
-1.30359e-05
-1.52754e-05
5.92156e-06
7.82953e-06
1.31612e-05
1.58918e-05
1.79993e-05
1.94709e-05
1.98945e-05
1.61436e-05
1.96932e-05
9.91312e-06
1.79899e-05
2.97463e-06
1.60327e-05
-3.23799e-06
1.37903e-05
-7.69664e-06
1.14278e-05
-1.06584e-05
-1.27875e-05
4.46476e-06
3.40315e-06
1.18592e-05
8.60186e-06
1.89689e-05
1.2373e-05
2.34424e-05
1.16004e-05
2.54718e-05
7.85639e-06
2.54312e-05
3.03724e-06
2.39031e-05
-1.67052e-06
2.14139e-05
-5.21744e-06
1.84815e-05
-7.71426e-06
-9.54759e-06
2.77375e-06
6.95044e-07
8.49504e-06
2.91933e-06
1.53701e-05
5.39628e-06
2.09154e-05
6.01215e-06
2.41567e-05
4.63345e-06
2.51824e-05
2.06022e-06
2.43608e-05
-8.23514e-07
2.22392e-05
-3.11723e-06
1.94223e-05
-4.88916e-06
-6.30371e-06
1.51846e-06
-8.12328e-07
5.13269e-06
-7.62458e-07
9.86594e-06
5.83295e-07
1.43652e-05
1.55566e-06
1.7526e-05
1.55558e-06
1.89419e-05
7.15309e-07
1.86618e-05
-5.39738e-07
1.72213e-05
-1.69307e-06
1.51278e-05
-2.81422e-06
-3.58539e-06
6.49328e-07
-1.491e-06
2.46136e-06
-2.66633e-06
4.78056e-06
-1.74936e-06
7.18116e-06
-7.89179e-07
9.05271e-06
-2.41605e-07
9.95297e-06
-1.36459e-07
9.75444e-06
-3.45287e-07
8.79075e-06
-7.53084e-07
7.4067e-06
-1.49218e-06
-1.56955e-06
-1.50698e-06
-4.16401e-06
-5.877e-06
-6.62778e-06
-6.84578e-06
-6.97639e-06
-7.31999e-06
-8.09125e-06
-9.59471e-06
)
;

boundaryField
{
    right
    {
        type            cyclic;
        value           nonuniform List<scalar> 
20
(
0.000392289
0.000832335
0.000664171
0.000477466
0.000355749
0.000255236
0.000179935
0.0001239
8.43366e-05
5.71391e-05
4.08688e-05
2.73076e-05
1.55438e-05
1.69438e-06
-8.65797e-06
-1.49369e-05
-1.58474e-05
-1.21253e-05
-4.98039e-06
1.10841e-05
)
;
    }
    left
    {
        type            cyclic;
        value           nonuniform List<scalar> 
20
(
-0.000392289
-0.000832335
-0.000664171
-0.000477466
-0.000355749
-0.000255236
-0.000179935
-0.0001239
-8.43366e-05
-5.71391e-05
-4.08688e-05
-2.73076e-05
-1.55438e-05
-1.69438e-06
8.65797e-06
1.49369e-05
1.58474e-05
1.21253e-05
4.98039e-06
-1.10841e-05
)
;
    }
    outerWall
    {
        type            calculated;
        value           uniform 0;
    }
    stirrerWall
    {
        type            calculated;
        value           uniform 0;
    }
    top
    {
        type            empty;
        value           nonuniform List<scalar> 0();
    }
    bottom
    {
        type            empty;
        value           nonuniform List<scalar> 0();
    }
}


// ************************************************************************* //
