/*--------------------------------*- C++ -*----------------------------------*\
  =========                 |
  \\      /  F ield         | OpenFOAM: The Open Source CFD Toolbox
   \\    /   O peration     | Website:  https://openfoam.org
    \\  /    A nd           | Version:  10
     \\/     M anipulation  |
\*---------------------------------------------------------------------------*/
FoamFile
{
    format      ascii;
    class       volVectorField;
    location    "1300";
    object      U;
}
// * * * * * * * * * * * * * * * * * * * * * * * * * * * * * * * * * * * * * //

dimensions      [0 1 -1 0 0 0 0];

internalField   nonuniform List<vector> 
420
(
(-0.0282212 8.01648 -3.98633e-19)
(-0.0982553 10.6242 4.49643e-18)
(0.190389 12.4188 -3.74279e-17)
(0.511991 13.9694 1.62365e-17)
(0.730272 15.1724 -1.72877e-16)
(0.858769 15.9471 0)
(0.968583 16.4102 0)
(0.763171 16.6174 1.9614e-16)
(0.366745 16.9332 -2.24495e-16)
(-0.0594845 17.0885 0)
(-0.763929 7.91409 5.89858e-18)
(-1.06782 10.2864 3.768e-17)
(-0.744601 12.0854 7.76557e-18)
(-0.544442 13.6719 -2.62602e-16)
(-0.431566 14.891 9.31699e-17)
(-0.398667 15.7563 4.26837e-17)
(-0.439959 16.3548 1.36847e-15)
(-0.780524 16.7216 -2.81003e-16)
(-1.22519 17.1395 4.74199e-16)
(-1.64168 17.4066 0)
(-1.35466 7.85913 -5.70653e-17)
(-2.01271 9.92093 3.38823e-16)
(-1.8419 11.668 -8.31846e-17)
(-1.83315 13.2067 3.24738e-16)
(-1.8639 14.471 -1.93353e-16)
(-1.96631 15.4101 1.40616e-15)
(-2.15172 16.1577 5.7294e-16)
(-2.55319 16.7168 1.7342e-15)
(-3.03958 17.2937 -7.08638e-16)
(-3.45506 17.589 -1.86811e-15)
(-1.94369 7.81635 5.53433e-17)
(-2.84004 9.6028 -2.617e-16)
(-2.85823 11.2653 1.20604e-16)
(-3.05379 12.7028 1.42846e-16)
(-3.24799 13.9632 -2.10174e-16)
(-3.52295 14.9924 5.74898e-16)
(-3.91745 15.8696 -3.56766e-15)
(-4.492 16.6558 0)
(-5.05864 17.3446 -1.76659e-15)
(-5.3601 17.4972 2.00712e-15)
(-2.53074 7.7572 0)
(-3.63072 9.30715 -1.32558e-16)
(-3.8487 10.9044 1.5862e-16)
(-4.22252 12.2644 0)
(-4.64706 13.5191 -1.47669e-16)
(-5.1681 14.6503 -2.74909e-16)
(-5.83731 15.6871 1.33583e-15)
(-6.54608 16.5728 -1.80522e-15)
(-7.01203 17.1334 0)
(-7.00339 16.9989 -9.08099e-15)
(-3.11528 7.68785 -2.18079e-17)
(-4.412 9.02983 0)
(-4.88009 10.5012 0)
(-5.32829 11.8772 1.00967e-16)
(-5.92748 13.1792 -7.01891e-16)
(-6.66195 14.4375 9.22256e-16)
(-7.49033 15.6178 6.76021e-16)
(-8.18199 16.4286 5.00896e-15)
(-8.44688 16.7446 -6.03012e-15)
(-8.20268 16.3524 4.2266e-15)
(-3.69883 7.61048 0)
(-5.14508 8.77034 1.01572e-16)
(-5.79574 10.1118 2.51179e-17)
(-6.43872 11.5107 -9.1289e-17)
(-7.16271 12.9545 -1.35071e-15)
(-7.98803 14.4255 8.99057e-16)
(-8.79099 15.7068 -3.19668e-15)
(-9.26725 16.3546 3.28649e-16)
(-9.39432 16.3096 -1.85565e-15)
(-9.06322 15.7158 -6.68506e-15)
(-4.25787 7.50531 4.21348e-17)
(-5.81086 8.47673 -6.01839e-17)
(-6.54822 9.7169 8.50222e-17)
(-7.27243 11.0555 3.89438e-16)
(-8.04169 12.4849 7.28476e-16)
(-8.79766 13.9904 0)
(-9.40154 15.3607 3.0775e-15)
(-9.77808 16.1959 4.17012e-15)
(-9.77573 16.1004 6.31676e-15)
(-9.76676 15.4109 5.44956e-15)
(-4.80584 7.32237 4.13099e-17)
(-6.33042 8.07317 -1.9975e-17)
(-7.03726 9.0941 2.03882e-17)
(-7.7452 10.1948 -7.96112e-16)
(-8.4527 11.4057 3.07479e-15)
(-9.04224 12.7716 5.3067e-15)
(-9.47371 14.1955 -1.89164e-15)
(-9.7631 15.3665 0)
(-9.9229 15.8944 0)
(-10.5053 15.4966 -6.46156e-15)
(-5.54494 7.0016 9.42004e-17)
(-7.02758 7.71977 7.76141e-16)
(-7.76378 8.84116 0)
(-8.51028 10.0336 0)
(-9.1711 11.2686 -3.31775e-15)
(-9.69066 12.5233 4.0894e-17)
(-10.0689 13.68 6.02154e-15)
(-10.4388 14.6958 -1.20471e-14)
(-10.971 15.3826 1.3549e-14)
(-11.9611 15.4804 1.09828e-15)
(-0.38099 17.0608 0)
(-0.544615 16.7437 0)
(-0.619966 16.0444 0)
(-0.588995 15.0136 -5.89769e-16)
(-0.3968 13.7307 0)
(-0.112035 12.1433 0)
(0.0764992 10.5799 5.55372e-16)
(-0.183764 7.45867 0)
(0.325689 6.92636 0)
(2.09899 27.6598 0)
(-1.91153 17.3177 8.47223e-16)
(-1.94325 16.7844 1.75825e-15)
(-1.89144 15.9122 1.52818e-16)
(-1.75491 14.8155 6.78677e-16)
(-1.48975 13.5236 4.12051e-17)
(-1.11268 11.9862 7.1514e-16)
(-0.974166 10.2829 -9.28282e-17)
(-1.1296 7.1121 -9.41068e-17)
(-0.418445 6.98179 -1.07214e-15)
(-0.373955 28.4479 -1.37233e-15)
(-3.58244 17.3196 7.78523e-16)
(-3.40642 16.5761 0)
(-3.20147 15.6327 -1.52305e-15)
(-2.93095 14.5431 -1.28136e-15)
(-2.57186 13.2813 3.62622e-15)
(-2.10014 11.8286 -7.07765e-16)
(-2.01634 10.0728 1.0527e-15)
(-1.92081 6.80447 0)
(-1.16292 7.08995 1.03277e-15)
(-3.02309 28.1508 -7.6468e-17)
(-5.18751 16.9547 2.0474e-15)
(-4.80224 16.1199 5.48112e-15)
(-4.44508 15.1838 -5.72864e-15)
(-4.05636 14.1668 2.21714e-15)
(-3.61946 12.9751 -1.81782e-18)
(-3.0509 11.6248 0)
(-2.99376 9.85795 -1.03927e-15)
(-2.59851 6.54043 -1.30527e-15)
(-1.83179 7.13883 -1.03196e-15)
(-5.32901 27.5617 5.13846e-15)
(-6.56676 16.3214 1.6936e-15)
(-6.02813 15.4721 -1.70489e-15)
(-5.56577 14.6247 5.80629e-15)
(-5.10537 13.7188 -2.24802e-15)
(-4.61643 12.6195 1.80714e-15)
(-3.96347 11.3788 -2.74847e-15)
(-3.90197 9.63443 1.94209e-15)
(-3.20846 6.29005 1.21525e-15)
(-2.39266 7.08682 0)
(-7.46019 26.6179 -1.01778e-14)
(-7.64993 15.5441 2.15277e-15)
(-7.05417 14.7497 -1.01392e-14)
(-6.54923 14.0274 -3.01453e-15)
(-6.07391 13.2238 6.87112e-15)
(-5.55884 12.2199 5.54697e-15)
(-4.83205 11.0921 2.34454e-18)
(-4.75404 9.40016 -2.54782e-17)
(-3.78953 6.02666 -1.39162e-15)
(-2.85285 6.96632 -1.88676e-15)
(-9.65938 25.5384 9.82974e-15)
(-8.52153 14.8008 2.0732e-15)
(-7.92517 14.0723 3.57616e-15)
(-7.41923 13.4321 0)
(-6.96131 12.7062 -2.27287e-15)
(-6.44199 11.7929 -3.55809e-15)
(-5.65162 10.7776 1.04311e-17)
(-5.55932 9.15745 -6.31638e-15)
(-4.33677 5.75289 -1.35561e-15)
(-3.26732 6.81939 3.21924e-15)
(-11.5965 24.2116 -4.49201e-15)
(-9.32365 14.2117 8.60491e-15)
(-8.69822 13.4544 -3.23517e-15)
(-8.19096 12.8603 0)
(-7.76566 12.1901 -5.03159e-17)
(-7.26398 11.3557 1.45891e-14)
(-6.42061 10.4397 -5.69121e-15)
(-6.31826 8.90745 -4.11776e-15)
(-4.86976 5.47775 2.97392e-15)
(-3.6419 6.6602 -2.90448e-15)
(-13.3508 22.7394 0)
(-9.97499 13.8117 1.4829e-16)
(-9.44913 12.895 -3.41549e-15)
(-8.89494 12.3306 0)
(-8.50327 11.6874 4.9002e-15)
(-8.04042 10.9009 -1.11051e-14)
(-7.14602 10.0598 5.84647e-15)
(-7.04422 8.63582 2.15997e-15)
(-5.41099 5.24106 0)
(-3.99253 6.40029 -1.66693e-16)
(-14.9409 21.1669 5.49014e-15)
(-10.0986 13.585 3.10645e-16)
(-10.3325 12.4133 1.35096e-16)
(-9.69612 11.848 0)
(-9.31397 11.1896 -9.7904e-15)
(-8.8909 10.4148 3.64579e-15)
(-7.9235 9.60961 -3.00056e-15)
(-7.76058 8.30234 2.0122e-15)
(-5.93792 5.05664 2.87188e-16)
(-4.33442 6.15745 2.86878e-16)
(-16.2565 19.3793 -5.56967e-15)
(-10.6134 13.3846 3.12306e-15)
(-11.3728 11.8682 -4.38519e-15)
(-10.7372 11.2206 0)
(-10.221 10.5904 0)
(-9.70613 9.88201 0)
(-8.66548 9.17375 -1.53873e-15)
(-8.43864 7.97039 5.77088e-15)
(-6.19421 4.82818 0)
(-4.26353 6.35571 0)
(-17.1591 18.4253 0)
(-11.532 12.3615 -3.09301e-15)
(-11.8752 11.3792 -4.55988e-15)
(-11.2658 10.7509 0)
(-10.6581 10.1856 2.64225e-15)
(-10.1111 9.5186 -1.97673e-15)
(-9.01612 8.90465 1.60741e-15)
(-8.77764 7.85333 2.57193e-15)
(-6.36563 4.39222 -8.44974e-17)
(-4.32174 6.01871 7.70572e-16)
(-18.1029 17.8161 0)
(-12.7374 11.2469 1.61658e-16)
(-12.1882 10.7266 -1.74822e-18)
(-11.6092 10.2975 0)
(-11.0198 9.77449 8.49035e-17)
(-10.5167 9.08447 4.28989e-15)
(-9.41448 8.47883 -3.12946e-15)
(-9.18541 7.6327 -7.49112e-15)
(-6.70648 3.85832 -4.01372e-15)
(-4.78373 5.09791 7.11917e-15)
(-19.2755 16.3274 5.82784e-15)
(-13.4872 9.83562 -1.04633e-14)
(-12.8895 9.6767 4.16471e-15)
(-12.3383 9.36864 0)
(-11.7883 8.95453 -5.29528e-15)
(-11.2899 8.36171 -4.2138e-15)
(-10.1383 7.79783 6.71155e-15)
(-9.90763 7.21048 2.7932e-15)
(-7.3211 3.73843 0)
(-5.07398 4.88562 -4.30727e-15)
(-20.1916 14.4665 -6.00594e-16)
(-13.942 8.53094 -1.9732e-16)
(-13.4699 8.53757 3.96949e-15)
(-12.9824 8.32837 0)
(-12.4595 8.02114 1.03177e-14)
(-11.9618 7.51191 -4.80368e-17)
(-10.7831 7.01987 -1.05814e-16)
(-10.4942 6.63725 5.94575e-15)
(-7.79664 3.31487 -4.08033e-15)
(-5.34933 4.53753 -4.03883e-15)
(-21.0013 12.6855 0)
(-14.256 7.42709 -2.40514e-15)
(-13.9248 7.46587 7.54715e-15)
(-13.5164 7.31623 6.24633e-15)
(-13.0325 7.07935 -7.25628e-15)
(-12.5383 6.64255 -1.2409e-14)
(-11.3433 6.22887 -3.16189e-16)
(-11.0215 6.05957 -3.1058e-15)
(-8.22381 2.95502 -2.19428e-15)
(-5.61399 4.20604 -4.77977e-15)
(-21.6657 10.8981 -6.51525e-15)
(-14.5819 6.41086 -6.55351e-15)
(-14.323 6.42727 3.44427e-15)
(-13.9724 6.30166 -2.66087e-15)
(-13.5194 6.10162 -7.2349e-15)
(-13.0162 5.72126 5.7082e-15)
(-11.8055 5.39104 -3.35754e-16)
(-11.4511 5.40203 5.83064e-15)
(-8.56895 2.57205 2.41929e-15)
(-5.91391 3.88999 2.82265e-15)
(-22.2084 9.1347 5.37992e-16)
(-14.9266 5.42676 1.83201e-15)
(-14.6887 5.40052 -1.60834e-15)
(-14.3752 5.27459 -6.52376e-17)
(-13.9336 5.09066 6.96287e-15)
(-13.3915 4.7563 -9.85656e-15)
(-12.1456 4.52822 3.15065e-15)
(-11.7739 4.70723 -3.05548e-15)
(-8.81092 2.21548 6.4597e-15)
(-6.27568 3.63626 0)
(-22.7154 7.47648 1.30529e-16)
(-15.272 4.44565 1.82504e-15)
(-15.036 4.36574 1.55703e-15)
(-14.7549 4.21265 2.72103e-15)
(-14.299 4.01146 -4.46387e-15)
(-13.6617 3.71403 1.85597e-15)
(-12.354 3.60494 0)
(-11.9212 3.93961 -1.38121e-15)
(-8.90802 1.85303 -4.34302e-15)
(-6.6503 3.54913 -1.70948e-17)
(-23.4153 6.13659 5.64575e-15)
(-15.6307 3.45079 7.82659e-16)
(-15.42 3.27934 0)
(-15.1616 3.02029 1.32076e-15)
(-14.648 2.75604 1.21544e-15)
(-13.8637 2.52254 8.08486e-17)
(-12.4598 2.4863 -7.5445e-16)
(-11.8512 3.09491 1.36514e-15)
(-8.7024 1.38167 0)
(-6.92028 3.71493 1.80481e-15)
(-23.9578 5.11502 4.70182e-15)
(-15.9914 2.32198 8.039e-16)
(-15.8886 2.01949 -1.49517e-15)
(-15.6725 1.66975 -1.21369e-16)
(-15.027 1.39742 4.74583e-16)
(-14.0272 1.24962 -5.81312e-17)
(-12.4472 1.2631 7.26331e-16)
(-11.6057 2.1665 -1.22407e-15)
(-8.38019 0.83328 4.74356e-17)
(-6.58394 3.03912 1.30997e-15)
(-23.71 3.39655 -3.21537e-15)
(-16.6521 0.958384 1.13613e-29)
(-16.5099 0.695346 0)
(-16.0365 0.485674 0)
(-15.1026 0.366817 -5.87785e-16)
(-13.8442 0.330085 0)
(-12.1928 0.505191 0)
(-10.6665 0.930959 6.21771e-16)
(-7.91714 0.429192 0)
(-7.32013 1.15285 0)
(-27.7965 5.21839 -1.37027e-29)
(-14.5252 11.6868 9.87874e-16)
(-14.572 10.1364 -5.60554e-15)
(-14.5633 8.50758 5.53949e-15)
(-14.6397 7.39437 -7.78933e-15)
(-14.8218 6.44993 4.99934e-15)
(-15.1099 5.50761 -9.0526e-15)
(-15.457 4.57136 2.04439e-15)
(-15.8202 3.61357 -1.91804e-15)
(-16.1683 2.57659 0)
(-16.7016 1.28226 -2.00895e-16)
(-15.407 11.2119 1.35101e-14)
(-15.6955 9.85921 0)
(-15.3258 8.25945 5.77759e-15)
(-15.1771 7.2308 -2.49091e-15)
(-15.1744 6.38828 -8.37009e-15)
(-15.3418 5.53709 0)
(-15.6139 4.66731 -2.23626e-15)
(-15.9232 3.77007 -8.28775e-16)
(-16.2726 2.81956 5.39131e-16)
(-16.6304 1.66646 -2.28405e-16)
(-14.9953 10.3913 -1.10986e-14)
(-16.0829 9.15858 0)
(-15.8982 7.86561 5.10706e-15)
(-15.7026 7.05679 4.15748e-16)
(-15.5956 6.33009 7.12737e-15)
(-15.641 5.63801 -3.36775e-15)
(-15.7766 4.76781 0)
(-15.9721 3.89651 2.46226e-15)
(-16.2131 2.95109 -3.4393e-16)
(-16.4137 1.91498 2.80494e-16)
(-13.7968 9.76576 5.16371e-15)
(-15.5396 8.55105 -1.61198e-15)
(-15.9676 7.36071 3.6907e-15)
(-16.0293 6.65643 -4.08584e-15)
(-15.9728 6.08832 4.44386e-16)
(-15.9831 5.58869 2.77794e-15)
(-16.0517 4.8622 -7.74002e-15)
(-16.1777 4.03584 1.28956e-15)
(-16.295 3.07319 1.78138e-15)
(-16.4092 2.05189 5.35045e-17)
(-12.3848 9.21759 -7.74562e-15)
(-14.3116 8.14945 4.80498e-15)
(-15.2924 7.01621 0)
(-15.7398 6.36278 1.48671e-15)
(-15.9356 5.8386 1.57704e-15)
(-16.0043 5.31361 -1.91758e-16)
(-16.0442 4.67724 1.27802e-15)
(-16.0749 3.87095 2.34417e-15)
(-16.083 2.93216 -3.51405e-17)
(-16.0582 1.93195 1.82186e-16)
(-11.0253 8.66056 -3.12697e-15)
(-12.7311 7.79792 3.78033e-15)
(-13.9434 6.76238 1.38153e-15)
(-14.7082 6.09539 -2.23094e-15)
(-15.1305 5.55814 -1.33814e-15)
(-15.3828 5.02557 -2.27215e-16)
(-15.4976 4.41454 -2.1452e-15)
(-15.5155 3.63417 6.68678e-16)
(-15.467 2.73103 1.2607e-16)
(-15.3645 1.76827 -1.83714e-16)
(-9.78315 8.04987 0)
(-11.1103 7.39842 -1.31076e-15)
(-12.2196 6.50317 4.18169e-16)
(-13.1541 5.81929 -5.06821e-16)
(-13.7556 5.22513 7.98351e-16)
(-14.1247 4.64356 0)
(-14.322 4.00501 4.86521e-16)
(-14.3828 3.2343 6.24094e-16)
(-14.3304 2.37499 -5.01339e-16)
(-14.2051 1.4805 -2.15805e-17)
(-8.6686 7.38863 0)
(-9.63003 6.91122 -2.45646e-16)
(-10.4741 6.15404 1.80376e-15)
(-11.3186 5.47296 -1.2642e-15)
(-11.9612 4.81658 0)
(-12.3959 4.16712 -1.22885e-16)
(-12.6509 3.48363 -3.59797e-16)
(-12.7513 2.71352 3.36754e-16)
(-12.7484 1.90203 2.19645e-16)
(-12.6396 1.08003 -8.19019e-17)
(-7.63011 6.6664 -7.42509e-16)
(-8.27844 6.35214 2.44867e-16)
(-8.9188 5.63885 2.16403e-16)
(-9.58165 4.93351 -1.87265e-16)
(-10.1182 4.23341 0)
(-10.5054 3.5411 1.40654e-16)
(-10.747 2.8434 3.46565e-17)
(-10.8529 2.13125 -6.07924e-18)
(-10.8599 1.44661 -1.37668e-18)
(-10.7883 0.72311 -4.67954e-18)
(-6.30975 6.23718 -1.56318e-16)
(-6.47591 5.98484 1.14172e-17)
(-6.78657 5.33073 -7.87835e-18)
(-7.14558 4.64734 0)
(-7.48744 3.98182 1.39615e-17)
(-7.77975 3.33695 0)
(-8.0013 2.70354 8.99052e-17)
(-8.1346 2.08745 -4.76757e-17)
(-8.18422 1.50506 1.13065e-17)
(-8.14468 0.74768 -5.69148e-19)
)
;

boundaryField
{
    right
    {
        type            cyclic;
    }
    left
    {
        type            cyclic;
    }
    outerWall
    {
        type            calculated;
        value           nonuniform List<vector> 
22
(
(-1.55201 41.8305 0)
(-4.64749 41.6006 0)
(-7.71741 41.1419 0)
(-10.7449 40.4569 0)
(-13.7132 39.5492 0)
(-16.6061 38.424 0)
(-19.4075 37.0874 0)
(-22.1022 35.5467 0)
(-24.6752 33.8104 0)
(-27.1124 31.8882 0)
(-28.9573 30.2506 0)
(-30.2506 28.9573 0)
(-31.8882 27.1124 0)
(-33.8104 24.6752 0)
(-35.5467 22.1022 0)
(-37.0874 19.4075 0)
(-38.424 16.6061 0)
(-39.5492 13.7132 0)
(-40.4569 10.7449 0)
(-41.1419 7.71741 0)
(-41.6006 4.64749 0)
(-41.8305 1.55201 0)
)
;
    }
    stirrerWall
    {
        type            calculated;
        value           nonuniform List<vector> 
42
(
(-0.310178 8.3662 0)
(-0.928834 8.32046 0)
(-1.54239 8.22894 0)
(-2.14746 8.09214 0)
(-2.74072 7.91082 0)
(-3.31888 7.68598 0)
(-3.87877 7.41885 0)
(-4.41729 7.11092 0)
(-4.93148 6.76387 0)
(-5.4185 6.37963 0)
(-6.07951 6.64185 0)
(-6.92878 7.56862 0)
(-7.77806 8.49539 0)
(-8.62734 9.42216 0)
(-9.47661 10.3489 0)
(-10.3259 11.2757 0)
(-11.1752 12.2025 0)
(-12.0244 13.1292 0)
(-12.8737 14.056 0)
(-13.723 14.9828 0)
(-14.4723 15.1215 0)
(-15.1215 14.4723 0)
(-14.9828 13.723 0)
(-14.056 12.8737 0)
(-13.1292 12.0244 0)
(-12.2025 11.1752 0)
(-11.2757 10.3259 0)
(-10.3489 9.47661 0)
(-9.42216 8.62734 0)
(-8.49539 7.77806 0)
(-7.56862 6.92878 0)
(-6.64185 6.07951 0)
(-6.37963 5.4185 0)
(-6.76387 4.93148 0)
(-7.11092 4.41729 0)
(-7.41885 3.87877 0)
(-7.68598 3.31888 0)
(-7.91082 2.74072 0)
(-8.09214 2.14746 0)
(-8.22894 1.54239 0)
(-8.32046 0.928834 0)
(-8.3662 0.310178 0)
)
;
    }
    top
    {
        type            empty;
    }
    bottom
    {
        type            empty;
    }
}


// ************************************************************************* //
