/*--------------------------------*- C++ -*----------------------------------*\
  =========                 |
  \\      /  F ield         | OpenFOAM: The Open Source CFD Toolbox
   \\    /   O peration     | Website:  https://openfoam.org
    \\  /    A nd           | Version:  10
     \\/     M anipulation  |
\*---------------------------------------------------------------------------*/
FoamFile
{
    format      ascii;
    class       volVectorField;
    location    "1300";
    object      Urel;
}
// * * * * * * * * * * * * * * * * * * * * * * * * * * * * * * * * * * * * * //

dimensions      [0 1 -1 0 0 0 0];

internalField   nonuniform List<vector> 
420
(
(0.305779 -0.99177 -3.98633e-19)
(0.282245 0.36283 4.49643e-18)
(0.617404 0.903924 -3.74279e-17)
(0.985532 1.20077 1.62365e-17)
(1.25035 1.14979 -1.72877e-16)
(1.42538 0.670434 0)
(1.58174 -0.120699 0)
(1.42287 -1.16783 1.9614e-16)
(1.07299 -2.10647 -2.24495e-16)
(0.693317 -3.20567 0)
(0.236247 -1.04487 5.89858e-18)
(0.0716011 0.0812856 3.768e-17)
(0.53411 0.633659 7.76557e-18)
(0.873589 0.973329 -2.62602e-16)
(1.12581 0.945445 9.31699e-17)
(1.29806 0.563538 4.26837e-17)
(1.39614 -0.0852286 1.36847e-15)
(1.19496 -0.965912 -2.81003e-16)
(0.889686 -1.79543 4.74199e-16)
(0.612595 -2.77589 0)
(0.306204 -1.00126 -5.70653e-17)
(-0.120628 -0.171875 3.38823e-16)
(0.281488 0.342385 -8.31846e-17)
(0.521577 0.648014 3.24738e-16)
(0.722218 0.679045 -1.93353e-16)
(0.85122 0.384714 1.40616e-15)
(0.897247 -0.101224 5.7294e-16)
(0.727229 -0.775679 1.7342e-15)
(0.472304 -1.43251 -7.08638e-16)
(0.288295 -2.37101 -1.86811e-15)
(0.368725 -0.896718 5.53433e-17)
(-0.205694 -0.322161 -2.617e-16)
(0.0981534 0.128019 1.20604e-16)
(0.224699 0.352979 1.42846e-16)
(0.352657 0.400669 -2.10174e-16)
(0.399893 0.217048 5.74898e-16)
(0.327622 -0.118732 -3.56766e-15)
(0.0753218 -0.545646 0)
(-0.169046 -1.07 -1.76659e-15)
(-0.148217 -2.13061 2.00712e-15)
(0.420501 -0.760634 0)
(-0.268599 -0.3954 -1.32558e-16)
(-0.0755669 0.0167183 1.5862e-16)
(-0.0382911 0.191377 0)
(-0.051668 0.260532 -1.47669e-16)
(-0.161494 0.206111 -2.74909e-16)
(-0.419443 0.0570861 1.33583e-15)
(-0.716932 -0.243132 -1.80522e-15)
(-0.771581 -0.868469 0)
(-0.351611 -2.18895 -9.08099e-15)
(0.458549 -0.587887 -2.18079e-17)
(-0.340601 -0.396952 0)
(-0.310961 -0.0769741 0)
(-0.261318 0.147377 1.00967e-16)
(-0.362598 0.297513 -7.01891e-16)
(-0.599083 0.403858 9.22256e-16)
(-0.92944 0.43207 6.76021e-16)
(-1.12303 0.0906034 5.00896e-15)
(-0.889843 -0.745624 -6.03012e-15)
(-0.147525 -2.29007 4.2266e-15)
(0.477905 -0.377639 0)
(-0.386807 -0.328844 1.01572e-16)
(-0.455737 -0.0988208 2.51179e-17)
(-0.516877 0.188505 -9.1289e-17)
(-0.658923 0.520466 -1.35071e-15)
(-0.902229 0.879469 8.99057e-16)
(-1.12312 1.04867 -3.19668e-15)
(-1.01726 0.58434 3.28649e-16)
(-0.562194 -0.572834 -1.85565e-15)
(0.351086 -2.2789 -6.68506e-15)
(0.498781 -0.151268 4.21348e-17)
(-0.391891 -0.244817 -6.01839e-17)
(-0.466722 -0.0699531 8.50222e-17)
(-0.528263 0.203106 3.89438e-16)
(-0.634736 0.566813 7.28476e-16)
(-0.72785 1.00649 0)
(-0.668809 1.31082 3.0775e-15)
(-0.382371 1.07996 4.17012e-15)
(0.282982 -0.0815959 6.31676e-15)
(0.954996 -1.83725 5.44956e-15)
(0.504528 0.039452 4.13099e-17)
(-0.280576 -0.222789 -1.9975e-17)
(-0.247712 -0.215216 2.03882e-17)
(-0.215789 -0.128089 -7.96112e-16)
(-0.183302 0.0690683 3.07479e-15)
(-0.032763 0.421111 5.3067e-15)
(0.275914 0.831028 -1.89164e-15)
(0.726724 0.987959 0)
(1.30717 0.501805 0)
(1.465 -0.910109 -6.46156e-15)
(0.289897 0.132379 9.42004e-17)
(-0.380162 -0.104995 7.76141e-16)
(-0.303526 0.0605449 0)
(-0.237019 0.296892 0)
(-0.0847011 0.575713 -3.31775e-15)
(0.208983 0.874078 4.0894e-17)
(0.644059 1.07435 6.02154e-15)
(1.08756 1.13369 -1.20471e-14)
(1.36871 0.863972 1.3549e-14)
(1.19215 0.00513829 1.09828e-15)
(0.418618 -4.49442 0)
(0.304601 -6.1484 0)
(0.284175 -8.32772 0)
(0.37596 -10.9973 -5.89769e-16)
(0.635487 -14.0946 0)
(0.9948 -17.6909 0)
(1.26587 -21.4785 5.55372e-16)
(1.097 -27.0624 0)
(1.70763 -30.3212 0)
(3.59296 -12.6066 0)
(0.482887 -4.11893 8.47223e-16)
(0.599719 -5.98174 1.75825e-15)
(0.816001 -8.3259 1.52818e-16)
(1.13465 -11.0523 6.78677e-16)
(1.60143 -14.1487 4.12051e-17)
(2.20173 -17.684 7.1514e-16)
(2.58741 -21.5993 -9.28282e-17)
(2.70563 -27.2192 -9.41068e-17)
(3.71978 -30.0611 -1.07214e-15)
(4.09973 -11.5972 -1.37233e-15)
(0.393627 -3.88068 7.78523e-16)
(0.816326 -5.93905 0)
(1.2944 -8.33821 -1.52305e-15)
(1.86732 -11.0396 -1.28136e-15)
(2.56121 -14.086 3.62622e-15)
(3.40362 -17.5144 -7.07765e-16)
(3.89785 -21.4578 1.0527e-15)
(4.4478 -27.1483 0)
(5.70882 -29.5445 1.03277e-15)
(4.4057 -11.4528 -7.6468e-17)
(0.348371 -3.89281 2.0474e-15)
(1.07709 -6.02057 5.48112e-15)
(1.81451 -8.38815 -5.72864e-15)
(2.62424 -10.9901 2.21714e-15)
(3.52729 -13.9366 -1.81782e-18)
(4.61196 -17.2298 0)
(5.24053 -21.1478 -1.03927e-15)
(6.26846 -26.8471 -1.30527e-15)
(7.73567 -28.8857 -1.03196e-15)
(5.01403 -11.3824 5.13846e-15)
(0.498528 -4.05875 1.6936e-15)
(1.47548 -6.17199 -1.70489e-15)
(2.42314 -8.41874 5.80629e-15)
(3.42085 -10.8739 -2.24802e-15)
(4.50471 -13.6887 1.80714e-15)
(5.81635 -16.8287 -2.74847e-15)
(6.60713 -20.6759 1.94209e-15)
(8.10809 -26.3485 1.21525e-15)
(9.81789 -28.1296 0)
(5.74018 -11.4526 -1.01778e-14)
(0.905965 -4.25685 2.15277e-15)
(2.0325 -6.2791 -1.01392e-14)
(3.1251 -8.36087 -3.01453e-15)
(4.25109 -10.6697 6.87112e-15)
(5.48655 -13.3402 5.54697e-15)
(7.01097 -16.3131 2.34454e-18)
(7.97208 -20.0481 -2.54782e-17)
(9.91436 -25.6835 -1.39162e-15)
(11.9336 -27.2482 -1.88676e-15)
(6.32568 -11.449 9.82974e-15)
(1.47799 -4.31207 2.0732e-15)
(2.69465 -6.22563 3.57616e-15)
(3.88738 -8.17801 0)
(5.10571 -10.3567 -2.27287e-15)
(6.46694 -12.8785 -3.55809e-15)
(8.18947 -15.6748 1.04311e-17)
(9.31383 -19.2667 -6.31638e-15)
(11.6791 -24.8545 -1.35561e-15)
(14.0137 -26.2051 3.21924e-15)
(7.0853 -11.4892 -4.49201e-15)
(2.06459 -4.1081 8.60491e-15)
(3.39642 -6.00122 -3.23517e-15)
(4.6858 -7.8529 0)
(5.97707 -9.91542 -5.03159e-17)
(7.43752 -12.2914 1.45891e-14)
(9.34244 -14.9143 -5.69121e-15)
(10.6201 -18.3364 -4.11776e-15)
(13.3699 -23.8585 2.97392e-15)
(16.0386 -24.9926 -2.90448e-15)
(7.92488 -11.4784 0)
(2.73944 -3.61436 1.4829e-16)
(4.05391 -5.6114 -3.41549e-15)
(5.48124 -7.37186 0)
(6.83964 -9.33926 4.9002e-15)
(8.37285 -11.592 -1.11051e-14)
(10.4523 -14.0565 5.84647e-15)
(11.8662 -17.2779 2.15997e-15)
(14.9522 -22.6627 0)
(17.9791 -23.7067 -1.66693e-16)
(8.81162 -11.3796 5.49014e-15)
(3.87222 -2.85165 3.10645e-16)
(4.50473 -5.04206 1.35096e-16)
(6.10048 -6.73538 0)
(7.5448 -8.64267 -9.7904e-15)
(9.1439 -10.8002 3.64579e-15)
(11.4134 -13.1363 -3.00056e-15)
(13.0179 -16.1387 2.0122e-15)
(16.4368 -21.2611 2.87188e-16)
(19.8075 -22.2382 2.86878e-16)
(9.84212 -11.317 -5.56967e-15)
(4.30231 -2.19987 3.12306e-15)
(4.4687 -4.68319 -4.38519e-15)
(6.12931 -6.40149 0)
(7.78045 -8.21701 0)
(9.55191 -10.2378 0)
(11.9838 -12.3992 -1.53873e-15)
(13.751 -15.2114 5.77088e-15)
(17.701 -20.135 0)
(21.5199 -20.5797 0)
(10.715 -10.6937 0)
(4.05247 -2.55418 -3.09301e-15)
(4.67619 -4.4623 -4.55988e-15)
(6.3562 -6.11569 0)
(8.14936 -7.81584 2.64225e-15)
(10.0088 -9.73944 -1.97673e-15)
(12.5569 -11.7447 1.60741e-15)
(14.4042 -14.3363 2.57193e-15)
(18.5975 -19.5029 -8.44974e-17)
(22.6137 -19.7647 7.70572e-16)
(11.0161 -10.058 0)
(3.69925 -2.72387 1.61658e-16)
(5.26717 -4.11064 -1.74822e-18)
(6.97422 -5.49909 0)
(8.8125 -7.08428 8.49035e-17)
(10.6983 -8.95033 4.28989e-15)
(13.3315 -10.858 -3.12946e-15)
(15.2556 -13.1458 -7.49112e-15)
(19.6113 -18.5164 -4.01372e-15)
(23.6119 -19.044 7.11917e-15)
(11.4207 -9.77118 5.82784e-15)
(3.93893 -2.8788 -1.04633e-14)
(5.61689 -3.82634 4.16471e-15)
(7.36414 -5.00754 0)
(9.23836 -6.38838 -5.29528e-15)
(11.203 -8.05155 -4.2138e-15)
(13.978 -9.80052 6.71155e-15)
(16.006 -11.7 2.7932e-15)
(20.5826 -16.6248 0)
(25.0331 -17.086 -4.30727e-15)
(12.355 -9.28601 -6.00594e-16)
(4.37781 -2.8573 -1.9732e-16)
(5.98567 -3.55707 3.96949e-15)
(7.73083 -4.5484 0)
(9.64602 -5.72158 1.03177e-14)
(11.6854 -7.18959 -4.80368e-17)
(14.5709 -8.74318 -1.05814e-16)
(16.7497 -10.3011 5.94575e-15)
(21.5396 -14.9248 -4.08033e-15)
(26.3035 -15.1429 -4.03883e-15)
(13.2165 -8.59018 0)
(4.85685 -2.57243 -2.40514e-15)
(6.37313 -3.15395 7.54715e-15)
(8.09368 -3.99038 6.24633e-15)
(10.0304 -4.98766 -7.25628e-15)
(12.1332 -6.26638 -1.2409e-14)
(15.109 -7.61222 -3.16189e-16)
(17.4027 -8.81358 -3.1058e-15)
(22.3835 -13.0608 -2.19428e-15)
(27.4105 -13.075 -4.77977e-15)
(14.0351 -7.78365 -6.51525e-15)
(5.21906 -2.14504 -6.55351e-15)
(6.70583 -2.6594 3.44427e-15)
(8.41589 -3.37268 -2.66087e-15)
(10.3741 -4.22337 -7.2349e-15)
(12.5438 -5.32413 5.7082e-15)
(15.5998 -6.45197 -3.35754e-16)
(17.9971 -7.32409 5.83064e-15)
(23.1412 -11.1318 2.41929e-15)
(28.3006 -10.8965 2.82265e-15)
(14.779 -6.85036 5.37992e-16)
(5.45356 -1.63853 1.83201e-15)
(6.95537 -2.10308 -1.60834e-15)
(8.66817 -2.71432 -6.52376e-17)
(10.6591 -3.43557 6.96287e-15)
(12.9167 -4.36484 -9.85656e-15)
(16.0619 -5.2516 3.15065e-15)
(18.5364 -5.80188 -3.05548e-15)
(23.8277 -9.10107 6.4597e-15)
(28.9407 -8.57429 0)
(15.3551 -5.72389 1.30529e-16)
(5.5755 -1.09023 1.82504e-15)
(7.10442 -1.51358 1.55703e-15)
(8.81705 -2.04694 2.72103e-15)
(10.8578 -2.66914 -4.46387e-15)
(13.2499 -3.43272 1.85597e-15)
(16.5006 -4.05792 0)
(19.0846 -4.29468 -1.38121e-15)
(24.4795 -7.01394 -4.34302e-15)
(29.3742 -6.01834 -1.70948e-17)
(15.5288 -4.20645 5.64575e-15)
(5.56966 -0.525275 7.82659e-16)
(7.09518 -0.943405 0)
(8.80932 -1.47558 1.32076e-15)
(10.9347 -2.04223 1.21544e-15)
(13.5035 -2.61053 8.08486e-17)
(16.8832 -3.01746 -7.5445e-16)
(19.6794 -2.81928 1.36514e-15)
(25.2504 -4.98694 0)
(29.7142 -3.15682 1.80481e-15)
(15.6458 -2.31378 4.70182e-15)
(5.44528 -0.0724343 8.039e-16)
(6.87751 -0.523475 -1.49517e-15)
(8.5656 -1.0377 -1.21369e-16)
(10.8409 -1.49213 4.74583e-16)
(13.6452 -1.84156 -5.81312e-17)
(17.223 -2.05132 7.26331e-16)
(20.2765 -1.39508 -1.22407e-15)
(25.9511 -3.00195 4.74356e-17)
(30.459 -1.0991 1.30997e-15)
(16.3351 -1.07713 -3.21537e-15)
(4.9032 0.158777 1.13613e-29)
(6.38216 -0.15387 0)
(8.3357 -0.418468 0)
(10.9083 -0.598138 -5.87785e-16)
(13.9811 -0.702201 0)
(17.6414 -0.601644 0)
(21.3919 -0.258416 6.21771e-16)
(26.6039 -0.851569 0)
(29.9275 -0.229091 0)
(12.4699 3.72442 -1.37027e-29)
(0.950078 -1.46643 9.87874e-16)
(1.83471 -1.83393 -5.60554e-15)
(2.68478 -2.21418 5.53949e-15)
(3.35501 -2.01994 -7.78933e-15)
(3.82065 -1.60523 4.99934e-15)
(4.07797 -1.14417 -9.0526e-15)
(4.17077 -0.64052 2.04439e-15)
(4.13977 -0.129788 -1.91804e-15)
(4.01421 0.322319 0)
(3.59252 0.529456 -2.00895e-16)
(-0.888355 -1.12783 1.35101e-14)
(-0.302906 -1.37086 0)
(0.856169 -1.79926 5.77759e-15)
(1.70537 -1.60133 -2.49091e-15)
(2.31577 -1.16876 -8.37009e-15)
(2.66001 -0.703369 0)
(2.80067 -0.222285 -2.23626e-15)
(2.80297 0.25819 -8.28775e-16)
(2.6623 0.704687 5.39131e-16)
(2.40928 0.960207 -2.28405e-16)
(-1.43324 -1.13503 -1.10986e-14)
(-1.70439 -1.33124 0)
(-0.782332 -1.5301 5.10706e-15)
(0.0676172 -1.19319 4.15748e-16)
(0.742309 -0.728863 7.12737e-15)
(1.17489 -0.191138 -3.36775e-15)
(1.42489 0.200482 0)
(1.52042 0.61609 2.46226e-15)
(1.47438 0.975604 -3.4393e-16)
(1.37155 1.25528 2.80494e-16)
(-1.19121 -0.947197 5.16371e-15)
(-2.17511 -1.19858 -1.61198e-15)
(-1.91768 -1.37203 3.6907e-15)
(-1.37118 -1.01144 -4.08584e-15)
(-0.787072 -0.472571 4.44386e-16)
(-0.35312 0.170824 2.77794e-15)
(-0.063356 0.617125 -7.74002e-15)
(0.0811516 0.986874 1.28956e-15)
(0.14509 1.23709 1.78138e-15)
(0.121716 1.43873 5.35045e-17)
(-0.735568 -0.68205 -7.74562e-15)
(-1.96105 -0.860027 4.80498e-15)
(-2.30848 -1.0536 0)
(-2.19382 -0.723025 1.48671e-15)
(-1.90189 -0.224263 1.57704e-15)
(-1.56008 0.306998 -1.91758e-16)
(-1.26879 0.754394 1.27802e-15)
(-1.0495 1.05342 2.34417e-15)
(-0.89023 1.23543 -3.51405e-17)
(-0.781462 1.36534 1.82186e-16)
(-0.332381 -0.425841 -3.12697e-15)
(-1.39448 -0.471481 3.78033e-15)
(-2.02534 -0.644571 1.38153e-15)
(-2.27418 -0.408397 -2.23094e-15)
(-2.2488 -0.00674181 -1.33814e-15)
(-2.12424 0.430176 -2.27215e-16)
(-1.93508 0.813895 -2.1452e-15)
(-1.72355 1.04806 6.68678e-16)
(-1.52145 1.17366 1.2607e-16)
(-1.34196 1.2482 -1.83714e-16)
(-0.0464832 -0.223392 0)
(-0.787416 -0.130992 -1.31076e-15)
(-1.36721 -0.241006 4.18169e-16)
(-1.83183 -0.102555 -5.06821e-16)
(-2.02574 0.158165 7.98351e-16)
(-2.0517 0.459326 0)
(-1.97224 0.726522 4.86521e-16)
(-1.82411 0.879564 6.24094e-16)
(-1.63186 0.956958 -5.01339e-16)
(-1.4365 1.00696 -2.15805e-17)
(0.112016 -0.0716192 0)
(-0.320707 0.121674 -2.45646e-16)
(-0.687204 0.0725416 1.80376e-15)
(-1.10806 0.132959 -1.2642e-15)
(-1.38306 0.247452 0)
(-1.50823 0.393988 -1.22885e-16)
(-1.51363 0.527241 -3.59797e-16)
(-1.42566 0.590132 3.36754e-16)
(-1.29668 0.623321 2.19645e-16)
(-1.12473 0.653015 -8.19019e-17)
(0.194659 0.0189836 -7.42509e-16)
(0.0175232 0.302296 2.44867e-16)
(-0.197251 0.219878 2.16403e-16)
(-0.482469 0.175235 -1.87265e-16)
(-0.691449 0.162009 0)
(-0.802881 0.178974 1.40654e-16)
(-0.822007 0.209051 3.46565e-17)
(-0.760059 0.239159 -6.07924e-18)
(-0.654803 0.307191 -1.37668e-18)
(-0.526956 0.342609 -4.67954e-18)
(0.559471 0.402339 -1.56318e-16)
(0.807012 0.674479 1.14172e-17)
(0.870004 0.574079 -7.87835e-18)
(0.842546 0.470607 0)
(0.788299 0.40799 1.39615e-17)
(0.738083 0.38571 0)
(0.711775 0.391128 8.99052e-17)
(0.725785 0.426587 -4.76757e-17)
(0.774737 0.504883 1.13065e-17)
(0.863574 0.41368 -5.69148e-19)
)
;

boundaryField
{
    right
    {
        type            cyclic;
    }
    left
    {
        type            cyclic;
    }
    outerWall
    {
        type            noSlip;
    }
    stirrerWall
    {
        type            noSlip;
    }
    top
    {
        type            empty;
    }
    bottom
    {
        type            empty;
    }
}


// ************************************************************************* //
