/*--------------------------------*- C++ -*----------------------------------*\
  =========                 |
  \\      /  F ield         | OpenFOAM: The Open Source CFD Toolbox
   \\    /   O peration     | Website:  https://openfoam.org
    \\  /    A nd           | Version:  10
     \\/     M anipulation  |
\*---------------------------------------------------------------------------*/
FoamFile
{
    format      ascii;
    class       volScalarField;
    location    "2000";
    object      k;
}
// * * * * * * * * * * * * * * * * * * * * * * * * * * * * * * * * * * * * * //

dimensions      [0 2 -2 0 0 0 0];

internalField   nonuniform List<scalar> 
17969
(
1.25626e-07
3.37877e-06
9.53096e-06
2.75767e-05
5.63545e-05
8.34924e-05
0.00010494
0.00012171
0.000135152
0.000146229
0.000155568
0.000163577
0.00017053
0.000176612
0.000181955
0.000186651
0.000190771
0.000194429
0.00019772
0.000200652
0.000203221
0.000205435
0.000207309
0.000208865
0.000210135
0.000211153
0.000211954
0.000212572
0.000213035
0.000213363
0.000213569
0.000213652
0.000213603
0.000213402
0.000213017
0.000212415
0.000211548
0.000210386
0.000208929
0.0002072
0.000205239
0.000203095
0.00020082
0.000198461
0.000196056
0.000193623
0.000191173
0.000188707
0.000186227
0.000183745
0.000181286
0.000178885
0.00017659
0.000174454
0.00017253
0.000170868
0.00016951
0.000168486
0.00016782
0.000167523
0.0001676
0.000168048
0.000168858
0.000170016
0.000171497
0.00017327
0.000175295
0.000177518
0.000179883
0.000182318
0.000184742
0.000187102
0.000189426
0.000191601
0.000193128
0.000193838
0.000194497
0.000195521
0.000196821
0.000198237
0.000199709
0.000201225
0.000202788
0.000204405
0.000206076
0.000207798
0.000209585
0.000211442
0.000213376
0.000215388
0.000217479
0.000219645
0.000221884
0.000224191
0.000226565
0.000229002
0.000231504
0.00023407
0.000236704
0.00023942
1.28049e-07
3.45258e-06
9.75146e-06
2.80078e-05
5.69482e-05
8.4095e-05
0.000105507
0.000122255
0.000135701
0.000146809
0.000156204
0.000164288
0.000171332
0.000177514
0.000182962
0.000187764
0.000192027
0.000195886
0.00019939
0.00020251
0.000205235
0.000207565
0.00020951
0.000211093
0.000212345
0.000213304
0.000214009
0.000214496
0.000214798
0.000214939
0.000214933
0.000214786
0.000214493
0.000214038
0.000213403
0.000212561
0.000211488
0.000210141
0.0002085
0.000206591
0.000204465
0.000202177
0.000199783
0.000197331
0.000194855
0.000192376
0.0001899
0.000187428
0.000184963
0.000182517
0.000180114
0.000177788
0.000175584
0.000173549
0.000171731
0.000170171
0.000168903
0.00016795
0.00016733
0.000167049
0.00016711
0.000167512
0.000168248
0.000169309
0.000170679
0.000172338
0.000174258
0.000176403
0.000178729
0.000181185
0.000183701
0.000186175
0.000188483
0.000190542
0.000192324
0.000193799
0.000195117
0.000196547
0.000198154
0.000199892
0.000201718
0.000203612
0.000205565
0.000207572
0.000209631
0.000211744
0.000213914
0.000216142
0.000218425
0.000220761
0.000223146
0.000225577
0.000228049
0.000230558
0.0002331
0.000235671
0.000238266
0.000240877
0.000243495
0.0002461
1.26372e-07
3.41534e-06
9.60413e-06
2.75747e-05
5.63437e-05
8.35402e-05
0.00010508
0.000121961
0.000135527
0.000146743
0.000156234
0.00016441
0.000171539
0.000177804
0.000183327
0.000188195
0.000192595
0.000196657
0.000200344
0.000203627
0.000206489
0.00020892
0.000210927
0.000212527
0.00021375
0.000214634
0.000215221
0.000215555
0.000215672
0.000215605
0.000215376
0.000214996
0.000214467
0.000213784
0.000212932
0.000211896
0.000210656
0.000209193
0.000207462
0.000205467
0.000203265
0.000200919
0.000198487
0.000196019
0.000193551
0.000191099
0.00018867
0.000186265
0.000183885
0.000181542
0.000179256
0.000177061
0.000174994
0.000173098
0.000171412
0.00016997
0.000168798
0.000167912
0.000167323
0.000167035
0.000167048
0.00016736
0.000167966
0.000168859
0.00017003
0.000171466
0.000173147
0.000175047
0.000177132
0.000179361
0.000181681
0.000184026
0.000186307
0.000188422
0.000190329
0.00019213
0.000193973
0.000195928
0.000197985
0.00020012
0.000202314
0.000204558
0.000206846
0.000209171
0.000211531
0.000213925
0.000216351
0.000218803
0.00022128
0.000223776
0.000226288
0.000228812
0.000231343
0.000233878
0.000236412
0.00023894
0.000241457
0.000243956
0.00024643
0.000248871
1.26462e-07
3.42401e-06
9.60957e-06
2.74862e-05
5.61482e-05
8.32489e-05
0.000104718
0.000121557
0.000135106
0.000146321
0.000155827
0.000164026
0.000171188
0.000177491
0.000183057
0.000187997
0.0001925
0.00019668
0.00020049
0.000203897
0.000206877
0.000209411
0.000211493
0.000213131
0.000214349
0.00021518
0.000215669
0.000215861
0.000215802
0.000215531
0.000215081
0.000214473
0.00021372
0.000212823
0.000211778
0.000210574
0.000209197
0.000207631
0.000205828
0.00020379
0.00020157
0.000199234
0.000196838
0.000194431
0.000192045
0.000189697
0.000187389
0.00018512
0.000182889
0.000180705
0.000178585
0.000176558
0.000174657
0.000172918
0.000171375
0.000170055
0.000168979
0.000168158
0.000167598
0.000167301
0.000167266
0.00016749
0.000167969
0.000168701
0.000169679
0.000170898
0.000172344
0.000174
0.000175842
0.00017784
0.000179956
0.000182148
0.000184368
0.000186578
0.000188771
0.00019098
0.000193242
0.000195574
0.000197964
0.000200396
0.000202859
0.000205344
0.000207845
0.000210356
0.000212874
0.000215395
0.000217915
0.000220429
0.000222933
0.000225425
0.000227901
0.000230357
0.00023279
0.000235198
0.000237577
0.000239925
0.000242238
0.000244515
0.000246753
0.00024895
0.000251106
0.000253221
0.000255295
0.000257333
1.26012e-07
3.42045e-06
9.58583e-06
2.73315e-05
5.58493e-05
8.28378e-05
0.000104217
0.000120986
0.000134482
0.000145657
0.000155133
0.000163314
0.000170465
0.000176766
0.000182337
0.000187301
0.000191847
0.00019608
0.000199957
0.000203445
0.000206514
0.000209139
0.000211304
0.000213005
0.000214254
0.000215077
0.000215513
0.000215609
0.000215416
0.000214979
0.000214341
0.000213533
0.000212578
0.000211488
0.000210266
0.000208909
0.000207406
0.000205744
0.000203881
0.000201816
0.0001996
0.000197297
0.000194966
0.000192651
0.000190383
0.000188173
0.000186022
0.000183923
0.000181872
0.000179873
0.00017794
0.000176095
0.000174368
0.000172789
0.000171387
0.000170184
0.000169197
0.000168435
0.000167901
0.000167596
0.000167518
0.000167665
0.000168037
0.000168632
0.000169452
0.000170493
0.000171753
0.000173223
0.00017489
0.000176736
0.00017874
0.000180878
0.000183126
0.000185475
0.000187915
0.000190421
0.000192971
0.000195558
0.000198167
0.000200784
0.000203396
0.000205996
0.000208576
0.000211134
0.000213663
0.00021616
0.000218622
0.000221045
0.000223428
0.00022577
0.000228069
0.000230324
0.000232535
0.000234702
0.000236826
0.000238906
0.000240945
0.000242944
0.000244905
0.00024683
0.000248723
0.000250587
0.000252427
0.000254247
1.24972e-07
3.40105e-06
9.5226e-06
2.70804e-05
5.53954e-05
8.22425e-05
0.000103513
0.000120196
0.000133621
0.000144737
0.000154162
0.0001623
0.000169416
0.000175689
0.00018124
0.000186189
0.000190728
0.000194965
0.000198861
0.000202384
0.000205505
0.000208197
0.000210434
0.000212205
0.00021351
0.000214363
0.000214796
0.000214851
0.00021458
0.000214032
0.000213258
0.000212296
0.00021118
0.000209929
0.000208555
0.000207062
0.000205443
0.000203691
0.000201772
0.000199682
0.00019747
0.000195201
0.000192934
0.000190713
0.000188566
0.0001865
0.000184511
0.000182589
0.000180724
0.000178914
0.000177168
0.000175503
0.000173944
0.000172516
0.000171243
0.000170145
0.000169236
0.000168524
0.00016801
0.000167695
0.000167578
0.000167659
0.000167938
0.00016842
0.00016911
0.000170012
0.00017113
0.000172466
0.000174016
0.000175773
0.000177727
0.000179865
0.000182176
0.000184654
0.000187281
0.000189993
0.000192733
0.000195479
0.000198212
0.000200913
0.00020357
0.000206177
0.000208727
0.000211214
0.000213636
0.000215991
0.000218277
0.000220495
0.000222647
0.000224735
0.000226763
0.000228733
0.000230649
0.000232516
0.000234337
0.000236117
0.000237861
0.000239574
0.00024126
0.000242925
0.000244574
0.000246211
0.000247843
0.000249473
1.23191e-07
3.36183e-06
9.40732e-06
2.67001e-05
5.47294e-05
8.1396e-05
0.000102542
0.000119129
0.000132475
0.000143523
0.000152891
0.000160976
0.000168046
0.000174279
0.000179798
0.000184711
0.000189211
0.000193418
0.000197297
0.000200819
0.000203961
0.000206692
0.000208987
0.000210828
0.000212204
0.000213118
0.000213591
0.000213658
0.000213364
0.000212762
0.000211905
0.00021084
0.000209606
0.000208232
0.000206737
0.000205129
0.000203411
0.000201577
0.000199607
0.000197493
0.000195277
0.00019303
0.000190813
0.000188669
0.000186625
0.000184686
0.000182844
0.000181085
0.000179392
0.000177759
0.000176188
0.000174689
0.000173282
0.000171988
0.000170827
0.000169817
0.000168971
0.000168295
0.000167792
0.000167461
0.000167303
0.000167319
0.000167512
0.000167891
0.000168465
0.000169248
0.000170248
0.000171476
0.000172936
0.00017463
0.000176555
0.000178703
0.000181066
0.000183638
0.00018639
0.000189231
0.000192082
0.000194912
0.000197693
0.000200404
0.000203035
0.000205576
0.00020802
0.000210362
0.000212602
0.00021474
0.00021678
0.000218726
0.000220586
0.000222367
0.000224077
0.000225724
0.000227317
0.000228864
0.000230372
0.000231851
0.000233306
0.000234745
0.000236173
0.000237597
0.000239023
0.000240454
0.000241897
0.000243355
0.000244832
1.20666e-07
3.30217e-06
9.23689e-06
2.61813e-05
5.3832e-05
8.02708e-05
0.000101271
0.00011775
0.00013101
0.000141987
0.000151292
0.000159324
0.000166346
0.000172538
0.000178022
0.000182889
0.000187332
0.000191487
0.000195322
0.000198815
0.000201946
0.000204691
0.000207026
0.000208929
0.000210385
0.000211386
0.00021194
0.000212068
0.00021181
0.000211211
0.000210327
0.000209209
0.000207902
0.000206443
0.000204857
0.00020316
0.000201359
0.000199457
0.000197441
0.000195301
0.000193075
0.000190835
0.000188647
0.000186556
0.000184588
0.000182749
0.000181029
0.000179407
0.000177865
0.000176387
0.000174969
0.000173617
0.000172341
0.000171159
0.000170089
0.000169146
0.000168344
0.000167689
0.000167183
0.000166828
0.000166623
0.000166569
0.000166674
0.000166948
0.000167408
0.000168071
0.000168955
0.000170076
0.000171446
0.000173072
0.000174955
0.000177092
0.000179473
0.000182091
0.000184904
0.000187806
0.000190705
0.00019356
0.000196337
0.000199016
0.00020158
0.000204019
0.000206324
0.00020849
0.000210519
0.000212415
0.000214186
0.000215841
0.000217392
0.000218853
0.000220237
0.000221557
0.000222826
0.000224056
0.000225259
0.000226445
0.000227623
0.000228801
0.000229985
0.000231181
0.000232393
0.000233627
0.000234886
0.000236174
0.000237495
0.00023885
0.000240242
1.17449e-07
3.22289e-06
9.01152e-06
2.55234e-05
5.26963e-05
7.88518e-05
9.96782e-05
0.000116034
0.000129199
0.000140098
0.000149338
0.000157314
0.000164287
0.000170437
0.000175886
0.000180722
0.000185116
0.000189204
0.000192979
0.000196423
0.000199519
0.00020225
0.0002046
0.000206548
0.000208078
0.000209178
0.000209841
0.000210078
0.00020991
0.000209377
0.000208527
0.000207411
0.000206081
0.000204578
0.000202936
0.000201177
0.000199316
0.000197359
0.000195307
0.000193143
0.0001909
0.000188654
0.000186475
0.000184411
0.000182492
0.000180723
0.000179094
0.000177582
0.000176162
0.000174815
0.000173527
0.000172296
0.000171128
0.000170034
0.000169032
0.000168134
0.000167355
0.000166702
0.000166178
0.000165785
0.000165522
0.000165391
0.0001654
0.000165562
0.000165897
0.000166429
0.000167182
0.000168179
0.000169437
0.000170969
0.000172779
0.000174863
0.000177215
0.000179821
0.000182632
0.000185535
0.000188428
0.000191265
0.00019401
0.000196636
0.000199124
0.000201457
0.000203625
0.000205626
0.00020746
0.000209134
0.000210659
0.000212048
0.000213319
0.000214488
0.000215572
0.00021659
0.000217558
0.000218491
0.000219403
0.000220308
0.000221217
0.000222139
0.00022308
0.000224045
0.000225036
0.000226059
0.000227118
0.000228217
0.000229358
0.000230545
0.000231779
0.000233059
1.13684e-07
3.12693e-06
8.73596e-06
2.47339e-05
5.13225e-05
7.71291e-05
9.77461e-05
0.000113956
0.00012701
0.000137821
0.00014699
0.000154908
0.000161834
0.000167947
0.000173367
0.000178181
0.000182534
0.000186561
0.000190281
0.000193672
0.000196724
0.000199424
0.000201764
0.000203731
0.000205314
0.000206501
0.000207282
0.000207653
0.000207624
0.000207215
0.000206463
0.000205415
0.000204119
0.000202624
0.000200968
0.000199182
0.000197287
0.000195296
0.000193219
0.000191038
0.000188779
0.000186521
0.000184336
0.000182278
0.000180381
0.000178653
0.000177085
0.000175652
0.000174327
0.000173083
0.0001719
0.000170768
0.000169687
0.000168663
0.000167704
0.000166826
0.000166043
0.000165368
0.000164805
0.000164358
0.000164026
0.000163806
0.000163707
0.000163745
0.00016394
0.000164322
0.000164921
0.000165764
0.000166876
0.000168273
0.000169964
0.000171946
0.000174212
0.000176746
0.000179497
0.000182344
0.000185187
0.000187977
0.000190673
0.000193243
0.00019566
0.000197905
0.000199968
0.000201844
0.000203534
0.000205046
0.000206393
0.000207591
0.000208657
0.000209613
0.000210477
0.000211271
0.000212014
0.000212719
0.000213396
0.000214055
0.000214707
0.000215365
0.000216037
0.00021673
0.000217451
0.000218207
0.000219007
0.000219858
0.000220764
0.000221728
0.000222753
0.000223838
0.000224981
0.00022618
1.09659e-07
3.02201e-06
8.42826e-06
2.38456e-05
4.97414e-05
7.51171e-05
9.54711e-05
0.000111496
0.000124407
0.000135105
0.000144186
0.000152037
0.000158915
0.000164993
0.000170392
0.000175195
0.000179519
0.000183502
0.000187187
0.000190546
0.000193566
0.000196239
0.000198559
0.000200525
0.000202135
0.000203383
0.000204264
0.000204771
0.0002049
0.000204658
0.000204064
0.00020315
0.000201958
0.000200533
0.000198918
0.000197151
0.000195259
0.000193263
0.000191177
0.000188996
0.000186737
0.000184468
0.000182269
0.000180201
0.000178303
0.000176589
0.000175052
0.00017367
0.000172412
0.000171245
0.000170145
0.000169094
0.00016808
0.000167098
0.000166158
0.000165279
0.000164473
0.000163753
0.000163128
0.000162603
0.000162181
0.00016186
0.000161642
0.000161539
0.000161576
0.000161784
0.000162197
0.00016285
0.000163772
0.000164987
0.000166507
0.000168332
0.000170455
0.000172861
0.000175495
0.000178242
0.000181001
0.000183719
0.000186351
0.00018886
0.000191217
0.000193402
0.000195402
0.00019721
0.000198829
0.000200268
0.000201539
0.000202661
0.000203654
0.000204536
0.000205318
0.000206008
0.000206626
0.000207191
0.000207721
0.000208207
0.000208647
0.000209041
0.000209396
0.000209735
0.000210094
0.000210496
0.000210957
0.000211487
0.000212093
0.000212777
0.00021354
0.000214379
0.000215291
0.000216274
0.000217322
0.000218433
0.0002196
0.000220819
1.05621e-07
2.91536e-06
8.10751e-06
2.29073e-05
4.80297e-05
7.29025e-05
9.29411e-05
0.000108739
0.000121493
0.000132084
0.000141085
0.000148874
0.000155706
0.000161751
0.00016713
0.000171925
0.000176217
0.00018015
0.000183806
0.000187148
0.000190154
0.000192812
0.000195116
0.000197069
0.000198675
0.000199942
0.000200873
0.000201471
0.000201732
0.000201659
0.000201252
0.000200526
0.000199505
0.000198222
0.000196717
0.000195029
0.000193192
0.000191233
0.000189173
0.000187021
0.000184784
0.000182518
0.000180307
0.00017822
0.000176303
0.000174578
0.000173045
0.000171684
0.000170463
0.000169348
0.000168307
0.000167313
0.000166341
0.000165382
0.000164446
0.000163548
0.000162703
0.000161922
0.000161217
0.000160594
0.000160058
0.000159613
0.00015926
0.000159001
0.000158861
0.000158878
0.000159089
0.000159532
0.000160238
0.000161235
0.000162537
0.000164151
0.00016607
0.000168281
0.000170736
0.000173325
0.000175949
0.000178557
0.000181099
0.000183536
0.000185839
0.000187983
0.000189954
0.000191747
0.000193365
0.000194818
0.00019612
0.000197285
0.000198323
0.000199252
0.000200101
0.000200853
0.00020149
0.00020201
0.000202397
0.000202615
0.000202624
0.000202513
0.000202416
0.00020238
0.000202415
0.000202526
0.000202718
0.00020299
0.000203344
0.000203781
0.0002043
0.000204898
0.000205573
0.000206321
0.00020714
0.000208023
0.000208969
0.000209973
1.01773e-07
2.81272e-06
7.79387e-06
2.19798e-05
4.63068e-05
7.06482e-05
9.03523e-05
0.000105946
0.000118543
0.000128999
0.000137886
0.000145581
0.000152335
0.00015832
0.000163656
0.000168426
0.00017269
0.000176565
0.000180167
0.000183494
0.00018651
0.00018919
0.000191519
0.000193493
0.000195118
0.000196405
0.000197369
0.000198022
0.000198371
0.00019842
0.000198172
0.000197629
0.000196801
0.000195704
0.000194366
0.000192818
0.000191094
0.000189226
0.000187241
0.000185161
0.00018298
0.000180744
0.000178538
0.000176438
0.000174495
0.000172741
0.000171182
0.000169804
0.000168581
0.000167476
0.000166453
0.00016548
0.00016452
0.000163563
0.000162612
0.000161681
0.000160782
0.000159928
0.000159129
0.000158397
0.000157739
0.000157161
0.000156668
0.000156261
0.000155946
0.000155762
0.00015575
0.000155951
0.0001564
0.000157129
0.000158159
0.0001595
0.00016115
0.0001631
0.000165312
0.000167684
0.000170122
0.000172575
0.000174994
0.000177338
0.000179579
0.00018169
0.000183662
0.000185495
0.00018719
0.000188755
0.000190205
0.000191561
0.000192843
0.00019396
0.000194906
0.000195593
0.000195747
0.000195344
0.000194763
0.000194252
0.000193926
0.000193778
0.000193745
0.00019379
0.00019387
0.00019398
0.000194131
0.000194329
0.000194578
0.00019488
0.000195239
0.000195655
0.00019613
0.000196663
0.000197256
0.000197907
0.000198615
0.00019938
9.81943e-08
2.71715e-06
7.50086e-06
2.11058e-05
4.46591e-05
6.84682e-05
8.78562e-05
0.000103205
0.000115601
0.000125888
0.00013463
0.0001422
0.000148849
0.000154748
0.000160017
0.000164743
0.000168986
0.00017279
0.000176278
0.000179543
0.000182551
0.000185265
0.000187656
0.000189703
0.0001914
0.000192751
0.000193774
0.000194485
0.000194905
0.000195047
0.000194921
0.000194534
0.000193887
0.000192988
0.000191848
0.000190487
0.000188929
0.000187204
0.000185339
0.000183364
0.000181275
0.000179107
0.000176937
0.000174841
0.000172881
0.000171096
0.000169502
0.000168094
0.000166849
0.000165733
0.000164708
0.000163735
0.000162772
0.000161797
0.000160812
0.000159829
0.00015886
0.000157918
0.000157015
0.000156164
0.000155372
0.000154647
0.000153996
0.000153422
0.000152928
0.000152525
0.000152268
0.000152198
0.000152354
0.000152772
0.000153478
0.000154487
0.000155804
0.000157429
0.000159332
0.000161426
0.000163623
0.000165873
0.000168128
0.000170345
0.000172499
0.00017457
0.000176556
0.000178461
0.000180297
0.000182086
0.000183826
0.000185357
0.000186558
0.000186957
0.000186387
0.000185536
0.000184898
0.000184616
0.000184562
0.000184707
0.000184981
0.000185297
0.000185589
0.000185853
0.000186092
0.000186316
0.000186537
0.000186759
0.000186983
0.000187212
0.00018745
0.000187701
0.000187971
0.000188267
0.000188593
0.000188956
0.000189361
0.000189814
9.4842e-08
2.62825e-06
7.23189e-06
2.03011e-05
4.31234e-05
6.64178e-05
8.54547e-05
0.000100529
0.000112699
0.000122794
0.000131369
0.000138792
0.000145312
0.000151098
0.000156274
0.000160926
0.000165117
0.000168895
0.000172293
0.000175412
0.000178328
0.000181016
0.000183444
0.00018558
0.000187394
0.000188871
0.000190014
0.000190834
0.000191354
0.000191595
0.000191578
0.000191318
0.000190823
0.000190101
0.000189155
0.000187996
0.000186635
0.000185095
0.000183397
0.000181571
0.000179613
0.000177549
0.00017545
0.000173391
0.000171436
0.000169632
0.000168007
0.000166565
0.000165291
0.000164154
0.000163117
0.000162136
0.000161161
0.000160162
0.000159134
0.000158087
0.000157031
0.000155982
0.000154955
0.000153964
0.000153019
0.000152131
0.000151305
0.000150548
0.000149862
0.00014925
0.000148731
0.000148366
0.0001482
0.00014827
0.000148607
0.000149232
0.000150157
0.000151392
0.000152923
0.000154679
0.000156573
0.000158558
0.000160588
0.000162625
0.000164637
0.000166608
0.000168545
0.000170467
0.000172406
0.000174149
0.000175383
0.000175573
0.000174913
0.000174358
0.000174233
0.000174482
0.000175075
0.00017583
0.000176574
0.000177293
0.000177972
0.000178601
0.000179181
0.00017969
0.000180123
0.000180485
0.000180784
0.000181024
0.000181199
0.000181316
0.00018139
0.00018144
0.000181481
0.000181525
0.000181583
0.000181662
0.000181768
0.000181907
0.000182084
9.15488e-08
2.54106e-06
6.9718e-06
1.95248e-05
4.1629e-05
6.44237e-05
8.3106e-05
9.79003e-05
0.000109839
0.000119733
0.00012813
0.000135395
0.000141772
0.000147432
0.000152496
0.000157053
0.000161167
0.000164888
0.000168253
0.000171291
0.000174059
0.000176619
0.000178984
0.000181131
0.000183029
0.000184645
0.000185954
0.000186949
0.000187633
0.000188026
0.000188149
0.000188025
0.000187673
0.000187107
0.000186336
0.000185367
0.000184209
0.000182874
0.000181378
0.000179733
0.000177933
0.000176005
0.000174014
0.000172028
0.00017011
0.000168314
0.000166674
0.000165206
0.000163904
0.000162745
0.000161693
0.000160704
0.000159721
0.000158701
0.000157631
0.000156515
0.000155363
0.00015419
0.000153016
0.000151859
0.000150736
0.000149659
0.000148638
0.000147679
0.000146787
0.000145962
0.000145207
0.000144542
0.000144035
0.000143731
0.000143665
0.000143864
0.000144348
0.000145139
0.000146235
0.000147579
0.000149101
0.000150749
0.000152482
0.000154259
0.000156038
0.000157779
0.000159466
0.000161073
0.000162418
0.000163055
0.000162936
0.000162951
0.00016337
0.000164265
0.000165338
0.000166432
0.000167584
0.000168758
0.000169916
0.000171049
0.000172085
0.000173009
0.000173834
0.000174557
0.000175082
0.000175355
0.000175409
0.000175323
0.000175169
0.000174994
0.000174821
0.000174664
0.00017453
0.000174422
0.000174343
0.000174293
0.000174269
0.000174271
0.000174298
8.82444e-08
2.45363e-06
6.7147e-06
1.87626e-05
4.01598e-05
6.24468e-05
8.07685e-05
9.52846e-05
0.000106992
0.000116686
0.000124905
0.000132009
0.000138241
0.00014377
0.000148717
0.000153171
0.000157196
0.000160843
0.000164151
0.000167151
0.00016987
0.000172326
0.000174559
0.000176608
0.000178471
0.00018013
0.000181558
0.000182725
0.000183612
0.000184214
0.000184537
0.0001846
0.000184424
0.000184029
0.000183433
0.000182649
0.000181688
0.000180562
0.000179274
0.000177814
0.000176186
0.000174425
0.000172578
0.000170703
0.000168859
0.000167101
0.000165472
0.000163995
0.000162674
0.000161496
0.000160431
0.000159437
0.000158453
0.000157425
0.000156329
0.000155159
0.000153919
0.000152621
0.000151289
0.000149945
0.000148614
0.000147316
0.000146066
0.000144874
0.000143748
0.00014269
0.000141698
0.000140768
0.000139937
0.000139257
0.000138776
0.000138526
0.000138536
0.000138833
0.000139434
0.0001403
0.000141373
0.000142611
0.000143972
0.000145403
0.000146845
0.000148229
0.00014948
0.000150452
0.000150977
0.00015144
0.000152171
0.000153198
0.000154301
0.000155595
0.000157044
0.000158596
0.000160241
0.000161889
0.000163438
0.000164912
0.000166226
0.000166998
0.000167142
0.000166927
0.000166636
0.000166439
0.000166341
0.000166323
0.000166358
0.000166421
0.000166499
0.000166587
0.000166684
0.000166778
0.000166861
0.000166927
0.000166977
0.00016701
0.000167032
8.48767e-08
2.36501e-06
6.46148e-06
1.80178e-05
3.87145e-05
6.0465e-05
7.84128e-05
9.26496e-05
0.000104128
0.000113624
0.000121669
0.000128615
0.000134705
0.000140106
0.000144937
0.000149287
0.000153222
0.000156792
0.000160035
0.000162984
0.000165663
0.000168092
0.00017029
0.00017227
0.000174047
0.000175643
0.000177064
0.000178294
0.000179315
0.000180103
0.000180645
0.000180935
0.000180982
0.000180802
0.000180412
0.000179833
0.00017908
0.000178163
0.000177072
0.000175803
0.00017437
0.000172796
0.00017112
0.000169388
0.000167653
0.000165968
0.000164378
0.000162914
0.000161589
0.000160398
0.000159321
0.000158321
0.000157344
0.000156323
0.000155224
0.00015403
0.000152734
0.00015134
0.000149866
0.000148338
0.000146788
0.000145246
0.000143737
0.000142278
0.000140881
0.000139553
0.000138295
0.000137106
0.000135972
0.000134939
0.000134058
0.000133361
0.000132881
0.000132658
0.000132728
0.000133073
0.000133649
0.000134414
0.000135326
0.000136328
0.000137354
0.000138328
0.000139191
0.000139911
0.000140631
0.000141479
0.000142464
0.000143675
0.000145104
0.00014674
0.000148558
0.000150441
0.000152266
0.000153872
0.000154746
0.00015476
0.000154676
0.000154726
0.000154985
0.000155413
0.000155944
0.000156538
0.000157188
0.000157861
0.000158536
0.000159182
0.000159774
0.000160295
0.000160743
0.000161121
0.000161412
0.000161607
0.000161709
0.000161732
0.000161691
0.000161603
8.12997e-08
2.2699e-06
6.19263e-06
1.72362e-05
3.7209e-05
5.84213e-05
7.60013e-05
8.99659e-05
0.000101222
0.000110527
0.000118403
0.000125198
0.000131151
0.000136428
0.000141148
0.000145399
0.000149246
0.00015274
0.00015592
0.000158817
0.000161456
0.000163857
0.000166036
0.000168007
0.000169781
0.000171365
0.000172766
0.000173988
0.000175036
0.000175907
0.000176585
0.000177058
0.000177321
0.000177374
0.000177222
0.000176879
0.000176358
0.000175658
0.000174775
0.000173715
0.00017249
0.000171121
0.000169636
0.000168073
0.000166477
0.000164897
0.000163377
0.000161951
0.00016064
0.000159448
0.00015836
0.00015735
0.000156374
0.000155365
0.000154277
0.000153087
0.000151778
0.000150341
0.000148779
0.000147111
0.000145368
0.00014359
0.000141815
0.000140073
0.000138384
0.000136756
0.00013519
0.000133686
0.000132238
0.000130874
0.000129622
0.000128505
0.000127556
0.000126829
0.000126374
0.000126198
0.000126267
0.000126545
0.000126994
0.000127566
0.000128211
0.000128883
0.000129559
0.000130258
0.000131042
0.000131977
0.0001331
0.000134423
0.000135924
0.000137585
0.000139202
0.000140476
0.00014106
0.000141202
0.000141456
0.000141999
0.0001428
0.00014392
0.000145241
0.000146647
0.000148052
0.000149418
0.000150721
0.000151938
0.000153092
0.000154213
0.000155228
0.000156049
0.000156636
0.00015702
0.000157246
0.000157349
0.000157358
0.000157289
0.000157157
0.000156973
7.75738e-08
2.16854e-06
5.90267e-06
1.64108e-05
3.56403e-05
5.62955e-05
7.35155e-05
8.7219e-05
9.82636e-05
0.000107387
0.000115101
0.000121752
0.000127575
0.000132735
0.00013735
0.000141506
0.000145269
0.000148691
0.000151809
0.000154656
0.000157257
0.000159631
0.000161795
0.000163762
0.000165543
0.000167144
0.000168574
0.000169834
0.000170926
0.000171855
0.000172618
0.000173211
0.00017363
0.000173871
0.000173933
0.000173814
0.000173514
0.000173033
0.00017237
0.000171534
0.000170534
0.000169386
0.000168112
0.000166743
0.000165315
0.000163871
0.000162453
0.000161096
0.000159825
0.000158648
0.000157558
0.000156535
0.000155546
0.000154539
0.000153455
0.000152267
0.000150959
0.000149518
0.000147935
0.00014621
0.000144356
0.000142404
0.000140395
0.000138378
0.00013639
0.000134452
0.000132568
0.00013072
0.000128912
0.000127196
0.000125586
0.00012409
0.000122731
0.000121557
0.000120631
0.00011998
0.000119584
0.000119419
0.000119457
0.000119667
0.000120016
0.000120482
0.000121037
0.0001217
0.000122493
0.00012343
0.000124496
0.000125643
0.000126799
0.000127849
0.000128566
0.00012894
0.00012943
0.000130257
0.000131512
0.000132983
0.000134497
0.000136106
0.000137809
0.000139568
0.000141288
0.000142979
0.000144671
0.000146182
0.00014735
0.00014821
0.000148867
0.000149406
0.000149874
0.000150289
0.000150653
0.000150963
0.00015121
0.000151391
0.0001515
0.00015154
7.39803e-08
2.06969e-06
5.61741e-06
1.56114e-05
3.40651e-05
5.41233e-05
7.09764e-05
8.44233e-05
9.52631e-05
0.000104212
0.000111774
0.000118289
0.00012399
0.000129039
0.000133554
0.000137622
0.000141307
0.00014466
0.00014772
0.000150519
0.000153082
0.00015543
0.000157578
0.000159541
0.000161329
0.000162951
0.000164412
0.000165717
0.00016687
0.000167872
0.000168723
0.000169423
0.000169969
0.000170358
0.00017059
0.00017066
0.000170562
0.000170295
0.000169857
0.000169253
0.000168489
0.000167577
0.000166532
0.000165379
0.000164147
0.000162872
0.00016159
0.000160336
0.000159135
0.000158001
0.00015693
0.000155905
0.000154897
0.000153868
0.00015277
0.00015156
0.000150224
0.000148757
0.000147157
0.000145421
0.000143549
0.000141543
0.000139419
0.000137208
0.000134956
0.000132711
0.000130502
0.000128333
0.000126217
0.000124146
0.000122145
0.000120279
0.00011856
0.000117017
0.000115704
0.000114661
0.000113886
0.000113365
0.000113083
0.000113019
0.000113153
0.000113467
0.000113922
0.000114513
0.00011523
0.000116048
0.000116921
0.000117771
0.000118496
0.000119013
0.000119557
0.000120335
0.000121341
0.000122482
0.000123818
0.000125316
0.000126943
0.000128651
0.000130371
0.000132091
0.000133662
0.000134801
0.000135627
0.000136376
0.000137175
0.00013804
0.000138961
0.000139925
0.000140905
0.000141868
0.000142789
0.000143646
0.000144418
0.000145087
0.00014564
0.000146075
7.06028e-08
1.97507e-06
5.34089e-06
1.48294e-05
3.24935e-05
5.19328e-05
6.84114e-05
8.16025e-05
9.22427e-05
0.000101024
0.000108441
0.000114827
0.000120413
0.00012536
0.000129783
0.000133767
0.000137379
0.000140668
0.000143674
0.000146428
0.000148955
0.000151277
0.00015341
0.000155368
0.000157162
0.000158801
0.000160291
0.000161638
0.000162846
0.000163917
0.000164852
0.000165651
0.000166313
0.000166836
0.000167218
0.000167456
0.000167545
0.000167481
0.000167262
0.000166889
0.000166363
0.000165694
0.000164891
0.000163971
0.000162958
0.00016188
0.000160767
0.000159652
0.000158558
0.000157501
0.000156481
0.000155482
0.000154475
0.000153423
0.000152286
0.000151031
0.000149628
0.000148077
0.000146391
0.000144585
0.000142669
0.000140648
0.000138522
0.000136284
0.000133936
0.000131499
0.000129019
0.000126547
0.000124128
0.000121762
0.000119484
0.000117288
0.000115212
0.000113345
0.000111725
0.000110387
0.000109339
0.000108569
0.00010807
0.000107825
0.000107815
0.000108018
0.000108384
0.000108877
0.000109465
0.000110107
0.000110762
0.000111395
0.000111989
0.000112567
0.000113209
0.000113988
0.000114924
0.000115998
0.000117187
0.000118464
0.000119758
0.00012098
0.000122012
0.000122835
0.000123609
0.00012447
0.000125447
0.000126535
0.000127751
0.00012908
0.000130478
0.000131897
0.000133328
0.000134749
0.00013611
0.000137372
0.00013851
0.000139516
0.000140387
0.000141125
6.76171e-08
1.89167e-06
5.09714e-06
1.40959e-05
3.0962e-05
4.97589e-05
6.585e-05
7.87832e-05
8.92269e-05
9.78469e-05
0.000105125
0.000111391
0.000116869
0.00012172
0.000126057
0.000129966
0.000133511
0.000136741
0.000139697
0.000142409
0.000144903
0.000147201
0.000149319
0.000151272
0.000153071
0.000154725
0.000156242
0.000157628
0.000158886
0.00016002
0.000161032
0.000161923
0.000162691
0.000163336
0.000163857
0.00016425
0.000164511
0.000164637
0.000164625
0.000164472
0.00016418
0.000163751
0.000163193
0.000162516
0.000161737