/*--------------------------------*- C++ -*----------------------------------*\
  =========                 |
  \\      /  F ield         | OpenFOAM: The Open Source CFD Toolbox
   \\    /   O peration     | Website:  https://openfoam.org
    \\  /    A nd           | Version:  10
     \\/     M anipulation  |
\*---------------------------------------------------------------------------*/
FoamFile
{
    format      ascii;
    class       surfaceScalarField;
    location    "2000";
    object      phi;
}
// * * * * * * * * * * * * * * * * * * * * * * * * * * * * * * * * * * * * * //

dimensions      [0 3 -1 0 0 0 0];

internalField   nonuniform List<scalar> 
35536
(
-2.28296e-09
-3.13272e-07
-6.90118e-09
-1.16124e-07
-1.23099e-08
-8.65394e-08
-1.80124e-08
-7.60739e-08
-2.39152e-08
-6.64939e-08
-2.99972e-08
-6.06261e-08
-3.6246e-08
-5.77974e-08
-4.26536e-08
-5.66806e-08
-4.92176e-08
-5.65254e-08
-5.59373e-08
-5.69563e-08
-6.28127e-08
-5.77812e-08
-6.98431e-08
-5.88965e-08
-7.70269e-08
-6.02444e-08
-8.43613e-08
-6.17912e-08
-9.18421e-08
-6.35168e-08
-9.94675e-08
-6.54049e-08
-1.07234e-07
-6.744e-08
-1.15136e-07
-6.96039e-08
-1.23172e-07
-7.18802e-08
-1.31343e-07
-7.42485e-08
-1.39648e-07
-7.66876e-08
-1.48079e-07
-7.91756e-08
-1.56631e-07
-8.16875e-08
-1.65301e-07
-8.41957e-08
-1.74089e-07
-8.66709e-08
-1.82998e-07
-8.90824e-08
-1.92031e-07
-9.13987e-08
-2.01195e-07
-9.3588e-08
-2.10494e-07
-9.56184e-08
-2.19933e-07
-9.74593e-08
-2.29512e-07
-9.90827e-08
-2.3923e-07
-1.00466e-07
-2.49076e-07
-1.01594e-07
-2.59045e-07
-1.02467e-07
-2.69151e-07
-1.03093e-07
-2.79378e-07
-1.03531e-07
-2.89657e-07
-1.03853e-07
-2.99959e-07
-1.0409e-07
-3.10285e-07
-1.04316e-07
-3.20609e-07
-1.04657e-07
-3.30899e-07
-1.05233e-07
-3.41118e-07
-1.06164e-07
-3.51232e-07
-1.07562e-07
-3.61205e-07
-1.09522e-07
-3.7101e-07
-1.12102e-07
-3.80627e-07
-1.15324e-07
-3.90043e-07
-1.19163e-07
-3.99255e-07
-1.2355e-07
-4.0827e-07
-1.28379e-07
-4.17099e-07
-1.33513e-07
-4.25757e-07
-1.38792e-07
-4.34255e-07
-1.44046e-07
-4.42601e-07
-1.49102e-07
-4.50811e-07
-1.53794e-07
-4.58846e-07
-1.57966e-07
-4.667e-07
-1.61487e-07
-4.74348e-07
-1.64243e-07
-4.81751e-07
-1.66146e-07
-4.8886e-07
-1.67132e-07
-4.95618e-07
-1.67163e-07
-5.01962e-07
-1.66227e-07
-5.07827e-07
-1.64335e-07
-5.13152e-07
-1.61521e-07
-5.17878e-07
-1.5784e-07
-5.21948e-07
-1.53363e-07
-5.25307e-07
-1.48177e-07
-5.27899e-07
-1.42377e-07
-5.29642e-07
-1.36071e-07
-5.30401e-07
-1.29376e-07
-5.29939e-07
-1.22418e-07
-5.27833e-07
-1.15319e-07
-5.24631e-07
-1.08197e-07
-5.23901e-07
-1.03033e-07
-5.28619e-07
-1.0395e-07
-5.35705e-07
-1.02246e-07
-5.45234e-07
-8.96862e-08
-5.56469e-07
-7.38662e-08
-5.67407e-07
-5.94998e-08
-5.77664e-07
-4.66636e-08
-5.87708e-07
-3.4801e-08
-5.97665e-07
-2.38947e-08
-6.07524e-07
-1.39445e-08
-6.17196e-07
-4.96424e-09
-6.26603e-07
3.07822e-09
-6.35704e-07
1.02633e-08
-6.44426e-07
1.66401e-08
-6.52638e-07
2.21865e-08
-6.60246e-07
2.69358e-08
-6.67191e-07
3.09341e-08
-6.73438e-07
3.42383e-08
-6.78966e-07
3.69111e-08
-6.83768e-07
3.90177e-08
-6.87848e-07
4.06228e-08
-6.91218e-07
4.17876e-08
-6.93899e-07
4.25652e-08
-6.9592e-07
4.29973e-08
-6.97323e-07
4.31094e-08
-6.98143e-07
4.29116e-08
-6.98379e-07
4.23968e-08
4.15053e-08
-2.57447e-09
-3.10697e-07
-8.0831e-09
-1.10614e-07
-1.39846e-08
-8.06358e-08
-1.99773e-08
-7.00792e-08
-2.60287e-08
-6.04408e-08
-3.21127e-08
-5.4541e-08
-3.82583e-08
-5.16512e-08
-4.45069e-08
-5.04316e-08
-5.08898e-08
-5.01424e-08
-5.74277e-08
-5.04186e-08
-6.41343e-08
-5.10747e-08
-7.10193e-08
-5.20119e-08
-7.80889e-08
-5.31752e-08
-8.53476e-08
-5.4533e-08
-9.27971e-08
-5.60677e-08
-1.00442e-07
-5.77608e-08
-1.08285e-07
-5.95971e-08
-1.16322e-07
-6.15667e-08
-1.24544e-07
-6.36583e-08
-1.32941e-07
-6.58519e-08
-1.41498e-07
-6.81298e-08
-1.50204e-07
-7.0469e-08
-1.5905e-07
-7.28416e-08
-1.68028e-07
-7.52163e-08
-1.77139e-07
-7.75596e-08
-1.86384e-07
-7.98368e-08
-1.95769e-07
-8.20133e-08
-2.05302e-07
-8.40555e-08
-2.1499e-07
-8.59317e-08
-2.24837e-07
-8.76135e-08
-2.34844e-07
-8.9077e-08
-2.45006e-07
-9.03058e-08
-2.5531e-07
-9.12928e-08
-2.65735e-07
-9.20438e-08
-2.7625e-07
-9.25797e-08
-2.8685e-07
-9.29338e-08
-2.97522e-07
-9.31824e-08
-3.08209e-07
-9.34036e-08
-3.18895e-07
-9.36306e-08
-3.29601e-07
-9.39523e-08
-3.40316e-07
-9.45184e-08
-3.51028e-07
-9.54528e-08
-3.6172e-07
-9.6871e-08
-3.72376e-07
-9.88659e-08
-3.82981e-07
-1.01495e-07
-3.93529e-07
-1.04773e-07
-4.04017e-07
-1.08669e-07
-4.14453e-07
-1.13108e-07
-4.24848e-07
-1.17977e-07
-4.35218e-07
-1.23136e-07
-4.45579e-07
-1.28425e-07
-4.55946e-07
-1.33673e-07
-4.66329e-07
-1.38713e-07
-4.76732e-07
-1.43385e-07
-4.87147e-07
-1.47545e-07
-4.97562e-07
-1.51066e-07
-5.07953e-07
-1.53847e-07
-5.18287e-07
-1.55809e-07
-5.28521e-07
-1.56896e-07
-5.38607e-07
-1.57078e-07
-5.48487e-07
-1.56347e-07
-5.58105e-07
-1.54718e-07
-5.67402e-07
-1.52227e-07
-5.76321e-07
-1.48929e-07
-5.84803e-07
-1.44892e-07
-5.92788e-07
-1.40204e-07
-6.00217e-07
-1.34962e-07
-6.07023e-07
-1.29281e-07
-6.13123e-07
-1.23291e-07
-6.18399e-07
-1.17154e-07
-6.22667e-07
-1.11064e-07
-6.25644e-07
-1.05233e-07
-6.28738e-07
-9.99514e-08
-6.36935e-07
-9.57691e-08
-6.51192e-07
-8.80052e-08
-6.65777e-07
-7.51148e-08
-6.78275e-07
-6.13792e-08
-6.89458e-07
-4.83221e-08
-7.00011e-07
-3.61142e-08
-7.10018e-07
-2.47956e-08
-7.19485e-07
-1.44298e-08
-7.28369e-07
-5.06201e-09
-7.36641e-07
3.30677e-09
-7.44333e-07
1.07722e-08
-7.51427e-07
1.73606e-08
-7.57848e-07
2.30657e-08
-7.63582e-07
2.79246e-08
-7.68633e-07
3.19901e-08
-7.73019e-07
3.53237e-08
-7.7677e-07
3.79908e-08
-7.79916e-07
4.00579e-08
-7.82487e-07
4.15895e-08
-7.84507e-07
4.26459e-08
-7.85998e-07
4.3282e-08
-7.86976e-07
4.35454e-08
-7.87454e-07
4.34763e-08
-7.87452e-07
4.31063e-08
-7.87006e-07
4.24608e-08
-7.86182e-07
4.15615e-08
4.04108e-08
-2.32823e-09
-3.08368e-07
-7.33749e-09
-1.05602e-07
-1.27175e-08
-7.52515e-08
-1.81856e-08
-6.46069e-08
-2.38053e-08
-5.48175e-08
-2.96099e-08
-4.87338e-08
-3.55924e-08
-4.56671e-08
-4.17465e-08
-4.42765e-08
-4.80733e-08
-4.38149e-08
-5.45782e-08
-4.39132e-08
-6.12686e-08
-4.43841e-08
-6.81527e-08
-4.51278e-08
-7.52388e-08
-4.6089e-08
-8.25352e-08
-4.72366e-08
-9.00517e-08
-4.85514e-08
-9.77902e-08
-5.00225e-08
-1.0575e-07
-5.1637e-08
-1.13932e-07
-5.33847e-08
-1.2233e-07
-5.52602e-08
-1.30929e-07
-5.72531e-08
-1.39711e-07
-5.93472e-08
-1.4866e-07
-6.15201e-08
-1.57757e-07
-6.37434e-08
-1.6699e-07
-6.59832e-08
-1.76347e-07
-6.8202e-08
-1.85822e-07
-7.03604e-08
-1.95416e-07
-7.24192e-08
-2.05131e-07
-7.43411e-08
-2.14971e-07
-7.60923e-08
-2.24941e-07
-7.76441e-08
-2.35045e-07
-7.89747e-08
-2.45282e-07
-8.00711e-08
-2.55645e-07
-8.09315e-08
-2.66124e-07
-8.15675e-08
-2.76701e-07
-8.20056e-08
-2.87351e-07
-8.22858e-08
-2.9807e-07
-8.24646e-08
-3.08858e-07
-8.26175e-08
-3.19696e-07
-8.27941e-08
-3.30579e-07
-8.30713e-08
-3.41512e-07
-8.35866e-08
-3.52498e-07
-8.44683e-08
-3.63537e-07
-8.58334e-08
-3.74628e-07
-8.77748e-08
-3.85774e-07
-9.03484e-08
-3.96979e-07
-9.35662e-08
-4.08251e-07
-9.73931e-08
-4.19604e-07
-1.01751e-07
-4.31053e-07
-1.06523e-07
-4.42615e-07
-1.11569e-07
-4.54305e-07
-1.16728e-07
-4.66137e-07
-1.21835e-07
-4.78118e-07
-1.26725e-07
-4.90251e-07
-1.31246e-07
-5.02528e-07
-1.3526e-07
-5.14936e-07
-1.38652e-07
-5.27452e-07
-1.41325e-07
-5.40047e-07
-1.43209e-07
-5.52682e-07
-1.44256e-07
-5.65316e-07
-1.4444e-07
-5.77899e-07
-1.4376e-07
-5.90382e-07
-1.42233e-07
-6.02714e-07
-1.39896e-07
-6.14843e-07
-1.36803e-07
-6.26721e-07
-1.33021e-07
-6.38303e-07
-1.28632e-07
-6.49549e-07
-1.23726e-07
-6.60438e-07
-1.18403e-07
-6.70973e-07
-1.12767e-07
-6.81207e-07
-1.06929e-07
-6.91279e-07
-1.00998e-07
-7.01424e-07
-9.50947e-08
-7.12009e-07
-8.93748e-08
-7.23989e-07
-8.37977e-08
-7.36911e-07
-7.50929e-08
-7.49153e-07
-6.28816e-08
-7.6037e-07
-5.01676e-08
-7.70816e-07
-3.78785e-08
-7.80535e-07
-2.63961e-08
-7.89474e-07
-1.58576e-08
-7.9759e-07
-6.31634e-09
-8.04848e-07
2.19102e-09
-8.11318e-07
9.77141e-09
-8.17005e-07
1.6455e-08
-8.21881e-07
2.22352e-08
-8.25965e-07
2.71496e-08
-8.29292e-07
3.12511e-08
-8.31905e-07
3.46009e-08
-8.33849e-07
3.72636e-08
-8.35167e-07
3.93042e-08
-8.359e-07
4.07857e-08
-8.36081e-07
4.17676e-08
-8.35743e-07
4.23051e-08
-8.34911e-07
4.24488e-08
-8.33614e-07
4.22446e-08
-8.31878e-07
4.17342e-08
-8.29735e-07
4.09549e-08
-8.27227e-07
3.99408e-08
-8.24397e-07
3.87226e-08
3.73259e-08
-2.33192e-09
-3.06036e-07
-7.2899e-09
-1.00643e-07
-1.25513e-08
-6.99876e-08
-1.79048e-08
-5.92509e-08
-2.33971e-08
-4.93231e-08
-2.90535e-08
-4.30757e-08
-3.48743e-08
-3.98453e-08
-4.08617e-08
-3.82884e-08
-4.70217e-08
-3.76545e-08
-5.33622e-08
-3.75725e-08
-5.98921e-08
-3.78539e-08
-6.66214e-08
-3.83983e-08
-7.35607e-08
-3.91496e-08
-8.0721e-08
-4.00763e-08
-8.81129e-08
-4.11596e-08
-9.57469e-08
-4.23884e-08
-1.03632e-07
-4.37523e-08
-1.11766e-07
-4.52499e-08
-1.20146e-07
-4.68809e-08
-1.28759e-07
-4.86392e-08
-1.37593e-07
-5.05132e-08
-1.46628e-07
-5.24845e-08
-1.55844e-07
-5.45274e-08
-1.65217e-07
-5.66092e-08
-1.74728e-07
-5.86913e-08
-1.84356e-07
-6.07313e-08
-1.94089e-07
-6.2686e-08
-2.03917e-07
-6.45133e-08
-2.13834e-07
-6.61755e-08
-2.23839e-07
-6.76407e-08
-2.3393e-07
-6.88852e-08
-2.44108e-07
-6.98953e-08
-2.54372e-07
-7.06693e-08
-2.64722e-07
-7.12196e-08
-2.75157e-07
-7.15734e-08
-2.85673e-07
-7.17718e-08
-2.96269e-07
-7.18706e-08
-3.06944e-07
-7.19444e-08
-3.177e-07
-7.204e-08
-3.28544e-07
-7.22293e-08
-3.39489e-07
-7.26438e-08
-3.50544e-07
-7.34147e-08
-3.61721e-07
-7.46584e-08
-3.7303e-07
-7.64669e-08
-3.84483e-07
-7.88952e-08
-3.96094e-07
-8.19537e-08
-4.07879e-07
-8.56058e-08
-4.19854e-07
-8.97721e-08
-4.32037e-07
-9.43369e-08
-4.44442e-07
-9.91589e-08
-4.57083e-07
-1.04081e-07
-4.69969e-07
-1.08942e-07
-4.83105e-07
-1.13582e-07
-4.96487e-07
-1.17856e-07
-5.10107e-07
-1.21633e-07
-5.23949e-07
-1.24802e-07
-5.37991e-07
-1.27276e-07
-5.52204e-07
-1.28989e-07
-5.66554e-07
-1.299e-07
-5.81001e-07
-1.29988e-07
-5.95504e-07
-1.29254e-07
-6.10016e-07
-1.2772e-07
-6.24492e-07
-1.25422e-07
-6.38884e-07
-1.22414e-07
-6.53146e-07
-1.18765e-07
-6.67239e-07
-1.14548e-07
-6.81126e-07
-1.09848e-07
-6.94784e-07
-1.04753e-07
-7.08208e-07
-9.93495e-08
-7.21418e-07
-9.37237e-08
-7.34466e-07
-8.79529e-08
-7.47446e-07
-8.21186e-08
-7.6047e-07
-7.63541e-08
-7.73639e-07
-7.06348e-08
-7.86452e-07
-6.22867e-08
-7.98279e-07
-5.10588e-08
-8.09018e-07
-3.94296e-08
-8.18681e-07
-2.82158e-08
-8.27275e-07
-1.7803e-08
-8.34802e-07
-8.33289e-09
-8.41256e-07
1.33393e-10
-8.46723e-07
7.65285e-09
-8.51245e-07
1.42893e-08
-8.54821e-07
2.00288e-08
-8.57493e-07
2.49054e-08
-8.59314e-07
2.89696e-08
-8.60345e-07
3.22811e-08
-8.60649e-07
3.49031e-08
-8.60288e-07
3.68996e-08
-8.5932e-07
3.83334e-08
-8.57801e-07
3.9264e-08
-8.55784e-07
3.9748e-08
-8.53319e-07
3.9838e-08
-8.50457e-07
3.95831e-08
-8.47245e-07
3.90288e-08
-8.43733e-07
3.82168e-08
-8.39971e-07
3.71856e-08
-8.36008e-07
3.59705e-08
-8.31893e-07
3.46042e-08
-8.27685e-07
3.31174e-08
-8.23439e-07
3.15385e-08
-8.19204e-07
2.98948e-08
-8.15019e-07
2.82095e-08
2.64922e-08
-2.28249e-09
-3.03753e-07
-7.18303e-09
-9.57404e-08
-1.23688e-08
-6.47984e-08
-1.761e-08
-5.40062e-08
-2.29625e-08
-4.39675e-08
-2.84639e-08
-3.75721e-08
-3.41202e-08
-3.41874e-08
-3.99372e-08
-3.24704e-08
-4.59222e-08
-3.16686e-08
-5.20842e-08
-3.14099e-08
-5.84327e-08
-3.1505e-08
-6.49781e-08
-3.18526e-08
-7.17315e-08
-3.23959e-08
-7.87051e-08
-3.31025e-08
-8.59102e-08
-3.39544e-08
-9.33582e-08
-3.49404e-08
-1.01058e-07
-3.6052e-08
-1.09018e-07
-3.72907e-08
-1.17238e-07
-3.86604e-08
-1.25718e-07
-4.01596e-08
-1.34449e-07
-4.1782e-08
-1.43418e-07
-4.35155e-08
-1.52605e-07
-4.53404e-08
-1.61985e-07
-4.72287e-08
-1.71532e-07
-4.91447e-08
-1.81216e-07
-5.10468e-08
-1.91013e-07
-5.28895e-08
-2.00899e-07
-5.46276e-08
-2.10857e-07
-5.62186e-08
-2.20872e-07
-5.76261e-08
-2.30936e-07
-5.88223e-08
-2.41044e-07
-5.97894e-08
-2.51193e-07
-6.05223e-08
-2.61385e-07
-6.10293e-08
-2.71627e-07
-6.13337e-08
-2.81928e-07
-6.14726e-08
-2.92303e-07
-6.14972e-08
-3.02771e-07
-6.14779e-08
-3.13345e-07
-6.14679e-08
-3.24037e-07
-6.15395e-08
-3.34866e-07
-6.18165e-08
-3.45852e-07
-6.24302e-08
-3.57016e-07
-6.34959e-08
-3.68379e-07
-6.51052e-08
-3.79961e-07
-6.73133e-08
-3.91784e-07
-7.01308e-08
-4.03866e-07
-7.35222e-08
-4.16226e-07
-7.74095e-08
-4.2888e-07
-8.16793e-08
-4.41841e-07
-8.61933e-08
-4.55118e-07
-9.07987e-08
-4.68715e-07
-9.53384e-08
-4.82631e-07
-9.96599e-08
-4.96858e-07
-1.03622e-07
-5.11384e-07
-1.071e-07
-5.26191e-07
-1.09989e-07
-5.41256e-07
-1.12206e-07
-5.5655e-07
-1.1369e-07
-5.72042e-07
-1.14405e-07
-5.87693e-07
-1.14333e-07
-6.03464e-07
-1.13481e-07
-6.19311e-07
-1.11872e-07
-6.35186e-07
-1.09547e-07
-6.51041e-07
-1.06562e-07
-6.66826e-07
-1.02984e-07
-6.82489e-07
-9.88884e-08
-6.97985e-07
-9.43572e-08
-7.13267e-07
-8.94735e-08
-7.28295e-07
-8.43209e-08
-7.43037e-07
-7.89795e-08
-7.57466e-07
-7.35211e-08
-7.7156e-07
-6.80223e-08
-7.85305e-07
-6.2609e-08
-7.98673e-07
-5.72686e-08
-8.11186e-07
-4.97757e-08
-8.22372e-07
-3.98716e-08
-8.32197e-07
-2.96025e-08
-8.40676e-07
-1.97338e-08
-8.47851e-07
-1.06291e-08
-8.53765e-07
-2.42341e-09
-8.58493e-07
4.85621e-09
-8.62143e-07
1.12979e-08
-8.64737e-07
1.68808e-08
-8.6634e-07
2.16303e-08
-8.67027e-07
2.5592e-08
-8.6688e-07
2.88214e-08
-8.65979e-07
3.1379e-08
-8.64402e-07
3.33259e-08
-8.62224e-07
3.47225e-08
-8.59518e-07
3.56272e-08
-8.56352e-07
3.60959e-08
-8.52788e-07
3.61818e-08
-8.48886e-07
3.59349e-08
-8.44703e-07
3.54016e-08
-8.40297e-07
3.46245e-08
-8.3572e-07
3.3643e-08
-8.31026e-07
3.24933e-08
-8.26265e-07
3.12087e-08
-8.21483e-07
2.982e-08
-8.16722e-07
2.83552e-08
-8.12023e-07
2.68395e-08
-8.07416e-07
2.52948e-08
-8.02933e-07
2.37393e-08
2.21804e-08
-2.2419e-09
-3.0151e-07
-7.0784e-09
-9.09023e-08
-1.21785e-08
-5.96955e-08
-1.72941e-08
-4.88877e-08
-2.25049e-08
-3.8754e-08
-2.78608e-08
-3.22142e-08
-3.33674e-08
-2.86794e-08
-3.90278e-08
-2.6809e-08
-4.48479e-08
-2.58478e-08
-5.08353e-08
-2.5422e-08
-5.69986e-08
-2.53412e-08
-6.33476e-08
-2.55031e-08
-6.98932e-08
-2.58499e-08
-7.66474e-08
-2.63481e-08
-8.36224e-08
-2.69792e-08
-9.08307e-08
-2.7732e-08
-9.82837e-08
-2.85989e-08
-1.05992e-07
-2.95822e-08
-1.13964e-07
-3.06885e-08
-1.22204e-07
-3.19195e-08
-1.30713e-07
-3.32742e-08
-1.39481e-07
-3.47469e-08
-1.48497e-07
-3.63253e-08
-1.57737e-07
-3.79888e-08
-1.67174e-07
-3.9708e-08
-1.76777e-07
-4.14449e-08
-1.86512e-07
-4.31554e-08
-1.96348e-07
-4.47926e-08
-2.06257e-07
-4.63104e-08
-2.16217e-07
-4.76672e-08
-2.26211e-07
-4.88297e-08
-2.36227e-07
-4.97745e-08
-2.46261e-07
-5.04905e-08
-2.56312e-07
-5.09798e-08
-2.66388e-07
-5.12592e-08
-2.76503e-07
-5.13593e-08
-2.86677e-07
-5.13247e-08
-2.96935e-07
-5.12206e-08
-3.07298e-07
-5.11067e-08
-3.17785e-07
-5.10535e-08
-3.28428e-07
-5.1175e-08
-3.39257e-07
-5.16027e-08
-3.50303e-07
-5.24511e-08
-3.61596e-07
-5.38125e-08
-3.73166e-07
-5.57437e-08
-3.85038e-07
-5.8258e-08
-3.97235e-07
-6.13233e-08
-4.09777e-07
-6.48655e-08
-4.22677e-07
-6.87758e-08
-4.35946e-07
-7.2921e-08
-4.49586e-07
-7.71536e-08
-4.63597e-07
-8.13223e-08
-4.77971e-07
-8.52798e-08
-4.92698e-07
-8.88903e-08
-5.0776e-07
-9.20335e-08
-5.23137e-07
-9.46084e-08
-5.38804e-07
-9.65353e-08
-5.54735e-07
-9.77571e-08
-5.70898e-07
-9.82397e-08
-5.8726e-07
-9.79718e-08
-6.03778e-07
-9.69634e-08
-6.20406e-07
-9.52438e-08
-6.37095e-07
-9.28594e-08
-6.53788e-07
-8.987e-08
-6.70428e-07
-8.63466e-08
-6.86948e-07
-8.23685e-08
-7.03283e-07
-7.80207e-08
-7.19363e-07
-7.339e-08
-7.35115e-07
-6.85623e-08
-7.50465e-07
-6.36207e-08
-7.65337e-07
-5.86405e-08
-7.79653e-07
-5.37001e-08
-7.93335e-07
-4.89214e-08
-8.06302e-07
-4.42949e-08
-8.18083e-07
-3.79883e-08
-8.28272e-07
-2.96746e-08
-8.36885e-07
-2.09827e-08
-8.43972e-07
-1.26422e-08
-8.49609e-07
-4.98997e-09
-8.53879e-07
1.84679e-09
-8.56925e-07
7.90356e-09
-8.5881e-07
1.31858e-08
-8.5962e-07
1.76948e-08
-8.59453e-07
2.14667e-08
-8.58408e-07
2.45512e-08
-8.56585e-07
2.70032e-08
-8.54081e-07
2.88793e-08
-8.50986e-07
3.0235e-08
-8.47387e-07
3.11251e-08
-8.43364e-07
3.16023e-08
-8.38988e-07
3.17173e-08
-8.34325e-07
3.15183e-08
-8.29437e-07
3.10497e-08
-8.24384e-07
3.0353e-08
-8.19221e-07
2.9466e-08
-8.14002e-07
2.84243e-08
-8.08773e-07
2.72608e-08
-8.03574e-07
2.60053e-08
-7.98441e-07
2.46848e-08
-7.93408e-07
2.33228e-08
-7.88505e-07
2.19396e-08
-7.8376e-07
2.05527e-08
-7.79193e-07
1.91762e-08
1.7819e-08
-2.19294e-09
-2.99317e-07
-6.95084e-09
-8.61425e-08
-1.19484e-08
-5.46949e-08
-1.69138e-08
-4.39191e-08
-2.19579e-08
-3.3707e-08
-2.71455e-08
-2.70245e-08
-3.24827e-08
-2.33408e-08
-3.79698e-08
-2.13209e-08
-4.361e-08
-2.02069e-08
-4.94088e-08
-1.96226e-08
-5.53733e-08
-1.93762e-08
-6.15116e-08
-1.93643e-08
-6.78331e-08
-1.9528e-08
-7.43486e-08
-1.98324e-08
-8.10696e-08
-2.0258e-08
-8.80083e-08
-2.07932e-08
-9.51787e-08
-2.14286e-08
-1.02594e-07
-2.21672e-08
-1.10265e-07
-2.30172e-08
-1.18203e-07
-2.39821e-08
-1.26414e-07
-2.50645e-08
-1.34897e-07
-2.62644e-08
-1.43646e-07
-2.7577e-08
-1.52646e-07
-2.89903e-08
-1.61871e-07
-3.04835e-08
-1.71291e-07
-3.20263e-08
-1.80868e-07
-3.35791e-08
-1.90566e-07
-3.5096e-08
-2.0035e-07
-3.65286e-08
-2.10188e-07
-3.78306e-08
-2.20057e-07
-3.89617e-08
-2.29941e-07
-3.98916e-08
-2.39832e-07
-4.06016e-08
-2.49726e-07
-4.10865e-08
-2.59631e-07
-4.13553e-08
-2.6956e-07
-4.14316e-08
-2.79533e-07
-4.13527e-08
-2.89578e-07
-4.11764e-08
-2.99719e-07
-4.09665e-08
-3.09983e-07
-4.07904e-08
-3.20407e-07
-4.07514e-08
-3.31031e-07
-4.09796e-08
-3.41894e-07
-4.15885e-08
-3.53035e-07
-4.26713e-08
-3.6449e-07
-4.42877e-08
-3.76291e-07
-4.64558e-08
-3.88463e-07
-4.91492e-08
-4.01027e-07
-5.22998e-08
-4.13993e-07
-5.58059e-08
-4.27369e-07
-5.95409e-08
-4.41154e-07
-6.33643e-08
-4.55341e-07
-6.7131e-08
-4.69917e-07
-7.06998e-08
-4.84864e-07
-7.39392e-08
-5.00164e-07
-7.67323e-08
-5.15793e-07
-7.89794e-08
-5.31728e-07
-8.06014e-08
-5.47944e-07
-8.15424e-08
-5.64415e-07
-8.17713e-08
-5.81106e-07
-8.12827e-08
-5.97977e-07
-8.00948e-08
-6.14978e-07
-7.82449e-08
-6.32053e-07
-7.57863e-08
-6.49138e-07
-7.27857e-08
-6.66163e-07
-6.9321e-08
-6.8305e-07
-6.54785e-08
-6.99716e-07
-6.13494e-08
-7.16069e-07
-5.70278e-08
-7.32012e-07
-5.26076e-08
-7.47442e-07
-4.81787e-08
-7.6225e-07
-4.38217e-08
-7.7632e-07
-3.96186e-08
-7.89536e-07
-3.56948e-08
-8.01779e-07
-3.20384e-08
-8.12588e-07
-2.71651e-08
-8.21615e-07
-2.06344e-08
-8.2892e-07
-1.36664e-08
-8.34582e-07
-6.97085e-09
-8.38706e-07
-8.60196e-10
-8.41435e-07
4.58052e-09
-8.42892e-07
9.36554e-09
-8.43175e-07
1.34745e-08
-8.42403e-07
1.69289e-08
-8.40698e-07
1.97685e-08
-8.3818e-07
2.20415e-08
-8.34966e-07
2.37975e-08
-8.31166e-07
2.50854e-08
-8.2688e-07
2.59527e-08
-8.222e-07
2.64454e-08
-8.17207e-07
2.66081e-08
-8.11971e-07
2.64828e-08
-8.06558e-07
2.61087e-08
-8.01025e-07
2.55227e-08
-7.95427e-07
2.47598e-08
-7.89811e-07
2.38528e-08
-7.84218e-07
2.2832e-08
-7.78682e-07
2.17254e-08
-7.73234e-07
2.05591e-08
-7.67904e-07
1.93569e-08
-7.62717e-07
1.81399e-08
-7.57697e-07
1.69253e-08
-7.52865e-07
1.57273e-08
-7.48241e-07
1.45568e-08
-7.43843e-07
1.34223e-08
1.23278e-08
-2.14055e-09
-2.97176e-07
-6.80617e-09
-8.14752e-08
-1.16789e-08
-4.98194e-08
-1.64645e-08
-3.91307e-08
-2.13148e-08
-2.88542e-08
-2.63094e-08
-2.2028e-08
-3.14551e-08
-1.81938e-08
-3.6749e-08
-1.60261e-08
-4.21914e-08
-1.47638e-08
-4.77852e-08
-1.40282e-08
-5.35354e-08
-1.36255e-08
-5.94482e-08
-1.34511e-08
-6.55309e-08
-1.34451e-08
-7.17919e-08
-1.35712e-08
-7.82423e-08
-1.38076e-08
-8.48928e-08
-1.41428e-08
-9.17553e-08
-1.45663e-08
-9.8843e-08
-1.50798e-08
-1.06171e-07
-1.56898e-08
-1.13752e-07
-1.64012e-08
-1.216e-07
-1.72179e-08
-1.29721e-07
-1.81435e-08
-1.3812e-07
-1.91793e-08
-1.4679e-07
-2.03218e-08
-1.55714e-07
-2.15606e-08
-1.64866e-07
-2.28755e-08
-1.74211e-07
-2.4236e-08
-1.83707e-07
-2.56018e-08
-1.93312e-07
-2.69256e-08
-2.02986e-07
-2.81575e-08
-2.12699e-07
-2.92507e-08
-2.22426e-07
-3.0166e-08
-2.32153e-07
-3.08756e-08
-2.41876e-07
-3.1365e-08
-2.51598e-07
-3.16347e-08
-2.6133e-07
-3.17e-08
-2.71092e-07
-3.15906e-08
-2.80912e-07
-3.13565e-08
-2.90817e-07
-3.10624e-08
-3.00837e-07
-3.07702e-08
-3.11016e-07
-3.05733e-08
-3.21396e-07
-3.05994e-08
-3.32024e-07
-3.09595e-08
-3.42947e-07
-3.17473e-08
-3.54207e-07
-3.30265e-08
-3.6584e-07
-3.48209e-08
-3.77875e-07
-3.71119e-08
-3.90332e-07
-3.984e-08
-4.03222e-07
-4.29122e-08
-4.16549e-07
-4.62104e-08
-4.30307e-07
-4.96024e-08
-4.44484e-07
-5.29508e-08
-4.5906e-07
-5.6121e-08
-4.74012e-07
-5.8986e-08
-4.89316e-07
-6.14286e-08
-5.04949e-07
-6.33484e-08
-5.20889e-07
-6.46634e-08
-5.37119e-07
-6.53162e-08
-5.53618e-07
-6.52775e-08
-5.70357e-07
-6.4549e-08
-5.87293e-07
-6.31622e-08
-6.04376e-07
-6.11644e-08
-6.21542e-07
-5.86214e-08
-6.38719e-07
-5.56092e-08
-6.55824e-07
-5.22124e-08
-6.72771e-07
-4.85252e-08
-6.89462e-07
-4.46487e-08
-7.05791e-07
-4.06868e-08
-7.21643e-07
-3.67431e-08
-7.36891e-07
-3.29166e-08
-7.51404e-07
-2.92949e-08
-7.65044e-07
-2.59644e-08
-7.77652e-07
-2.30709e-08
-7.89091e-07
-2.05806e-08
-7.98912e-07
-1.7325e-08
-8.06827e-07
-1.27002e-08
-8.12913e-07
-7.56599e-09
-8.17273e-07
-2.59873e-09
-8.20051e-07
1.92562e-09
-8.2141e-07
5.945e-09
-8.21466e-07
9.42428e-09
-8.20353e-07
1.23627e-08
-8.1821e-07
1.47895e-08
-8.1518e-07
1.67449e-08
-8.11402e-07
1.82715e-08
-8.07008e-07
1.94108e-08
-8.02119e-07
2.02019e-08
-7.96845e-07
2.06814e-08
-7.9128e-07
2.08832e-08
-7.85508e-07
2.08385e-08
-7.79599e-07
2.0577e-08
-7.73614e-07
2.01267e-08
-7.67604e-07
1.95152e-08
-7.61611e-07
1.87703e-08
-7.55671e-07
1.79178e-08
-7.49816e-07
1.69795e-08
-7.44064e-07
1.59766e-08
-7.38435e-07
1.49329e-08
-7.32948e-07
1.38733e-08
-7.27623e-07
1.28205e-08
-7.22485e-07
1.17922e-08
-7.17554e-07
1.08008e-08
-7.12845e-07
9.85316e-09
-7.08367e-07
8.95328e-09
-7.04142e-07
8.10295e-09
-7.00167e-07
7.30342e-09
6.55356e-09
-2.08469e-09
-2.9509e-07
-6.64208e-09
-7.69162e-08
-1.13646e-08
-4.50945e-08
-1.59463e-08
-3.45465e-08
-2.0578e-08
-2.42203e-08
-2.53546e-08
-1.72498e-08
-3.02848e-08
-1.32626e-08
-3.53632e-08
-1.0947e-08
-4.05872e-08
-9.5393e-09
-4.59578e-08
-8.65715e-09
-5.14781e-08
-8.10485e-09
-5.71526e-08
-7.77641e-09
-6.29865e-08
-7.61096e-09
-6.89861e-08
-7.57165e-09
-7.51585e-08
-7.63517e-09
-8.15125e-08
-7.78896e-09
-8.80576e-08
-8.02138e-09
-9.48044e-08
-8.33333e-09
-1.01766e-07
-8.72853e-09
-1.08958e-07
-9.21035e-09
-1.16395e-07
-9.78146e-09
-1.24093e-07
-1.04461e-08
-1.32065e-07
-1.12086e-08
-1.40316e-07
-1.20719e-08
-1.48843e-07
-1.30346e-08
-1.57632e-07
-1.40886e-08
-1.66653e-07
-1.52158e-08
-1.7587e-07
-1.63865e-08
-1.85237e-07
-1.75606e-08
-1.94707e-07
-1.86899e-08
-2.04236e-07
-1.97233e-08
-2.1379e-07
-2.06135e-08
-2.23345e-07
-2.13215e-08
-2.32889e-07
-2.18216e-08
-2.42422e-07
-2.21031e-08
-2.5195e-07
-2.21717e-08
-2.61493e-07
-2.20486e-08
-2.71076e-07
-2.17736e-08
-2.80729e-07
-2.14089e-08
-2.90487e-07
-2.10122e-08
-3.00391e-07
-2.06686e-08
-3.10492e-07
-2.04983e-08
-3.2084e-07
-2.06103e-08
-3.31488e-07
-2.10977e-08
-3.42485e-07
-2.20281e-08
-3.53871e-07
-2.34326e-08
-3.65678e-07
-2.53017e-08
-3.77928e-07
-2.75867e-08
-3.90632e-07
-3.02047e-08
-4.03791e-07
-3.30483e-08
-4.17394e-07
-3.59953e-08
-4.31424e-07
-3.89184e-08
-4.45851e-07
-4.1693e-08
-4.60646e-07
-4.41921e-08
-4.75787e-07
-4.62901e-08
-4.91255e-07
-4.78838e-08
-5.0703e-07
-4.88934e-08
-5.2309e-07
-4.92607e-08
-5.39415e-07
-4.89567e-08
-5.5598e-07
-4.79886e-08
-5.72753e-07
-4.63931e-08
-5.89695e-07
-4.42253e-08
-6.06743e-07
-4.15752e-08
-6.23812e-07
-3.85395e-08
-6.40808e-07
-3.52111e-08
-6.57637e-07
-3.16893e-08
-6.74192e-07
-2.8084e-08
-6.90356e-07
-2.45099e-08
-7.06003e-07
-2.10822e-08
-7.20992e-07
-1.79122e-08
-7.35173e-07
-1.50988e-08
-7.48384e-07
-1.27381e-08
-7.60445e-07
-1.09928e-08
-7.71215e-07
-9.79293e-09
-7.80228e-07
-8.29309e-09
-7.87232e-07
-5.68015e-09
-7.9233e-07
-2.45678e-09
-7.95664e-07
7.43109e-10
-7.97392e-07
3.65726e-09
-7.97652e-07
6.20412e-09
-7.96581e-07
8.35079e-09
-7.94333e-07
1.0112e-08
-7.91066e-07
1.15213e-08
-7.86937e-07
1.26179e-08
-7.82101e-07
1.34388e-08
-7.76702e-07
1.40166e-08
-7.70874e-07
1.43789e-08
-7.64733e-07
1.45478e-08
-7.58386e-07
1.45413e-08
-7.51921e-07
1.43763e-08
-7.45413e-07
1.40704e-08
-7.38921e-07
1.36365e-08
-7.32489e-07
1.3087e-08
-7.26158e-07
1.24429e-08
-7.19961e-07
1.17236e-08
-7.13908e-07
1.09277e-08
-7.07985e-07
1.0055e-08
-7.02178e-07
9.12676e-09
-6.96486e-07
8.1833e-09
-6.9093e-07
7.26756e-09
-6.85546e-07
6.41099e-09
-6.80368e-07
5.6268e-09
-6.75425e-07
4.91458e-09
-6.70735e-07
4.26934e-09
-6.66308e-07
3.6845e-09
-6.62153e-07
3.15407e-09
-6.58271e-07
2.67274e-09
2.23562e-09
-2.02862e-09
-2.93061e-07
-6.44241e-09
-7.25012e-08
-1.09938e-08
-4.05415e-08
-1.53612e-08
-3.01773e-08
-1.97554e-08
-1.98246e-08
-2.42906e-08
-1.27135e-08
-2.89798e-08
-8.57271e-09
-3.38165e-08
-6.10987e-09
-3.87968e-08
-4.55873e-09
-4.39198e-08
-3.53396e-09
-4.91886e-08
-2.83584e-09
-5.46071e-08
-2.35786e-09
-6.01794e-08
-2.03866e-09
-6.59101e-08
-1.84101e-09
-7.18043e-08
-1.74117e-09
-7.78674e-08
-1.72614e-09
-8.41041e-08
-1.78496e-09
-9.052e-08
-1.91779e-09
-9.71234e-08
-2.12553e-09
-1.03926e-07
-2.40871e-09
-1.10941e-07
-2.76635e-09
-1.18188e-07
-3.19984e-09
-1.25685e-07
-3.7127e-09
-1.33448e-07
-4.30962e-09
-1.41489e-07
-4.99485e-09
-1.49809e-07
-5.76956e-09
-1.58398e-07
-6.62846e-09
-1.67229e-07
-7.55658e-09
-1.76264e-07
-8.52697e-09
-1.85454e-07
-9.50117e-09
-1.94748e-07
-1.0431e-08
-2.04098e-07
-1.12648e-08
-2.13466e-07
-1.19545e-08
-2.22827e-07
-1.24614e-08
-2.3217e-07
-1.27611e-08
-2.41496e-07
-1.28464e-08
-2.50817e-07
-1.27275e-08
-2.60158e-07
-1.24322e-08
-2.69552e-07
-1.20148e-08
-2.79031e-07
-1.15333e-08
-2.88635e-07
-1.10635e-08
-2.98422e-07
-1.07106e-08
-3.08449e-07
-1.05828e-08
-3.18772e-07
-1.07721e-08
-3.29448e-07
-1.13501e-08
-3.40522e-07
-1.23562e-08
-3.52029e-07
-1.3792e-08
-3.63993e-07
-1.56204e-08
-3.76424e-07
-1.77709e-08
-3.89322e-07
-2.01479e-08
-4.02675e-07
-2.2641e-08
-4.16459e-07
-2.5133e-08
-4.30656e-07
-2.74963e-08
-4.45238e-07
-2.96109e-08
-4.60163e-07
-3.13672e-08
-4.75394e-07
-3.26559e-08
-4.90904e-07
-3.33868e-08
-5.06669e-07
-3.35008e-08
-5.22664e-07
-3.29655e-08
-5.38882e-07
-3.17753e-08
-5.5531e-07
-2.99678e-08
-5.7191e-07
-2.76265e-08
-5.88638e-07
-2.48485e-08
-6.05428e-07
-2.17479e-08
-6.22182e-07
-1.84531e-08
-6.38784e-07
-1.50804e-08
-6.55114e-07
-1.17435e-08
-6.71054e-07
-8.55775e-09
-6.86473e-07
-5.65104e-09
-7.01224e-07
-3.14861e-09
-7.15143e-07
-1.16572e-09
-7.28051e-07
1.84356e-10
-7.39794e-07
7.65242e-10
-7.50158e-07
5.84948e-10
-7.58677e-07
2.39088e-10
-7.65134e-07
7.87241e-10
-7.6965e-07
2.06527e-09
-7.72369e-07
3.46331e-09
-7.73436e-07
4.71998e-09
-7.72982e-07
5.74365e-09
-7.71162e-07
6.52245e-09
-7.68138e-07
7.08106e-09
-7.64079e-07
7.45687e-09
-7.59153e-07
7.68889e-09
-7.53525e-07
7.81061e-09
-7.4735e-07
7.84635e-09
-7.40774e-07
7.81053e-09
-7.33931e-07
7.71043e-09
-7.26933e-07
7.54521e-09
-7.19867e-07
7.31069e-09
-7.1281e-07
7.01449e-09
-7.05802e-07
6.62994e-09
-6.98835e-07
6.11917e-09
-6.91934e-07
5.54021e-09
-6.85211e-07
4.99831e-09
-6.78683e-07
4.39632e-09
-6.72288e-07
3.65678e-09
-6.65958e-07
2.7966e-09
-6.59683e-07
1.90973e-09
-6.53515e-07
1.1013e-09
-6.47551e-07
4.47206e-10
-6.41861e-07
-6.25652e-11
-6.36478e-07
-4.65964e-10
-6.31417e-07
-7.88623e-10
-6.26679e-07
-1.04956e-09
-6.22259e-07
-1.26275e-09
-6.18145e-07
-1.43806e-09
-6.14325e-07
-1.58232e-09
-6.10783e-07
-1.70017e-09
-1.79551e-09
-1.97335e-09
-2.91087e-07
-6.24284e-09
-6.8231e-08
-1.06165e-08
-3.61672e-08
-1.47615e-08
-2.60316e-08
-1.88985e-08
-1.56871e-08
-2.31648e-08
-8.44688e-09
-2.75816e-08
-4.15585e-09
-3.21372e-08
-1.55433e-09
-3.68362e-08
1.4032e-10
-4.16804e-08
1.31021e-09
-4.66707e-08
2.15449e-09
-5.18099e-08
2.78131e-09
-5.71015e-08
3.25285e-09
-6.25494e-08
3.60671e-09
-6.81576e-08
3.8668e-09
-7.39298e-08
4.04578e-09
-7.98679e-08
4.15298e-09
-8.5975e-08
4.18904e-09
-9.22517e-08
4.15077e-09
-9.86996e-08
4.03887e-09
-1.05326e-07
3.85924e-09
-1.12142e-07
3.61604e-09
-1.19166e-07
3.31085e-09
-1.26418e-07
2.94245e-09
-1.33921e-07
2.5071e-09
-1.41691e-07
1.99996e-09
-1.49738e-07
1.41778e-09
-1.58057e-07
7.6242e-10
-1.6663e-07
4.46889e-11
-1.75419e-07
-7.127e-10
-1.84377e-07
-1.47432e-09
-1.93449e-07
-2.19444e-09
-2.02582e-07
-2.82247e-09
-2.11734e-07
-3.31022e-09
-2.20876e-07
-3.61913e-09
-2.29997e-07
-3.72605e-09
-2.39098e-07
-3.62633e-09
-2.48196e-07
-3.33403e-09
-2.57321e-07
-2.88963e-09
-2.66506e-07
-2.3486e-09
-2.75791e-07
-1.77742e-09
-2.85238e-07
-1.26334e-09
-2.94908e-07
-9.11554e-10
-3.04866e-07
-8.12513e-10
-3.15172e-07
-1.04164e-09
-3.25879e-07
-1.64731e-09
-3.37026e-07
-2.643e-09
-3.4864e-07
-4.00521e-09
-3.60732e-07
-5.67685e-09
-3.73303e-07
-7.57455e-09
-3.86344e-07
-9.59907e-09
-3.99839e-07
-1.16375e-08
-4.13762e-07
-1.35746e-08
-4.28064e-07
-1.53115e-08
-4.42705e-07
-1.67286e-08
-4.57648e-07
-1.77157e-08
-4.7285e-07
-1.81869e-08
-4.88276e-07
-1.80771e-08
-5.03894e-07
-1.7349e-08
-5.19676e-07
-1.59946e-08
-5.3561e-07
-1.40354e-08
-5.51706e-07
-1.15319e-08
-5.67955e-07
-8.60045e-09
-5.84306e-07
-5.39526e-09
-6.00683e-07
-2.07109e-09
-6.16971e-07
1.21406e-09
-6.33044e-07
4.33731e-09
-6.48773e-07
7.18106e-09
-6.64022e-07
9.60805e-09
-6.7864e-07
1.14799e-08
-6.9246e-07
1.26664e-08
-7.05307e-07
1.3043e-08
-7.16991e-07
1.24598e-08
-7.27265e-07
1.08669e-08
-7.35703e-07
8.68267e-09
-7.42062e-07
7.14839e-09
-7.4646e-07
6.46212e-09
-7.49027e-07
6.02625e-09
-7.49893e-07
5.5784e-09
-7.49201e-07
5.04268e-09
-7.47106e-07
4.4193e-09
-7.43774e-07
3.74115e-09
-7.39373e-07
3.04955e-09
-7.34077e-07
2.39087e-09
-7.28064e-07
1.79809e-09
-7.21499e-07
1.28518e-09
-7.14532e-07
8.45709e-10
-7.07284e-07
4.63164e-10
-6.99838e-07
9.81894e-11
-6.92219e-07
-3.09912e-10
-6.84624e-07
-5.83626e-10
-6.77185e-07
-8.13035e-10
-6.69795e-07
-1.27563e-09
-6.62544e-07
-1.71715e-09
-6.55799e-07
-1.75273e-09
-6.4944e-07
-1.96717e-09
-6.42821e-07
-2.96567e-09
-6.35525e-07
-4.50015e-09
-6.27659e-07
-5.95796e-09
-6.19641e-07
-6.91762e-09
-6.1196e-07
-7.23259e-09
-6.04881e-07
-7.1387e-09
-5.98427e-07
-6.91549e-09
-5.92542e-07
-6.66896e-09
-5.87168e-07
-6.4201e-09
-5.8225e-07
-6.17845e-09
-5.7774e-07
-5.94737e-09
-5.73594e-07
-5.72711e-09
-5.69779e-07
-5.51645e-09
-5.6626e-07
-5.31341e-09
-5.63014e-07