/*--------------------------------*- C++ -*----------------------------------*\
  =========                 |
  \\      /  F ield         | OpenFOAM: The Open Source CFD Toolbox
   \\    /   O peration     | Website:  https://openfoam.org
    \\  /    A nd           | Version:  10
     \\/     M anipulation  |
\*---------------------------------------------------------------------------*/
FoamFile
{
    format      ascii;
    class       volScalarField;
    location    "80000";
    object      omega;
}
// * * * * * * * * * * * * * * * * * * * * * * * * * * * * * * * * * * * * * //

dimensions      [0 0 -1 0 0 0 0];

internalField   nonuniform List<scalar> 
17969
(
5562.21
1224.54
557.909
454.665
493.008
616.929
748.578
823.701
839.289
810.589
754.256
684.389
610.801
540.596
476.819
419.805
369.68
326.096
288.449
256.071
228.356
204.753
184.718
167.724
153.288
140.985
130.451
121.383
113.527
106.675
100.657
95.3357
90.5965
86.3477
82.5139
79.0333
75.8551
72.9376
70.2462
67.7522
65.4316
63.2644
61.2337
59.3254
57.5273
55.8293
54.2226
52.6997
51.2541
49.8803
48.5735
47.3296
46.1449
45.0164
43.9414
42.9177
41.9432
41.0163
40.1357
39.3003
38.5092
37.7618
37.0576
36.3966
35.7787
35.2041
34.6734
34.1872
33.7464
33.3522
33.0061
32.7097
32.4652
32.2748
32.1432
32.0713
32.0543
32.091
32.1762
32.3053
32.4756
32.6842
32.9286
33.207
33.5186
33.8633
34.242
34.6558
35.1057
35.5931
36.1227
36.7045
37.3484
38.0628
38.8559
39.736
40.7107
41.7862
42.9437
44.1706
5562.29
1212.29
454.441
306.912
291.659
332.617
412.795
505.141
598.091
665.845
695.093
691.447
663.118
619.011
566.933
512.524
460.26
412.031
368.074
328.682
293.773
263.077
236.211
212.776
192.402
174.756
159.515
146.367
135.013
125.186
116.648
109.197
102.661
96.8951
91.7787
87.212
83.1119
79.4097
76.0483
72.9802
70.1659
67.5726
65.1726
62.9429
60.864
58.9194
57.0954
55.3802
53.7636
52.2372
50.7937
49.4268
48.131
46.902
45.7355
44.6284
43.5777
42.5809
41.6361
40.7415
39.8959
39.098
38.3472
37.643
36.9851
36.3735
35.8085
35.2908
34.821
34.4004
34.0303
33.7126
33.4495
33.2432
33.0986
33.0161
32.99
33.0194
33.0985
33.2223
33.3876
33.5915
33.8313
34.1056
34.4136
34.7558
35.1336
35.5493
36.0054
36.5039
37.0464
37.6365
38.2854
39.0058
39.8066
40.6969
41.685
42.7784
43.959
45.217
5562.35
1228.51
404.557
233.082
197.42
209.493
251.389
304.243
363.541
429.398
494.804
550.511
584.707
595.514
585.909
560.758
525.502
485.024
442.946
402.24
364.175
328.973
296.957
268.153
242.451
219.645
199.485
181.708
166.068
152.342
140.322
129.807
120.606
112.542
105.453
99.1993
93.6581
88.7252
84.3119
80.3436
76.7574
73.5006
70.5289
67.805
65.2975
62.98
60.8303
58.8296
56.9618
55.2135
53.5732
52.031
50.5788
49.2093
47.9166
46.6954
45.5413
44.4507
43.4204
42.4478
41.5306
40.6672
39.8562
39.0966
38.3878
37.7294
37.1215
36.5643
36.0586
35.6054
35.2061
34.8626
34.5769
34.3516
34.1915
34.0967
34.0605
34.0803
34.151
34.2673
34.4257
34.6232
34.8575
35.1271
35.4317
35.772
36.1497
36.5674
37.0285
37.5367
38.0947
38.7046
39.3686
40.099
40.9114
41.8156
42.8208
43.9341
45.1398
46.4317
5562.39
1245.65
386.689
195.931
147.39
141.689
160.393
194.144
231.011
272.378
318.318
369.313
419.109
463.662
497.724
515.913
518.319
507.006
485.21
456.528
424.193
390.657
357.968
327.034
298.081
271.414
247.119
225.174
205.474
187.867
172.177
158.225
145.836
134.852
125.126
116.52
108.906
102.161
96.1747
90.8458
86.0856
81.8165
77.9718
74.4941
71.3348
68.4525
65.812
63.3836
61.1422
59.0663
57.1379
55.3414
53.664
52.0943
50.6231
49.2422
47.9448
46.7252
45.5784
44.5002
43.4873
42.5369
41.6466
40.8147
40.0399
39.3213
38.6585
38.0515
37.5006
37.0068
36.5712
36.1956
35.8819
35.6327
35.4527
35.3417
35.2924
35.2972
35.355
35.4598
35.6078
35.7962
36.023
36.2871
36.5882
36.9272
37.3059
37.7269
38.1938
38.711
39.2826
39.9123
40.6017
41.3531
42.1802
43.1014
44.1273
45.2608
46.4916
47.8212
49.2589
50.8009
52.4363
54.1495
5562.42
1256.92
383.203
179.841
122.574
106.152
108.517
124.879
148.855
176.172
206.814
240.711
277.845
318.896
359.191
395.727
426.921
448.449
458.36
456.944
445.791
427.171
403.563
377.212
349.862
322.986
297.271
272.948
250.295
229.432
210.388
193.124
177.552
163.556
151.008
139.777
129.736
120.764
112.753
105.601
99.2147
93.5072
88.3984
83.8152
79.6918
75.9701
72.599
69.5345
66.7383
64.1778
61.8249
59.6559
57.6505
55.7914
54.0638
52.4553
50.9552
49.5545
48.2455
47.0217
45.8778
44.8092
43.8122
42.8837
42.0215
41.2237
40.4893
39.8175
39.2083
38.662
38.1795
37.762
37.4113
37.1291
36.9204
36.7845
36.7128
36.6958
36.7344
36.8224
36.9556
37.1315
37.3484
37.6055
37.9027
38.2409
38.6216
39.0474
39.5218
40.0491
40.6339
41.2808
41.993
42.7721
43.6229
44.562
45.6095
46.7657
48.0251
49.3945
50.8794
52.4739
54.166
55.9383
5562.44
1265.05
385.117
174.297
111.495
88.803
81.9777
85.009
96.6796
113.841
133.738
157.013
183.038
211.637
242.662
276.376
310.342
341.525
368.89
391.025
405.118
410.464
407.405
397.134
381.276
361.604
339.74
317.002
294.475
272.691
251.896
232.342
214.163
197.425
182.125
168.221
155.638
144.286
134.066
124.875
116.614
109.191
102.52
96.5228
91.127
86.2674
81.8843
77.9235
74.336
71.0785
68.1122
65.4035
62.9228
60.6447
58.5473
56.6116
54.8215
53.1632
51.6248
50.1963
48.8694
47.6368
46.4925
45.4317
44.4504
43.5453
42.714
41.9549
41.2668
40.6492
40.1022
39.6262
39.2223
38.8916
38.6393
38.4647
38.3583
38.309
38.3193
38.3834
38.496
38.6552
38.8593
39.1076
39.4
39.7372
40.1206
40.5524
41.0356
41.5741
42.1724
42.8352
43.5667
44.3693
45.2439
46.2047
47.2751
48.4571
49.7489
51.1604
52.6937
54.3413
56.0893
57.9184
5562.45
1271.86
389.456
173.897
107.671
81.4793
70.063
66.2572
68.0541
75.4839
87.6812
101.901
118.878
138.752
161.031
185.454
211.813
240.128
269.402
297.026
321.063
341.938
357.918
367.476
370.265
366.601
357.375
343.789
327.168
308.728
289.53
270.371
251.656
233.657
216.593
200.612
185.791
172.154
159.682
148.332
138.037
128.723
120.308
112.71
105.85
99.6561
94.0585
88.9957
84.4117
80.2558
76.4825
73.0508
69.9241
67.0698
64.4591
62.0666
59.8697
57.8492
55.9881
54.2718
52.6876
51.225
49.8746
48.6287
47.481
46.4259
45.4592
44.5775
43.778
43.0589
42.4191
41.858
41.3755
40.9726
40.6553
40.4237
40.268
40.1771
40.1462
40.1768
40.262
40.3994
40.5872
40.8243
41.1105
41.4459
41.8316
42.2691
42.761
43.3102
43.9208
44.5968
45.3429
46.1621
47.0555
48.0378
49.1335
50.3447
51.6727
53.1283
54.7105
56.41
58.211
60.0924
62.03
5562.45
1276.99
394.414
175.712
107.334
79.1698
65.4317
58.5152
55.7837
56.4288
60.6584
68.5903
78.8095
90.9419
105.454
122.503
141.617
162.594
185.171
209.187
234.712
259.288
281.184
300.252
316.411
328.225
334.84
336.067
332.189
323.895
312.121
297.899
282.164
265.795
249.369
233.177
217.504
202.554
188.467
175.322
163.153
151.959
141.714
132.373
123.878
116.168
109.175
102.835
97.0854
91.8687
87.1311
82.824
78.9039
75.3313
72.0713
69.0925
66.3671
63.8705
61.5808
59.4788
57.5475
55.7724
54.1404
52.6406
51.2634
50.0007
48.8456
47.7925
46.8368
45.9748
45.2039
44.5223
43.9293
43.425
43.0173
42.7073
42.4845
42.3372
42.2533
42.2404
42.2922
42.4032
42.5709
42.7937
43.0709
43.4021
43.7877
44.2283
44.7255
45.2815
45.8995
46.5832
47.3373
48.1654
49.0716
50.076
51.1991
52.4413
53.8083
55.3079
56.9369
58.684
60.5315
62.4567
64.434
66.4369
68.44
5562.43
1280.3
399.184
178.382
108.578
79.21
64.1894
55.7074
50.8983
48.6025
48.4226
50.4477
55.1563
62.442
71.082
81.4887
93.9983
108.741
125.376
143.715
163.486
184.397
206.427
228.293
248.479
265.952
281.074
293.48
302.149
306.579
306.654
302.644
295.107
284.801
272.549
259.093
245.082
230.928
216.906
203.256
190.161
177.747
166.091
155.232
145.181
135.925
127.435
119.672
112.588
106.133
100.255
94.9029
90.0287
85.5872
81.537
77.8404
74.4633
71.3753
68.549
65.9602
63.5874
61.4117
59.4161
57.5861
55.9089
54.3731
52.9693
51.6892
50.5262
49.4745
48.5298
47.6891
46.9504
46.3136
45.7882
45.3769
45.0677
44.8469
44.6992
44.6306
44.6388
44.7165
44.8577
45.0605
45.3233
45.6448
46.0239
46.4603
46.9545
47.5082
48.1243
48.807
49.5614
50.3921
51.3122
52.3428
53.4928
54.7653
56.1686
57.7067
59.3746
61.1593
63.0415
64.9973
67.0002
69.0232
71.0413
73.0323
5562.41
1281.92
403.579
181.378
110.559
80.3748
64.5637
55.2059
49.3345
45.6641
43.6088
42.9441
43.6946
46.136
50.6537
56.9811
64.3877
73.3597
84.2207
97.0545
111.673
127.875
145.379
163.855
183.112
202.82
221.354
237.619
251.634
263.569
272.975
279.16
281.864
281.046
276.974
270.123
261.109
250.552
239.055
227.076
214.894
202.765
190.892
179.431
168.493
158.151
148.449
139.407
131.025
123.288
116.17
109.639
103.657
98.1844
93.1816
88.6095
84.4309
80.611
77.1175
73.9212
70.9956
68.3167
65.8633
63.6164
61.5593
59.6774
57.9577
56.3893
54.9626
53.67
52.5049
51.4627
50.5399
49.7357
49.062
48.523
48.1048
47.7927
47.5721
47.4276
47.3721
47.3988
47.5003
47.672
47.9095
48.2094
48.5695
48.9885
49.4667
50.0061
50.6103
51.2853
52.0387
52.8773
53.814
54.864
56.0338
57.3282
58.7557
60.3185
62.0101
63.8162
65.7163
67.6854
69.6965
71.723
73.7404
75.7277
77.6681
79.5486
5562.38
1282.04
407.531
184.444
112.856
82.0534
65.6931
55.7856
49.3061
44.9095
41.9356
40.0532
39.119
39.1258
40.1993
42.6316
46.7161
52.1611
58.5357
66.2848
75.7381
86.9375
99.8504
114.305
130.028
146.682
163.928
181.685
198.731
213.993
227.099
238.233
247.465
254.39
258.583
259.931
258.469
254.456
248.3
240.48
231.474
221.706
211.479
201.028
190.56
180.246
170.218
160.577
151.394
142.716
134.57
126.966
119.901
113.36
107.323
101.765
96.6568
91.968
87.6683
83.7278
80.1178
76.8115
73.784
71.0127
68.4766
66.1575
64.0386
62.1055
60.3459
58.749
57.3058
56.0092
54.8542
53.8384
52.977
52.2754
51.717
51.2846
50.9613
50.7261
50.5832
50.5337
50.5714
50.688
50.8771
51.1341
51.4565
51.8429
52.2943
52.8134
53.404
54.0713
54.8212
55.6605
56.5984
57.6483
58.8189
60.1158
61.5472
63.1141
64.8087
66.6154
68.5127
70.4751
72.4758
74.4887
76.4904
78.4612
80.3852
82.251
84.0501
85.7776
87.4304
89.0076
5562.34
1280.79
410.989
187.412
115.216
83.9043
67.1196
56.829
49.9679
45.1552
41.6931
39.2044
37.4835
36.4304
36.0234
36.315
37.4482
39.6852
43.2732
47.9688
53.4614
60.1373
68.2722
78.0328
89.4434
102.384
116.609
131.791
147.536
163.606
179.433
193.869
206.111
216.569
225.259
232.195
237.106
239.76
240.121
238.285
234.493
229.075
222.395
214.797
206.544
197.848
188.911
179.903
170.965
162.212
153.733
145.594
137.846
130.518
123.628
117.183
111.178
105.604
100.444
95.6788
91.2877
87.2475
83.5353
80.128
77.0041
74.143
71.5257
69.1356
66.9567
64.9753
63.1796
61.5599
60.1088
58.8222
57.7193
56.8073
56.0656
55.4737
55.0133
54.6648
54.4012
54.244
54.1841
54.2134
54.3256
54.5163
54.782
55.1205
55.5316
56.0154
56.5734
57.2088
57.9273
58.7365
59.6461
60.6694
61.8143
63.0878
64.497
66.0422
67.7147
69.4982
71.3705
73.3061
75.2785
77.2625
79.236
81.1801
83.0805
84.926
86.7092
88.4251
90.0709
91.6455
5562.3
1278.3
413.887
190.157
117.476
85.7235
68.5846
58
50.8763
45.8069
42.0702
39.2646
37.1554
35.605
34.5389
33.9301
33.7955
34.2012
35.2801
37.2517
40.3412
44.3824
49.0761
54.7496
61.7001
70.1303
80.1198
91.6132
104.414
118.217
132.63
147.283
162.044
175.679
187.422
197.323
205.623
212.334
217.424
220.765
222.286
222.003
220.036
216.596
211.947
206.337
199.963
193.016
185.671
178.08
170.379
162.682
155.087
147.673
140.502
133.622
127.067
120.86
115.014
109.532
104.413
99.6497
95.2302
91.1406
87.3657
83.8886
80.6925
77.7605
75.0759
72.6242
70.3922
68.3682
66.5434
64.9123
63.4992
62.3139
61.3313
60.5268
59.8793
59.3695
58.975
58.6642
58.4656
58.3708
58.3719
58.4625
58.6373
58.8924
59.225
59.6339
60.1193
60.6841
61.3333
62.0747
62.9185
63.8776
64.9613
66.1779
67.5331
69.027
70.6505
72.3866
74.213
76.1041
78.0339
79.9782
81.9154
83.8278
85.7015
87.5259
89.2937
90.9999
92.6416
94.2171
5562.25
1274.7
416.132
192.571
119.521
87.3893
69.9455
59.1199
51.8
46.5601
42.6602
39.6828
37.3777
35.5891
34.2193
33.2103
32.5344
32.1906
32.2058
32.6419
33.6102
35.2875
37.8834
41.3359
45.3364
50.131
56.0006
63.1751
71.7811
81.8339
93.2144
105.678
118.89
132.422
146.047
158.939
170.298
179.804
187.76
194.274
199.379
203.055
205.242
205.97
205.33
203.446
200.472
196.565
191.88
186.565
180.762
174.6
168.198
161.662
155.087
148.553
142.128
135.869
129.821
124.017
118.484
113.237
108.287
103.638
99.2888
95.2342
91.4671
87.9764
84.7528
81.785
79.0613
76.571
74.3051
72.2571
70.4608
68.9324
67.6418
66.5597
65.6619
64.9277
64.3373
63.8682
63.4866
63.2078
63.0402
62.9737
63.0021
63.1198
63.3225
63.6073
63.973
64.4209
64.9555
65.5844
66.3185
67.1713
68.1556
69.2797
70.5487
71.9633
73.5141
75.1838
76.9493
78.7851
80.6653
82.5657
84.4655
86.3472
88.197
90.0044
91.7619
93.4641
95.1076
96.6905
5562.19
1270.14
417.622
194.573
121.273
88.8375
71.1364
60.1155
52.645
47.2827
43.2775
40.2017
37.7949
35.8912
34.3811
33.1926
32.2788
31.6134
31.1868
31.0069
31.1015
31.5235
32.3633
33.7657
35.904
38.8139
42.2307
46.2658
51.1694
57.1831
64.4672
73.0954
83.0287
94.0956
106.012
118.381
130.885
143.104
154.144
163.396
171.113
177.478
182.567
186.421
189.07
190.516
190.825
190.086
188.391
185.852
182.58
178.685
174.275
169.453
164.317
158.959
153.461
147.899
142.338
136.836
131.442
126.195
121.128
116.267
111.628
107.223
103.061
99.1454
95.4772
92.0531
88.8688
85.919
83.1974
80.7022
78.4816
76.5603
74.9053
73.485
72.273
71.2468
70.3874
69.6766
69.0941
68.6152
68.2251
67.9311
67.7476
67.6653
67.6775
67.7795
67.9693
68.2479
68.6191
69.0908
69.6745
70.3847
71.2369
72.2402
73.4012
74.7195
76.1855
77.7812
79.4825
81.2631
83.0965
84.9584
86.8277
88.6866
90.5211
92.3206
94.077
95.7845
97.4391
99.0383
100.58
5562.13
1264.69
418.155
196.112
122.801
90.0678
72.1274
60.9379
53.3491
47.9014
43.8313
40.7022
38.2465
36.2918
34.7224
33.4587
32.4454
31.6447
31.0322
30.5953
30.3325
30.2542
30.3856
30.771
31.4818
32.6356
34.3625
36.7697
39.7021
43.0961
47.1675
52.1441
58.2064
65.462
73.9346
83.5336
94.0547
105.178
116.524
127.92
138.514
147.699
155.329
161.637
166.744
170.736
173.673
175.62
176.606
176.698
175.973
174.502
172.365
169.645
166.425
162.783
158.799
154.547
150.096
145.511
140.852
136.172
131.517
126.928
122.438
118.074
113.86
109.812
105.945
102.266
98.7826
95.4974
92.4129
89.5345
86.9228
84.6157
82.5851
80.8011
79.2379
77.8736
76.69
75.6709
74.8011
74.0664
73.4542
72.9522
72.5395
72.2192
71.9926
71.8606
71.8252
71.8924
72.0646
72.3488
72.7569
73.3047
74.0094
74.8838
75.9335
77.1566
78.5433
80.0739
81.7226
83.4613
85.2623
87.1003
88.9536
90.804
92.6372
94.4419
96.2097
97.9344
99.6115
101.238
102.811
5562.07
1258.29
417.737
197.215
123.884
90.9592
72.8614
61.5626
53.9008
48.4048
44.303
41.1523
38.6804
36.7108
35.124
33.8365
32.7887
31.9374
31.2517
30.71
30.2989
30.0127
29.8532
29.8315
29.9693
30.303
30.8886
31.8166
33.1972
35.1554
37.6569
40.5222
43.9072
47.9963
52.9797
58.9805
66.0636
74.2093
83.2974
93.1158
103.316
113.643
123.659
132.699
140.267
146.552
151.701
155.812
158.978
161.264
162.738
163.447
163.439
162.778
161.528
159.743
157.49
154.832
151.831
148.546
145.036
141.352
137.547
133.665
129.748
125.832
121.949
118.127
114.387
110.749
107.228
103.835
100.581
97.4765
94.5969
91.9971
89.6575
87.5542
85.666
83.9755
82.4673
81.1284
79.947
78.9127
78.0161
77.2484
76.6007
76.0666
75.6413
75.3208
75.1021
74.9817
74.9675
75.0717
75.3111
75.7058
76.2765
77.0397
77.9991
79.1513
80.4846
81.9779
83.6014
85.3242
87.117
88.9535
90.8113
92.672
94.521
96.3467
98.1405
99.8959
101.608
103.273
104.89
5562
1251.34
416.739
197.678
124.536
91.5508
73.3766
62.0229
54.3279
48.8152
44.7077
41.5585
39.0923
37.1296
35.5488
34.2641
33.2134
32.3509
31.6425
31.0627
30.5929
30.2204
29.9379
29.7434
29.6408
29.6405
29.7618
30.0349
30.5047
31.2404
32.3451
33.9076
35.9869
38.4392
41.2759
44.6415
48.7157
53.6327
59.4735
66.2638
73.9437
82.3713
91.2957
100.414
109.593
118.191
125.752
132.047
137.263
141.51
144.873
147.436
149.265
150.416
150.947
150.893
150.307
149.242
147.749
145.873
143.666
141.176
138.451
135.533
132.464
129.282
126.023
122.717
119.391
116.071
112.775
109.522
106.328
103.211
100.252
97.5205
95.0087
92.702
90.5877
88.6543
86.8921
85.2928
83.849
82.5541
81.4024
80.3885
79.5069
78.7529
78.1222
77.6111
77.2175
76.9419
76.7903
76.7746
76.9133
77.2293
77.7449
78.4771
79.4265
80.5845
81.9329
83.4435
85.0856
86.828
88.6419
90.5025
92.3878
94.279
96.1618
98.0247
99.8593
101.659
103.419
105.135
106.805
108.427
5561.92
1244.09
415.154
197.735
124.902
91.936
73.7391
62.3695
54.6711
49.1654
45.072
41.9413
39.4959
37.5545
35.9938
34.7263
33.6887
32.8337
32.1255
31.5369
31.0468
30.6396
30.304
30.0328
29.8226
29.6739
29.5919
29.587
29.6762
29.8851
30.2509
30.8261
31.696
32.936
34.6323
36.7447
39.1479
41.9527
45.2918
49.3079
54.0828
59.6591
66.0207
73.0839
80.7067
88.6284
96.6374
104.515
111.776
118.085
123.356
127.722
131.269
134.063
136.171
137.659
138.575
138.969
138.886
138.36
137.435
136.156
134.563
132.692
130.582
128.269
125.787
123.168
120.441
117.63
114.759
111.849
108.918
105.989
103.143
100.459
97.941
95.5846
93.3858
91.3404
89.445
87.6968
86.0932
84.6319
83.311
82.1287
81.0827
80.1706
79.3904
78.7404
78.2204
77.8337
77.5886
77.5005
77.5915
77.8869
78.4102
79.1758
80.1786
81.4032
82.8265
84.4158
86.1354
87.9509
89.8311
91.7495
93.6863
95.6269
97.5601
99.475
101.364
103.22
105.039
106.817
108.552
110.241
5561.85
1236.82
412.811
197.591
125.121
92.2028
74.0113
62.6504
54.9696
49.4884
45.4237
42.323
39.9093
37.9992
36.4674
35.2256
34.2093
33.3706
32.673
32.0879
31.5935
31.1728
30.8129
30.5045
30.2411
30.0195
29.8391
29.7026
29.616
29.5895
29.6384
29.7847
30.0595
30.5044
31.183
32.1822
33.5551
35.3398
37.4178
39.7964
42.5617
45.8471
49.7396
54.2824
59.4842
65.2962
71.624
78.3173
85.1577
92.0074
98.6369
104.716
110.006
114.435
118.105
121.083
123.418
125.164
126.372
127.094
127.369
127.237
126.737
125.898
124.754
123.342
121.693
119.836
117.799
115.606
113.283
110.85
108.329
105.743
103.171
100.694
98.3251
96.0708
93.9341
91.9179
90.0245
88.256
86.6144
85.1019
83.7199
82.4702
81.3528
80.3688
79.5187
78.8036
78.2261
77.7932
77.5179
77.4205
77.5276
77.8674
78.4623
79.321
80.4311
81.7693
83.3061
85.0039
86.8247
88.7335
90.7004
92.7004
94.7141
96.7258
98.7241
100.703
102.656
104.579
106.467
108.316
110.125
111.89
5561.77
1229.53
409.978
197.112
125.144
92.3437
74.1999
62.8775
55.2367
49.7981
45.7774
42.7214
40.3493
38.4775
36.9804
35.769
34.7779
33.9594
33.2765
32.6999
32.2071
31.7807
31.4075
31.0771
30.7825
30.5186
30.2829
30.075
29.8964
29.7512
29.646
29.5906
29.5991
29.6904
29.8908
30.2352
30.7699
31.5728
32.6919
34.1791
35.9995
38.0479
40.3852
43.0947
46.2753
49.9666
54.1831
58.9044
64.067
69.5807
75.3067
81.0721
86.7732
92.2573
97.291
101.726
105.433
108.498
110.977
112.913
114.342
115.305
115.841
115.993
115.792
115.27
114.459
113.386
112.076
110.556
108.85
106.982
104.97
102.84
100.664
98.5188
96.4282
94.4047
92.4582
90.5972
88.829
87.16
85.5958
84.1422
82.8032
81.5843
80.4892
79.5198
78.6804
77.9749
77.4101
76.9979
76.757
76.7141
76.9005
77.3458
78.0697
79.0695
80.3258
81.8092
83.4829
85.306
87.2399
89.2507
91.3106
93.3969
95.4922
97.5832
99.6595
101.713
103.74
105.737
107.702
109.63
111.521
113.372
5561.69
1222.37
406.778
196.401
125.016
92.388
74.3301
63.0731
55.492
50.1103
46.1444
43.1404
40.8168
38.9895
37.5325
36.3563
35.3953
34.6004
33.9341
33.3673
32.8771
32.447
32.0637
31.7166
31.3985
31.1042
30.8306
30.576
30.3406
30.1258
29.9346
29.7719
29.6444
29.5615
29.5358
29.5838
29.7276
29.9964
30.426
31.0716
32.006
33.2469
34.8176
36.6201
38.6393
40.9112
43.5248
46.5327
49.9444
53.7537
57.9227
62.3847
67.0599
71.839
76.5848
81.194
85.6307
89.7107
93.3349
96.4284
98.9564
100.981
102.542
103.675
104.405
104.763
104.784
104.496
103.931
103.113
102.067
100.817
99.3828
97.7912
96.1049
94.3928
92.6817
90.9919
89.3394
87.7369
86.1957
84.7257
83.3356
82.0341
80.8284
79.7248
78.7304
77.851
77.0924
76.4625
75.9727
75.6409
75.4929
75.5618
75.8824
76.4836
77.3785
78.5533
79.9789
81.622
83.4404
85.3922
87.4399
89.5522
91.7038
93.8752
96.0514
98.2213
100.376
102.51
104.618
106.695
108.742
110.757
112.736
114.68
5561.6
1215.52
403.364
195.531
124.784
92.371
74.4295
63.2596
55.7539
50.4409
46.5386
43.5932
41.3233
39.5444
38.1302
36.9906
36.06
35.2888
34.6394
34.0828
33.5967
33.1637
32.7708
32.408
32.0681
31.7475
31.4424
31.1512
30.8736
30.6103
30.3628
30.1338
29.9268
29.747
29.6009
29.4973
29.4472
29.4652
29.5697
29.7849
30.1413
30.6758
31.4553
32.5054
33.844
35.4468
37.2151
39.1724
41.3481
43.8124
46.5818
49.649
52.995
56.5764
60.3298
64.1866
68.0766
71.8968
75.5569
79.009
82.2131
85.0738
87.5473
89.6089
91.2197
92.4328
93.2826
93.7959
93.9935
93.901
93.5443
92.9478
92.1396
91.1442
90.0115
88.8004
87.544
86.2678
84.9915
83.7283
82.4937
81.3005
80.1601
79.0833
78.0801
77.1593
76.3293
75.5986
74.9765
74.4749
74.1108
73.9088
73.9021
74.1291
74.6267
75.4205
76.5101
77.8729
79.476
81.2788
83.2373
85.3109
87.4646
89.6706
91.9071
94.1576
96.41
98.6551
100.886
103.099
105.288
107.451
109.585
111.69
113.765
115.807
5561.52
1209.11
399.872
194.563
124.484
92.319
74.5182
63.453
56.0353
50.8003
46.9683
44.0866
41.8741
40.1462
38.7763
37.6743
36.774
36.026
35.3925
34.8446
34.3603
33.9228
33.5194
33.141
32.7812
32.4356
32.1014
31.777
31.4636
31.1609
30.8701
30.5931
30.3321
30.0903
29.8713
29.6803
29.5233
29.4082
29.3449
29.3459
29.4268
29.6073
29.9128
30.3707
31.0227
31.9301
33.076
34.4696
36.048
37.7623
39.6196
41.6554
43.9142
46.391
49.069
51.9247
54.9195
57.9995
61.1066
64.1859
67.1807
70.0242
72.6624
75.0638
77.2395
79.1309
80.717
81.9895
82.9191
83.5438
83.8905
83.976
83.824
83.4585
82.9157
82.2447
81.4876
80.6713
79.8185
78.9483
78.078
77.2173
76.3805
75.5806
74.8297
74.1388
73.5183
72.9794
72.5346
72.2005
72.0004
71.9661
72.137
72.5558
73.259
74.2629
75.5559
77.1064
78.8788
80.8287
82.913
85.0936
87.3395
89.6268
91.9374
94.2579
96.5789
98.8934
101.196
103.484
105.753
108.001
110.226
112.425
114.599
116.746
5561.43
1203.28
396.405
193.544
124.15
92.2567
74.6145
63.6666
56.3458
51.1952
47.4383
44.6238
42.471
40.7956
39.4709
38.4066
37.5364
36.8107
36.1918
35.6511
35.1669
34.7228
34.3071
33.9113
33.5298
33.1591
32.797
32.4429
32.0968
31.759
31.4304
31.114
30.8109
30.5231
30.2535
30.005
29.7813
29.587
29.4279
29.311
29.2448
29.2402
29.3103
29.471
29.7423
30.1488
30.7136
31.484
32.4818
33.6811
35.0759
36.5906
38.2132
39.9334
41.7824
43.7892
45.9412
48.2178
50.5959
53.0405
55.5078
57.9531
60.3347
62.6174
64.7749
66.7711
68.579
70.1863
71.6172
72.8384
73.8248
74.5421
75.0198
75.2756
75.3296
75.2157
74.9725
74.6311
74.2181
73.7604
73.276
72.7789
72.2766
71.7842
71.3154
70.8832
70.5002
70.18
69.9389
69.7986
69.7886
69.9474
70.3201
70.9511
71.8736
73.0904
74.5768
76.3022
78.2252
80.3017
82.4911
84.7595
87.0804
89.4338
91.8053
94.1847
96.565
98.9411
101.31
103.668
106.013
108.344
110.659
112.956
115.232
117.488
5561.35
1198.19
393.098
192.537
123.817
92.2049
74.7316
63.9087
56.6906
51.6285
47.9495
45.2042
43.1126
41.4905
40.2114
39.1847
38.344
37.6398
37.0345
36.4997
36.0141
35.5621
35.1326
34.7181
34.3137
33.9168
33.5262
33.1417
32.7639
32.3937
32.0323
31.6813
31.3417
31.0154
30.7056
30.414
30.1428
29.8953
29.6749
29.4857
29.3329
29.2226
29.1624
29.1614
29.2304
29.3825
29.6329
30.0011
30.5057
31.1664
32.0297
33.0722
34.2678
35.6046
37.0186
38.5079
40.0611
41.6986
43.4436
45.2781
47.1682
49.0937
51.0333
52.9613
54.8494
56.6721
58.4069
60.0379
61.5597
62.9586
64.2337
65.4013
66.3895
67.1724
67.7549
68.1529
68.3978
68.5191
68.5422
68.4908
68.3862
68.2501
68.0889
67.9125
67.7362
67.574
67.4405
67.3516
67.3276
67.3952
67.59
67.9565
68.5437
69.3962
70.5342
71.9492
73.6118
75.4884
77.5366
79.7144
81.9852
84.32
86.6967
89.0996
91.5177
93.9435
96.3724
98.8011
101.227
103.65
106.067
108.478
110.881
113.274
115.656
118.023
5561.26
1193.97
390.017
191.568
123.5
92.1734
74.8751
64.182
57.07
52.0988
48.4996
45.8246
43.7949
42.2266
40.9931
40.0039
39.1925
38.5092
37.9168
37.3871
36.8994
36.4386
35.9946
35.5606
35.1327
34.7092
34.2895
33.8744
33.4648
33.0623
32.6683
32.2845
31.9123
31.5533
31.2092
30.8813
30.5717
30.2837
30.0188
29.7799
29.5702
29.3934
29.254
29.1573
29.1098
29.1189
29.1935
29.3441
29.5826
29.9227
30.3818
30.9689
31.6963
32.5994
33.6326
34.7667
35.9983
37.2868
38.629
40.0318
41.4494
42.9081
44.4104
45.9407
47.472
48.9933
50.4931
51.9582
53.3789
54.7482
56.0641
57.3316
58.5602
59.6959
60.6675
61.4712
62.1253
62.651
63.0679
63.3947
63.6498
63.851
64.0121
64.14
64.2488
64.3526
64.4666
64.6095
64.8047
65.0838
65.488
66.0663
66.8692
67.9379
69.2793
70.8675
72.6796
74.6784
76.8228
79.0745
81.4021
83.7813
86.1946
88.63
91.0796
93.5388
96.0047
98.4759
100.952
103.431
105.914
108.4
110.888
113.375
115.861
118.342
5561.17
1190.71
387.22
190.662
123.213
92.1686
75.0471
64.486
57.4817
52.6025
49.0836
46.4794
44.5119
42.9975
41.8098
40.8581
40.076
39.4138
38.8343
38.3097
37.8199
37.3504
36.8919
36.4384
35.987
35.5368
35.0881
34.6423
34.2011
33.7663
33.3398
32.9234
32.5189
32.1279
31.7518
31.3923
31.0508
30.7289
30.428
30.1502
29.8987
29.6752
29.4824
29.3239
29.2032
29.1249
29.0943
29.1175
29.2015
29.3546
29.586
29.9046
30.321
30.8473
31.4818
32.2245
33.0938
34.0528
35.0661
36.1534
37.3151
38.5041
39.7193
40.9471
42.1601
43.3795
44.6107
45.8426
47.0682
48.2901
49.511
50.734
51.9686
53.2297
54.4171
55.4864
56.437
57.2771
58.0159
58.665
59.2354
59.7396
60.1867
60.5925
60.9661
61.3198
61.6694
62.0346
62.4421
62.9279
63.538
64.3246
65.3391
66.6058
68.119
69.8541
71.7852
73.8753
76.0863
78.3851
80.7454
83.1477
85.5786
88.0297
90.496
92.975
95.4659
97.9686
100.484
103.012
105.553
108.108
110.675
113.253
115.841
118.436
5561.08
1188.56
384.77
189.845
122.967
92.1947
75.2476
64.8178
57.9208
53.1334
49.6948
47.1614
45.256
43.7957
42.6539
41.7403
40.988
40.3477
39.782
39.2636
38.7727
38.2955
37.8233
37.3512
36.877
36.4008
35.9235
35.4474
34.9746
34.5075
34.0484
33.5994
33.1625
32.7395
32.3318
31.9411
31.5688
31.2161
30.8844
30.5752
30.2899
30.0298
29.7968
29.5939
29.423
29.2865
29.1878
29.1304
29.1185
29.1568
29.2509
29.4063
29.6294
29.9265
30.3006
30.754
31.288
31.8945
32.5673
33.3185
34.1859
35.1093
36.0691
37.0709
38.113
39.1656
40.223
41.2662
42.299
43.3486
44.426
45.5336
46.6868
47.9015
49.1631
50.3657
51.4964
52.5507
53.5267
54.4259
55.2501
56.0007
56.6978
57.349
57.9597
58.5406
59.1062
59.6773
60.2836
60.965
61.7708
62.754
63.9627
65.4067
67.0597
68.9093
70.9265
73.0767
75.3261
77.6468
80.0173
82.4227
84.8534
87.3041
89.7724
92.2577
94.7611
97.2839
99.8279
102.395
104.985
107.601
110.241
112.904
115.59
118.295
5560.99
1187.68
382.718
189.136
122.768
92.2523
75.4736
65.1721
58.3807
53.684
50.3248
47.8616
46.0182
44.6121
43.5169
42.6421
41.9212
41.3043
40.7545
40.2444
39.7546
39.2719
38.7881
38.2991
37.8036
37.3025
36.7976
36.2917
35.7876
35.2883
34.7965
34.3146
33.8449
33.3894
32.9498
32.5277
32.1246
31.7417
31.3802
31.0414
30.7261
30.4355
30.1708
29.9333
29.7242
29.5449
29.3982
29.2858
29.2098
29.1731
29.1788
29.23
29.3302
29.4828
29.6897
29.9518
30.2701
30.6427
31.0694
31.5551
32.1083
32.7165
33.3753
34.0996
34.9113
35.7636
36.6443
37.5614
38.5045
39.4658
40.4505
41.4497
42.5057
43.6469
44.8798
46.1183
47.3352
48.5139
49.6463
50.7217
51.7282
52.6782
53.5877
54.4504
55.268
56.0486
56.8062
57.5627
58.3504
59.2123
60.2
61.3683
62.7457
64.3277
66.092
68.0244
70.0969
72.2783
74.5401
76.8595
79.2198
81.6101
84.0242
86.4593
88.9154
91.3938
93.8971
96.4281
98.9896
101.584
104.215
106.882
109.586
112.328
115.106
117.918
120.76
5560.9
1188.17
381.108
188.548
122.62
92.3384
75.719
65.5412
58.8527
54.2449
50.964
48.5704
46.7887
45.4369
44.3891
43.5548
42.8672
42.2766
41.7459
41.2475
40.7623
40.2774
39.7851
39.282
38.7676
38.2434
37.7123
37.1776
36.6429
36.1116
35.5869
35.0717
34.5685
34.0798
33.6073
33.1531
32.7185
32.3049
31.9136
31.5455
31.2015
30.8823
30.5888
30.3216
30.0814
29.8691
29.6857
29.5323
29.4099
29.3205
29.2655
29.2463
29.2648
29.3224
29.42
29.5581
29.7369
29.9559
30.2153
30.5168
30.8625
31.2499
31.6789
32.1555
32.6861
33.2614
33.8856
34.5882
35.3677
36.1952
37.0779
38.0321
39.0534
40.1622
41.3653
42.6051
43.857
45.0983
46.3162
47.5038
48.6591
49.7818
50.868
51.9082
52.9019
53.8535
54.7774
55.6969
56.6461
57.6704
58.8221
60.1538
61.6756
63.3612
65.2046
67.1887
69.2876
71.4745
73.7259
76.0238
78.3559
80.7147
83.0971
85.5027
87.9333
90.392
92.8828
95.4098
97.9772
100.589
103.248
105.956
108.716
111.527
114.389
117.301
120.258
5560.81
1189.83
379.91
188.072
122.513
92.4436
75.9738
65.9146
59.3261
54.8053
51.6016
49.2767
47.5565
46.2596
45.2603
44.4685
43.8173
43.2569
42.7496
42.2678
41.7921
41.3096
40.8131
40.2998
39.7697
39.2253
38.67
38.108
37.5435
36.9805
36.4228
35.8737
35.3363
34.8133
34.3069
33.8192
33.352
32.9067
32.4846
32.0868
31.7138
31.3664
31.0451
30.7502
30.4819
30.2408
30.027
29.8409
29.683
29.5539
29.4541
29.3843
29.3451
29.337
29.36
29.4141
29.499
29.6143
29.7596
29.9353
30.1416
30.378
30.6448
30.9446
31.2805
31.6527
32.0667
32.5357
33.0681
33.6659
34.3499
35.1643
36.0877
37.1269
38.2859
39.5397
40.8254
42.1355
43.4435
44.7389
46.0277
47.2958
48.5281
49.7144
50.8528
51.9474
53.0123
54.0717
55.162
56.3299
57.6295
59.0977
60.7275
62.4891
64.3822
66.39
68.4901
70.6601
72.8814
75.1405
77.4288
79.7421
82.0795
84.4429
86.8358
89.2628
91.7291
94.2403
96.8016
99.4179
102.094
104.832
107.636
110.507
113.445
116.448
119.515
5560.72
1192.76
379.143
187.704
122.44
92.5569
76.2257
66.2797
59.7884
55.3533
52.2259
49.9694
48.3106
47.0689
46.1197
45.3729
44.762
44.2366
43.7585
43.2994
42.8393
42.3654
41.8704
41.3519
40.8105
40.2494
39.6728
39.0855
38.4925
37.8985
37.3078
36.7244
36.1518
35.5932
35.0514
34.5288
34.0274
33.5489
33.0948
32.6659
32.2631
31.887
31.5377
31.2154
30.9202
30.652
30.4107
30.1962
30.0083
29.8469
29.712
29.6035
29.521
29.4645
29.4335
29.4274
29.4457
29.4875
29.5522
29.6393
29.7484
29.8792
30.0316
30.2071
30.4075
30.635
30.8947
31.1954
31.5459
31.9573
32.4497
33.0532
33.7835
34.665
35.7162
36.9362
38.2444
39.6145
41.0117
42.4141
43.8127
45.1946
46.5422
47.8461
49.1006
50.3115
51.4927
52.6698
53.8801
55.172
56.5999
58.1787
59.8818
61.6926
63.6089
65.6161
67.6958
69.8301
72.0051
74.211
76.4426
78.6983
80.9796
83.2898
85.634
88.0183
90.449
92.9327
95.4761
98.0853
100.766
103.522
106.358
109.277
112.279
115.365
118.532
5560.63
1197.02
378.83
187.447
122.394
92.6671
76.4615
66.6227
60.226
55.8758
52.8247
50.6366