/*--------------------------------*- C++ -*----------------------------------*\
  =========                 |
  \\      /  F ield         | OpenFOAM: The Open Source CFD Toolbox
   \\    /   O peration     | Website:  https://openfoam.org
    \\  /    A nd           | Version:  10
     \\/     M anipulation  |
\*---------------------------------------------------------------------------*/
FoamFile
{
    format      ascii;
    class       volVectorField;
    location    "80000";
    object      Urel;
}
// * * * * * * * * * * * * * * * * * * * * * * * * * * * * * * * * * * * * * //

dimensions      [0 1 -1 0 0 0 0];

internalField   nonuniform List<vector> 
17969
(
(0.118433 -0.151945 0)
(-0.0173114 -0.120903 0)
(0.000380196 -0.0974724 -4.09487e-18)
(0.00477654 -0.0720103 5.2671e-18)
(0.0109236 -0.0412662 -2.08666e-18)
(0.0216529 0.000220899 -1.87501e-18)
(0.0389182 0.0596345 1.64529e-18)
(0.0632018 0.139009 0)
(0.0929337 0.232033 7.26307e-20)
(0.12601 0.329149 0)
(0.159887 0.421381 0)
(0.192296 0.502478 0)
(0.221697 0.569472 0)
(0.24673 0.621249 -4.88963e-19)
(0.267352 0.659582 4.65046e-19)
(0.284101 0.687223 0)
(0.297313 0.706541 -3.61765e-19)
(0.307622 0.719765 3.31965e-19)
(0.315748 0.728604 -3.02076e-19)
(0.322247 0.734317 2.77097e-19)
(0.327563 0.737826 0)
(0.332039 0.739775 0)
(0.335926 0.740589 -2.64864e-20)
(0.339404 0.740527 0)
(0.342592 0.739748 0)
(0.345567 0.738344 1.65304e-19)
(0.348378 0.736374 -3.08038e-19)
(0.351053 0.733872 1.44123e-19)
(0.353609 0.730864 1.342e-19)
(0.356056 0.727367 -1.66555e-20)
(0.358399 0.723393 -1.49753e-19)
(0.36064 0.718951 0)
(0.362781 0.714046 1.06989e-19)
(0.364821 0.708682 -2.3007e-19)
(0.366759 0.702862 7.45187e-22)
(0.368591 0.696587 1.86655e-19)
(0.370317 0.689858 -8.9814e-20)
(0.371932 0.682674 -1.0703e-19)
(0.373433 0.675034 6.22471e-20)
(0.374817 0.666938 0)
(0.37608 0.658384 1.92171e-20)
(0.377219 0.649369 1.85495e-20)
(0.378229 0.639893 1.42238e-19)
(0.379105 0.629951 -1.39013e-19)
(0.379845 0.619541 -1.3305e-19)
(0.380444 0.608659 -3.09704e-20)
(0.380897 0.597302 1.26331e-19)
(0.381199 0.585464 1.20957e-19)
(0.381345 0.573141 -1.57157e-21)
(0.381331 0.560327 -1.15368e-19)
(0.381152 0.547016 -1.38301e-19)
(0.380801 0.5332 1.35879e-19)
(0.380272 0.518873 0)
(0.379561 0.504025 0)
(0.37866 0.488647 2.48237e-20)
(0.377564 0.47273 1.43445e-19)
(0.376265 0.456262 -9.42243e-20)
(0.374756 0.439233 0)
(0.37303 0.421628 0)
(0.37108 0.403435 4.16133e-20)
(0.368898 0.384639 -8.39484e-20)
(0.366475 0.365224 0)
(0.363805 0.345174 0)
(0.360878 0.324471 -3.80558e-20)
(0.357686 0.303096 -7.23439e-20)
(0.354222 0.281028 3.79089e-20)
(0.350476 0.258246 6.99284e-20)
(0.346441 0.234727 0)
(0.342109 0.210446 0)
(0.337472 0.18538 0)
(0.332523 0.1595 5.85618e-20)
(0.327255 0.132781 -4.2744e-21)
(0.321663 0.105194 -1.13456e-19)
(0.315741 0.0767115 0)
(0.309573 0.0477297 5.04272e-20)
(0.303346 0.0190708 4.73565e-20)
(0.297167 -0.00885197 -4.39911e-20)
(0.291045 -0.0360409 0)
(0.284995 -0.0624983 0)
(0.279029 -0.0882809 0)
(0.273136 -0.113461 0)
(0.267335 -0.138069 0)
(0.261635 -0.162107 5.32963e-20)
(0.256032 -0.185576 -8.9118e-20)
(0.250525 -0.208485 6.04964e-20)
(0.245108 -0.230841 -1.07979e-20)
(0.239783 -0.252642 0)
(0.234566 -0.27384 0)
(0.229493 -0.294321 0)
(0.224605 -0.313937 -1.85664e-20)
(0.2199 -0.332676 2.47158e-20)
(0.215314 -0.350672 1.90722e-20)
(0.21081 -0.368041 -1.88489e-20)
(0.206382 -0.38481 1.37948e-20)
(0.202026 -0.401004 -2.65736e-20)
(0.197739 -0.41665 9.91846e-21)
(0.19352 -0.431778 0)
(0.189366 -0.446421 -4.73341e-21)
(0.185274 -0.460612 4.66506e-21)
(0.181243 -0.474386 2.4702e-22)
(0.13179 -0.145102 0)
(-0.0189644 -0.115963 -1.84385e-17)
(0.00184482 -0.10623 9.92822e-18)
(0.00359824 -0.0934209 1.85136e-19)
(0.00562448 -0.0779858 8.55032e-18)
(0.00962671 -0.0584122 -1.44201e-17)
(0.0165327 -0.0323507 6.63746e-18)
(0.0271706 0.0031716 6.13724e-18)
(0.042833 0.0523138 -5.80789e-18)
(0.0643761 0.117574 -5.22229e-18)
(0.0911433 0.196073 1.04264e-20)
(0.121775 0.281634 3.68009e-18)
(0.154451 0.367366 0)
(0.187091 0.447198 0)
(0.217947 0.516903 -2.30277e-18)
(0.245892 0.574596 2.02709e-18)
(0.269818 0.619596 0)
(0.289803 0.653451 -1.55689e-18)
(0.306341 0.678291 1.48265e-18)
(0.319636 0.695905 0)
(0.330229 0.708078 -1.21907e-18)
(0.338728 0.716188 1.05997e-18)
(0.345612 0.721287 3.24709e-20)
(0.351283 0.724186 0)
(0.356059 0.725485 8.83598e-19)
(0.360186 0.725599 -5.56394e-20)
(0.363844 0.7248 -1.51352e-18)
(0.367162 0.723258 7.03671e-19)
(0.370228 0.721074 -4.08622e-20)
(0.373098 0.718313 6.25511e-19)
(0.375808 0.715014 -5.35654e-19)
(0.37838 0.711201 0)
(0.380827 0.706891 4.38548e-19)
(0.383157 0.702097 -3.88027e-19)
(0.385375 0.696827 0)
(0.387483 0.691085 5.36395e-20)
(0.389483 0.684874 -5.10859e-20)
(0.391373 0.678198 -3.63172e-19)
(0.393152 0.671057 7.67451e-19)
(0.394819 0.663451 -4.79501e-20)
(0.39637 0.655379 -3.65197e-19)
(0.397803 0.64684 -3.89093e-19)
(0.399113 0.637834 6.33276e-19)
(0.400298 0.628356 -6.86779e-19)
(0.401353 0.618406 5.88708e-19)
(0.402273 0.60798 -2.50449e-19)
(0.403053 0.597075 2.73011e-19)
(0.403688 0.585686 -5.979e-19)
(0.404173 0.573809 5.14115e-19)
(0.404502 0.56144 -4.97791e-19)
(0.404668 0.548571 2.12377e-19)
(0.404665 0.535197 -2.91073e-20)
(0.404487 0.52131 0)
(0.404127 0.506903 0)
(0.403576 0.491967 -2.65289e-20)
(0.402828 0.476492 -5.14602e-20)
(0.401875 0.460468 1.98546e-19)
(0.400707 0.443883 -2.93997e-19)
(0.399318 0.426725 -3.73285e-19)
(0.397698 0.408981 5.35357e-20)
(0.395837 0.390636 3.58853e-19)
(0.393728 0.371676 4.26173e-19)
(0.391359 0.352083 -4.21358e-19)
(0.388722 0.33184 4.01773e-20)
(0.385806 0.310927 0)
(0.382602 0.289325 3.84301e-20)
(0.379099 0.26701 2.87993e-19)
(0.375288 0.243961 -2.87757e-19)
(0.371158 0.220151 -1.37404e-19)
(0.366701 0.195556 -1.25814e-19)
(0.361908 0.170147 2.59297e-19)
(0.356769 0.143897 1.83761e-19)
(0.351277 0.116777 2.29221e-19)
(0.345426 0.088758 -2.30277e-19)
(0.339296 0.0602286 -5.28067e-20)
(0.333077 0.0319998 -4.96287e-20)
(0.326877 0.00448278 4.62359e-20)
(0.320707 -0.0223184 8.66585e-20)
(0.314594 -0.0483977 2.34263e-19)
(0.308544 -0.0738161 -9.52468e-21)
(0.302546 -0.0986524 -1.42795e-19)
(0.296625 -0.122931 -3.24525e-20)
(0.290789 -0.146651 0)
(0.285039 -0.169809 1.41618e-20)
(0.279376 -0.192403 -1.25397e-20)
(0.273798 -0.214437 1.14688e-20)
(0.268303 -0.235915 0)
(0.26289 -0.256837 0)
(0.257569 -0.277163 -1.28957e-19)
(0.252369 -0.296788 5.2261e-21)
(0.24733 -0.31556 1.0903e-19)
(0.24247 -0.333417 0)
(0.237727 -0.350499 0)
(0.233053 -0.366968 6.03635e-20)
(0.228449 -0.382857 -1.07867e-19)
(0.223914 -0.398194 5.35132e-20)
(0.219446 -0.413006 0)
(0.215045 -0.427325 0)
(0.210708 -0.441185 -1.20311e-20)
(0.206436 -0.454621 6.88425e-21)
(0.142131 -0.138371 4.06515e-17)
(-0.0198441 -0.108036 -4.49817e-17)
(0.00438474 -0.108174 5.27622e-17)
(0.00490986 -0.102969 -1.58242e-17)
(0.0054356 -0.0953081 3.22695e-19)
(0.00695029 -0.0852175 0)
(0.00966607 -0.0715655 2.31107e-19)
(0.0139837 -0.0530911 0)
(0.0206892 -0.0289297 0)
(0.0303756 0.00199915 3.49635e-19)
(0.0440595 0.0425941 1.62285e-19)
(0.0628299 0.0959938 0)
(0.0865889 0.161738 0)
(0.114557 0.236344 2.24847e-19)
(0.145463 0.314601 -3.0801e-18)
(0.177696 0.391252 2.40783e-18)
(0.209493 0.461804 -2.14731e-18)
(0.239433 0.523121 2.00437e-18)
(0.266603 0.573929 -5.465e-20)
(0.290081 0.613918 -1.6527e-18)
(0.309971 0.644419 1.33871e-18)
(0.326695 0.667085 1.65139e-19)
(0.34039 0.68334 7.68736e-20)
(0.351511 0.694653 0)
(0.360572 0.702168 0)
(0.368001 0.706775 1.04703e-18)
(0.374165 0.709186 -8.05969e-19)
(0.379363 0.709954 -1.06968e-19)
(0.383837 0.709479 -6.42526e-19)
(0.387769 0.708034 7.41036e-19)
(0.3913 0.7058 0)
(0.394527 0.70289 0)
(0.397516 0.699373 7.50243e-20)
(0.400312 0.695295 1.0544e-18)
(0.402943 0.690683 -2.12375e-18)
(0.405429 0.685558 9.43004e-19)
(0.407781 0.679931 5.90514e-20)
(0.410007 0.673812 -1.12571e-19)
(0.412111 0.667208 1.0699e-19)
(0.414098 0.660121 5.06708e-20)
(0.415966 0.652556 0)
(0.417717 0.644512 4.62414e-20)
(0.419347 0.635992 8.91197e-20)
(0.420855 0.626994 -5.93293e-19)
(0.422237 0.617518 7.19781e-21)
(0.42349 0.607562 7.12834e-19)
(0.424607 0.597123 0)
(0.425585 0.586199 -4.97212e-22)
(0.426416 0.574785 -1.41636e-19)
(0.427095 0.562878 0)
(0.427615 0.550472 6.56057e-20)
(0.427968 0.537561 -5.05464e-19)
(0.428147 0.524138 4.96389e-19)
(0.428145 0.510197 0)
(0.427951 0.495729 1.15846e-19)
(0.427558 0.480724 0)
(0.426957 0.465173 -1.0866e-19)
(0.426139 0.449065 -4.15943e-19)
(0.425093 0.432388 4.1014e-19)
(0.423809 0.415129 9.87804e-20)
(0.422277 0.397274 0)
(0.420486 0.378807 -4.56131e-19)
(0.418425 0.359713 9.82357e-19)
(0.416084 0.339973 -9.25374e-21)
(0.413449 0.319568 -1.77557e-19)
(0.410509 0.298478 -9.01075e-20)
(0.407253 0.276681 -6.24819e-19)
(0.403668 0.254152 1.02552e-20)
(0.399743 0.230867 5.87701e-19)
(0.395466 0.206799 1.74273e-21)
(0.390825 0.181919 0)
(0.38581 0.156198 3.7945e-19)
(0.380411 0.129605 1.01819e-19)
(0.374618 0.102112 -4.89853e-19)
(0.368512 0.0740965 0)
(0.36228 0.0463565 0)
(0.356036 0.0192994 -1.00424e-19)
(0.349793 -0.00706439 2.65996e-19)
(0.343587 -0.0327198 -7.66881e-19)
(0.337422 -0.0577242 6.36638e-19)
(0.331288 -0.0821621 -3.82785e-19)
(0.32521 -0.106057 -2.33905e-19)
(0.3192 -0.129406 2.67419e-19)
(0.313258 -0.152205 -2.59633e-19)
(0.307389 -0.174449 4.40136e-19)
(0.301596 -0.196133 -2.09896e-19)
(0.295878 -0.217254 1.75836e-19)
(0.290233 -0.237815 -3.32673e-19)
(0.28466 -0.257811 1.45033e-20)
(0.279165 -0.277209 1.37727e-20)
(0.273768 -0.295919 1.36552e-19)
(0.268502 -0.313792 0)
(0.263406 -0.330729 7.86428e-20)
(0.258421 -0.346883 -1.43487e-19)
(0.253492 -0.362446 2.6892e-21)
(0.248635 -0.377458 6.92649e-21)
(0.243851 -0.391944 4.48709e-21)
(0.239137 -0.405933 5.30182e-21)
(0.234492 -0.419458 2.05321e-20)
(0.229917 -0.432554 6.50736e-22)
(0.148339 -0.132224 -1.31141e-18)
(-0.0197439 -0.100896 -1.01389e-16)
(0.00675114 -0.104894 8.42742e-20)
(0.00647986 -0.10431 1.25388e-18)
(0.00613457 -0.10114 2.49188e-17)
(0.00637088 -0.0965068 1.93054e-17)
(0.0072418 -0.0899678 -2.94928e-19)
(0.00891612 -0.0806219 -1.58248e-17)
(0.0116993 -0.0676062 0)
(0.0158931 -0.0503838 1.30469e-17)
(0.0220861 -0.0285297 -1.18136e-17)
(0.0308752 -0.00134883 0)
(0.0428984 0.0329082 0)
(0.0591107 0.0767562 -2.77575e-19)
(0.0800834 0.131432 2.50967e-19)
(0.105382 0.195444 2.21271e-19)
(0.134239 0.265358 5.97181e-18)
(0.165416 0.336818 -5.3705e-18)
(0.197457 0.40572 0)
(0.228843 0.468669 1.27591e-19)
(0.258375 0.523292 3.9354e-18)
(0.285263 0.568697 -6.48296e-18)
(0.308728 0.604801 2.78567e-18)
(0.328861 0.632703 1.6547e-19)
(0.346016 0.653678 2.45741e-18)
(0.360294 0.668882 -2.30805e-18)
(0.372077 0.679542 -2.28251e-18)
(0.381807 0.686608 2.27356e-18)
(0.389868 0.690839 5.55075e-22)
(0.396598 0.692862 -1.75883e-18)
(0.402282 0.693185 1.65494e-18)
(0.407157 0.692193 0)
(0.411413 0.690161 0)
(0.415198 0.687275 -1.34661e-18)
(0.41862 0.68366 1.4302e-18)
(0.421759 0.679395 -1.18484e-18)
(0.424668 0.674533 1.12315e-18)
(0.427385 0.669107 -9.18706e-19)
(0.429933 0.663142 -1.15667e-19)
(0.432331 0.656654 8.36528e-21)
(0.434589 0.649655 1.78933e-18)
(0.436715 0.642155 -1.7012e-18)
(0.438713 0.634158 7.1338e-19)
(0.440583 0.625671 0)
(0.442326 0.616695 0)
(0.443939 0.607231 -8.82161e-20)
(0.445419 0.59728 -6.74987e-19)
(0.446761 0.586841 5.73599e-19)
(0.447959 0.575911 -4.66616e-19)
(0.449007 0.564487 7.58587e-19)
(0.449898 0.552565 7.22786e-19)
(0.450623 0.54014 -7.04805e-19)
(0.451175 0.527206 0)
(0.451544 0.513756 -3.86494e-19)
(0.451721 0.499783 5.09069e-19)
(0.451697 0.485278 0)
(0.451461 0.470231 1.17118e-19)
(0.451003 0.454632 1.13218e-19)
(0.450312 0.438469 -2.21006e-19)
(0.449376 0.42173 -1.05849e-19)
(0.448183 0.404401 2.06758e-19)
(0.446722 0.386466 7.86231e-19)
(0.444979 0.367911 -9.70333e-19)
(0.442941 0.348716 7.33888e-19)
(0.440596 0.328864 -1.07806e-18)
(0.437928 0.308333 7.04679e-19)
(0.434926 0.287101 -8.28525e-19)
(0.431573 0.265145 8.2068e-19)
(0.427855 0.242437 -1.55044e-19)
(0.42376 0.218952 -7.39091e-19)
(0.419271 0.194659 5.90713e-19)
(0.414376 0.169527 0)
(0.409062 0.143526 -1.32721e-19)
(0.403315 0.116623 0)
(0.397214 0.0891873 0)
(0.390947 0.0619989 0)
(0.384633 0.0354598 5.21735e-19)
(0.378289 0.0095863 -4.08451e-19)
(0.371957 -0.0155962 -1.85584e-19)
(0.365643 -0.0401339 -1.73521e-19)
(0.359334 -0.0641165 7.9847e-20)
(0.353057 -0.0875699 -7.61209e-20)
(0.346828 -0.110491 -2.70817e-19)
(0.340648 -0.132874 2.69925e-19)
(0.334521 -0.154715 2.31045e-19)
(0.328454 -0.176005 -1.78193e-20)
(0.322449 -0.196737 -5.95463e-19)
(0.316508 -0.216903 3.28758e-20)
(0.310628 -0.236501 3.44233e-19)
(0.30481 -0.255522 -3.71227e-20)
(0.299056 -0.273935 1.68203e-20)
(0.293381 -0.291663 -2.09373e-19)
(0.28781 -0.308568 2.01636e-19)
(0.282392 -0.324554 -1.01423e-20)
(0.277078 -0.339789 8.16499e-21)
(0.271818 -0.354469 9.21618e-20)
(0.266643 -0.368629 -1.69837e-19)
(0.261549 -0.382292 8.02064e-20)
(0.256534 -0.395486 3.69081e-20)
(0.251595 -0.408245 -5.53049e-20)
(0.246733 -0.420609 1.95573e-20)
(0.241947 -0.432622 -1.2935e-21)
(0.237241 -0.444335 -2.91074e-20)
(0.232617 -0.455797 2.83412e-20)
(0.152377 -0.126408 8.87342e-17)
(-0.0191476 -0.0949428 0)
(0.00864691 -0.0996627 7.69881e-17)
(0.00809656 -0.101041 6.64495e-19)
(0.00733417 -0.10023 -5.99575e-17)
(0.00692322 -0.0984007 4.47475e-17)
(0.00679757 -0.0956457 -1.81345e-17)
(0.00707409 -0.0915629 0)
(0.00791649 -0.0855045 1.69116e-17)
(0.00955067 -0.0768092 -3.08611e-17)
(0.0122283 -0.0648954 1.37512e-17)
(0.0162024 -0.0492811 -4.03169e-19)
(0.02188 -0.0296492 1.16531e-17)
(0.0298505 -0.00569129 -2.05654e-17)
(0.0405173 0.0235745 8.94691e-18)
(0.0546242 0.0599632 -5.2892e-19)
(0.0730352 0.105304 7.75128e-18)
(0.0957375 0.159431 -6.55889e-18)
(0.122286 0.22052 0)
(0.1519 0.285472 5.421e-18)
(0.183388 0.350709 -5.36738e-18)
(0.215423 0.412992 -2.62286e-19)
(0.246674 0.469686 0)
(0.276101 0.518933 -4.11954e-19)
(0.302992 0.560061 0)
(0.326669 0.593103 2.49565e-18)
(0.347212 0.618945 1.4192e-19)
(0.364914 0.638574 -2.6126e-18)
(0.379849 0.652951 -1.3558e-19)
(0.392339 0.663095 0)
(0.402766 0.669796 0)
(0.411478 0.673702 0)
(0.418787 0.675371 -1.47959e-18)
(0.424967 0.675272 1.60123e-18)
(0.430253 0.673775 -1.86919e-19)
(0.434844 0.671154 1.40373e-18)
(0.438897 0.667605 -1.16378e-18)
(0.442535 0.663263 1.24133e-18)
(0.445846 0.658219 -1.17881e-18)
(0.448895 0.652537 0)
(0.451726 0.64626 1.30314e-18)
(0.45437 0.639418 -9.93977e-19)
(0.456848 0.632035 6.97834e-19)
(0.459172 0.624127 -6.71531e-19)
(0.461351 0.615706 2.12465e-19)
(0.463388 0.60678 -2.02466e-19)
(0.465284 0.597355 0)
(0.467037 0.587434 -1.34934e-21)
(0.468643 0.577018 0)
(0.470096 0.566106 1.17395e-18)
(0.471389 0.554697 -1.46701e-18)
(0.472516 0.542786 1.551e-19)
(0.473467 0.530369 -1.18886e-18)
(0.474233 0.517441 1.01844e-18)
(0.474804 0.503993 -1.3821e-19)
(0.475169 0.490018 0)
(0.475318 0.475507 0)
(0.475239 0.46045 -9.85968e-19)
(0.47492 0.444835 2.5826e-19)
(0.474348 0.428652 9.37029e-19)
(0.473509 0.411885 6.62584e-19)
(0.472392 0.394521 -8.74441e-19)
(0.47098 0.376544 0)
(0.46926 0.357937 0)
(0.467216 0.338681 -1.93319e-19)
(0.464833 0.318755 0)
(0.462093 0.298137 -1.84369e-19)
(0.45898 0.276803 5.12915e-19)
(0.455477 0.254728 -6.84442e-19)
(0.451566 0.231882 3.26084e-19)
(0.44723 0.208236 3.13804e-19)
(0.442452 0.183757 3.01687e-19)
(0.437214 0.158413 0)
(0.431501 0.132169 2.58229e-19)
(0.425386 0.105381 -2.72365e-19)
(0.419061 0.078811 4.78153e-19)
(0.412648 0.0528514 -2.41785e-19)
(0.40617 0.0275235 8.341e-19)
(0.399676 0.00286441 -5.18713e-20)
(0.393172 -0.0211506 1.38115e-19)
(0.386646 -0.0446176 -7.23316e-19)
(0.380123 -0.0675701 5.49918e-19)
(0.373624 -0.0900036 -4.79339e-19)
(0.367152 -0.111912 0)
(0.360711 -0.13329 6.66353e-20)
(0.354308 -0.154128 4.65229e-19)
(0.347948 -0.174419 -9.3317e-20)
(0.341635 -0.194151 -3.57272e-20)
(0.335371 -0.213316 -3.79664e-19)
(0.329158 -0.231904 -1.18092e-21)
(0.322996 -0.249902 1.9892e-19)
(0.316889 -0.267281 -2.63687e-19)
(0.310845 -0.283969 1.99298e-19)
(0.304898 -0.299848 -2.03622e-19)
(0.299084 -0.314877 1.36758e-19)
(0.293372 -0.329254 -1.26587e-19)
(0.287731 -0.343108 0)
(0.28219 -0.35646 0)
(0.27674 -0.369333 4.71856e-20)
(0.271373 -0.38176 -4.08474e-20)
(0.266087 -0.393783 7.88621e-22)
(0.260884 -0.40545 -2.40982e-22)
(0.255767 -0.416817 -2.73032e-20)
(0.250742 -0.427941 2.65343e-20)
(0.15549 -0.120743 -4.05684e-18)
(-0.018443 -0.0896942 2.44092e-16)
(0.0101722 -0.0940646 -1.73797e-16)
(0.0096522 -0.096385 5.20251e-17)
(0.00881505 -0.0966318 0)
(0.00819872 -0.0961129 0)
(0.00771329 -0.0950737 -1.23454e-18)
(0.0073735 -0.0934387 -1.74368e-17)
(0.00726663 -0.0909431 3.24334e-17)
(0.00754278 -0.0871636 -1.60328e-17)
(0.00837793 -0.0815934 0)
(0.00994575 -0.0737112 4.33492e-23)
(0.0124929 -0.0630048 -4.29694e-19)
(0.0162532 -0.0490383 0)
(0.0214938 -0.0315437 7.1176e-19)
(0.0286793 -0.0104137 6.32877e-19)
(0.0382921 0.0149888 -5.62342e-19)
(0.0507368 0.0457369 -5.08875e-19)
(0.0667722 0.0833252 0)
(0.0869725 0.128677 0)
(0.111088 0.181096 3.85055e-19)
(0.138669 0.238714 -6.73951e-22)
(0.168912 0.298842 3.03493e-19)
(0.200698 0.358549 -7.67483e-22)
(0.232806 0.415223 0)
(0.264041 0.46674 -2.13236e-19)
(0.293491 0.511587 -5.70204e-19)
(0.320466 0.549215 -1.72217e-19)
(0.344403 0.579738 0)
(0.365384 0.60386 0)
(0.383623 0.622334 -2.74568e-19)
(0.399179 0.635998 2.58678e-19)
(0.412332 0.645669 1.45392e-18)
(0.423416 0.651992 -2.42878e-19)
(0.432749 0.655528 -2.29701e-19)
(0.440618 0.656782 -1.84759e-18)
(0.447288 0.656194 -1.53674e-18)
(0.452997 0.654122 1.82719e-18)
(0.457949 0.650845 -1.36797e-18)
(0.462312 0.64657 1.30168e-18)
(0.466216 0.641444 -3.04923e-19)
(0.469757 0.635574 0)
(0.473005 0.629034 2.44742e-18)
(0.476011 0.621878 -2.07766e-18)
(0.478806 0.614144 -2.44291e-19)
(0.481412 0.605859 2.31842e-19)
(0.483844 0.597042 2.21968e-19)
(0.486107 0.587708 -1.25287e-18)
(0.488204 0.577864 1.61519e-18)
(0.490134 0.567515 0)
(0.491893 0.556664 -3.67698e-19)
(0.493474 0.545309 0)
(0.494872 0.533449 0)
(0.496076 0.521079 -3.23518e-19)
(0.497078 0.508194 0)
(0.497866 0.494786 -2.9852e-19)
(0.498431 0.480847 2.87089e-19)
(0.498758 0.466369 -1.08921e-18)
(0.498836 0.45134 1.33499e-18)
(0.498651 0.435749 1.0089e-18)
(0.49819 0.419583 -1.2399e-18)
(0.497436 0.40283 4.75971e-19)
(0.496375 0.385472 4.42367e-19)
(0.49499 0.367494 -8.90725e-19)
(0.493264 0.348878 8.3601e-19)
(0.491178 0.329603 -8.28677e-19)
(0.488714 0.309648 3.91066e-19)
(0.485853 0.288988 7.45557e-19)
(0.482573 0.267599 -7.4249e-19)
(0.478853 0.24545 -3.48637e-19)
(0.474673 0.222513 -6.75132e-19)
(0.47001 0.198752 3.12505e-19)
(0.464843 0.174134 8.92023e-19)
(0.45915 0.148622 -3.24055e-19)
(0.453003 0.122557 8.17896e-19)
(0.446591 0.0966758 -1.09422e-18)
(0.440047 0.0713614 4.52892e-21)
(0.4334 0.046637 -6.72502e-19)
(0.426699 0.0225526 1.10942e-18)
(0.419961 -0.000882549 0)
(0.413174 -0.0237707 0)
(0.406355 -0.0461583 1.77541e-19)
(0.399529 -0.0680412 -8.13898e-19)
(0.392703 -0.0894116 6.47284e-19)
(0.385882 -0.110262 4.85628e-19)
(0.379074 -0.130585 -4.19355e-19)
(0.372286 -0.150371 4.0482e-19)
(0.365522 -0.169611 -4.07466e-19)
(0.35879 -0.188293 -5.08709e-20)
(0.352094 -0.206409 4.41616e-20)
(0.345441 -0.223945 3.90324e-20)
(0.338838 -0.240889 0)
(0.332289 -0.257211 0)
(0.325796 -0.272843 2.46162e-20)
(0.319434 -0.287695 2.13286e-20)
(0.313199 -0.301847 1.24947e-19)
(0.307045 -0.315435 -2.36692e-20)
(0.300994 -0.328496 -1.08378e-19)
(0.295041 -0.341054 5.18076e-20)
(0.289172 -0.353145 -5.30764e-20)
(0.283385 -0.364818 -1.03916e-20)
(0.277684 -0.376128 1.00597e-20)
(0.272076 -0.38714 -2.40994e-20)
(0.266568 -0.397922 -1.61232e-20)
(0.158139 -0.115332 -8.9964e-17)
(-0.0177468 -0.0851597 1.2951e-16)
(0.0115407 -0.0889367 -1.90837e-16)
(0.0112177 -0.091797 5.98145e-17)
(0.0104765 -0.0926118 1.19486e-18)
(0.00989574 -0.092711 -2.68617e-17)
(0.00936554 -0.092426 4.24301e-17)
(0.00887901 -0.091811 -1.76656e-17)
(0.0084789 -0.0908104 1.6484e-17)
(0.00822252 -0.0892693 -1.5334e-17)
(0.00817343 -0.0869209 0)
(0.00850925 -0.0834219 4.68592e-19)
(0.00934847 -0.0783686 -1.52014e-17)
(0.0108787 -0.0713056 1.4214e-17)
(0.0133347 -0.0617779 -8.30561e-19)
(0.0168949 -0.0493744 -1.22225e-17)
(0.0218095 -0.0338056 1.18613e-17)
(0.0283826 -0.0149752 1.06341e-17)
(0.037091 0.00729411 -2.35287e-20)
(0.0482468 0.0336982 -7.98703e-18)
(0.0623712 0.0653309 -4.53659e-19)
(0.0801554 0.103268 4.17455e-19)
(0.101807 0.147691 -1.14354e-18)
(0.127065 0.197832 -3.44366e-19)
(0.155452 0.251923 -5.51577e-18)
(0.18615 0.307642 4.92917e-18)
(0.218112 0.362543 -1.55784e-21)
(0.250204 0.414452 4.34305e-19)
(0.281346 0.461571 -3.91085e-19)
(0.310746 0.502651 3.52403e-19)
(0.337679 0.537232 2.86481e-18)
(0.361755 0.565517 -2.65701e-18)
(0.383094 0.58803 2.75165e-19)
(0.401782 0.60534 -1.39869e-21)
(0.417887 0.618225 2.45058e-19)
(0.431653 0.627299 2.31824e-19)
(0.443373 0.633086 -3.72715e-18)
(0.453331 0.636087 2.86393e-20)
(0.461795 0.636773 3.56372e-18)
(0.46902 0.635567 0)
(0.475239 0.632822 0)
(0.480654 0.628821 0)
(0.485434 0.623776 -2.83654e-18)
(0.489708 0.617849 2.4104e-18)
(0.493576 0.611154 0)
(0.497111 0.603776 0)
(0.500361 0.595772 -2.28414e-18)
(0.503362 0.587183 1.70848e-18)
(0.506135 0.57804 1.83151e-18)
(0.508693 0.568359 -1.76495e-18)
(0.511043 0.558155 4.16047e-19)
(0.513186 0.547433 0)
(0.51512 0.536196 0)
(0.51684 0.524445 7.27604e-19)
(0.518339 0.512177 1.38127e-18)
(0.519608 0.499386 -1.01305e-18)
(0.520638 0.486068 -3.18161e-19)
(0.521417 0.472214 0)
(0.521932 0.457815 -1.45952e-18)
(0.522171 0.44286 2.31652e-20)
(0.522117 0.427339 1.37002e-18)
(0.521757 0.411238 -1.04619e-18)
(0.521073 0.394543 5.00239e-19)
(0.520047 0.377239 0)
(0.518661 0.359308 0)
(0.516894 0.340732 4.32335e-19)
(0.514725 0.321488 -2.62087e-20)
(0.51213 0.301556 -2.68523e-20)
(0.509087 0.280907 -4.09596e-19)
(0.505569 0.259516 0)
(0.501551 0.23735 7.36253e-19)
(0.497005 0.214376 7.12048e-19)
(0.491905 0.190558 -1.01861e-18)
(0.486223 0.165854 -6.40525e-19)
(0.480025 0.140592 0)
(0.473502 0.11548 -1.71378e-18)
(0.46679 0.0908857 1.40175e-18)
(0.459931 0.0668309 4.983e-21)
(0.452967 0.0433725 -2.40204e-19)
(0.445944 0.0205661 2.24273e-19)
(0.438853 -0.00168056 2.11157e-19)
(0.431681 -0.0234334 0)
(0.424464 -0.0446947 0)
(0.417214 -0.0654565 0)
(0.409937 -0.0857109 -6.13333e-19)
(0.402645 -0.105449 -9.9415e-20)
(0.395345 -0.124663 1.21078e-18)
(0.388046 -0.143344 -5.72322e-19)
(0.380758 -0.161485 -3.68301e-19)
(0.373493 -0.17908 4.15824e-19)
(0.366266 -0.196123 0)
(0.359095 -0.212605 2.89483e-19)
(0.351987 -0.22851 -2.80576e-19)
(0.344936 -0.243808 0)
(0.338013 -0.258425 -4.66428e-20)
(0.331217 -0.272367 -1.40676e-19)
(0.324493 -0.2857 1.37878e-19)
(0.317862 -0.298461 -8.65981e-20)
(0.311319 -0.310682 8.3907e-20)
(0.304852 -0.322412 0)
(0.298464 -0.33371 -1.95806e-20)
(0.292163 -0.344643 1.55074e-20)
(0.285961 -0.355289 2.05088e-20)
(0.279876 -0.365726 -5.81945e-20)
(0.273925 -0.376035 3.98907e-20)
(0.160369 -0.110265 2.86928e-18)
(-0.0170717 -0.0814424 0)
(0.0128287 -0.0846347 -9.72711e-17)
(0.0127487 -0.0878457 6.49678e-17)
(0.0121611 -0.088995 -1.10968e-22)
(0.011699 -0.0894245 -9.08212e-19)
(0.01125 -0.0895099 0)
(0.0107992 -0.0893515 -1.76014e-17)
(0.0103704 -0.0889635 1.63598e-17)
(0.00998976 -0.088315 0)
(0.00969294 -0.0873262 8.75714e-19)
(0.00953352 -0.0858442 0)
(0.00958256 -0.0836458 8.75077e-23)
(0.00998127 -0.0804549 -1.40277e-17)
(0.0108557 -0.0759231 2.79317e-17)
(0.0123741 -0.0696488 -1.35772e-17)
(0.0147524 -0.0612161 1.27922e-17)
(0.0181768 -0.0502324 -2.52881e-17)
(0.0228473 -0.0363888 1.0937e-17)
(0.0289976 -0.0195338 6.20949e-19)
(0.0369464 0.000306152 -5.52547e-19)
(0.047142 0.0235295 -6.86944e-18)
(0.0597721 0.050739 7.95488e-18)
(0.0754038 0.0828166 8.10115e-19)
(0.0946761 0.120545 7.46989e-19)
(0.117492 0.163708 -6.8202e-19)
(0.143606 0.211483 6.14931e-19)
(0.172517 0.262273 0)
(0.20342 0.314047 -1.52508e-21)
(0.235337 0.36471 1.57277e-21)
(0.267204 0.412378 -3.99922e-19)
(0.29806 0.455457 0)
(0.327243 0.492971 0)
(0.353969 0.524589 5.05695e-18)
(0.378074 0.550587 -3.90729e-18)
(0.399728 0.571335 0)
(0.418833 0.587334 -3.94752e-18)
(0.435495 0.599191 6.56786e-18)
(0.449932 0.607396 -4.01675e-18)
(0.462382 0.612413 0)
(0.473087 0.6147 -3.59309e-18)
(0.482287 0.614702 3.05562e-18)
(0.490216 0.61282 7.21763e-19)
(0.497095 0.609393 -3.0674e-18)
(0.503116 0.604696 2.28676e-18)
(0.508438 0.598942 0)
(0.513189 0.592291 2.32903e-18)
(0.517467 0.584859 -2.79498e-18)
(0.521345 0.576732 2.10023e-18)
(0.524874 0.567968 -1.51708e-18)
(0.528092 0.558608 -2.3783e-18)
(0.531022 0.548679 1.83203e-18)
(0.533677 0.5382 -4.3544e-19)
(0.536067 0.527181 1.22971e-18)
(0.538193 0.515626 -2.48623e-20)
(0.540053 0.503539 -1.52079e-18)
(0.541642 0.490916 0)
(0.542952 0.477754 -2.06154e-18)
(0.543974 0.464046 1.97937e-18)
(0.544696 0.449786 -1.27967e-18)
(0.545105 0.434963 0)
(0.545185 0.419566 5.79525e-19)
(0.54492 0.403585 1.66831e-18)
(0.544292 0.387004 5.13577e-19)
(0.543279 0.369808 -2.73747e-20)
(0.541861 0.351981 -5.12503e-19)
(0.540013 0.333502 1.8748e-18)
(0.53771 0.31435 -1.85702e-18)
(0.534924 0.294501 -8.77688e-19)
(0.531626 0.273928 1.65355e-18)
(0.527784 0.252601 -1.23364e-18)
(0.523365 0.230485 -1.54874e-18)
(0.518335 0.207542 2.18399e-18)
(0.51266 0.18373 -7.34711e-19)
(0.506399 0.15936 0)
(0.49974 0.135106 -6.06502e-19)
(0.492826 0.111321 6.35912e-19)
(0.485706 0.0880173 -1.93697e-18)
(0.478417 0.0652408 1.33586e-18)
(0.471041 0.0430833 -4.86738e-19)
(0.463577 0.0215414 -1.11167e-18)
(0.455984 0.000504121 5.57994e-20)
(0.448303 -0.0200558 5.43738e-20)
(0.44055 -0.0401336 7.80266e-19)
(0.432735 -0.059718 8.51848e-19)
(0.424871 -0.078799 -4.95396e-20)
(0.416969 -0.0973693 -4.66516e-19)
(0.409045 -0.115426 1.37104e-19)
(0.401119 -0.132971 -4.65892e-19)
(0.393215 -0.150007 5.68166e-19)
(0.385356 -0.166538 0)
(0.37757 -0.182559 3.18825e-19)
(0.369864 -0.198051 -5.44802e-19)
(0.362231 -0.21299 2.6331e-19)
(0.354731 -0.227314 2.17402e-19)
(0.347306 -0.240966 -1.87455e-19)
(0.339913 -0.253976 1.81932e-20)
(0.332592 -0.266368 -8.49127e-20)
(0.325335 -0.278194 8.51421e-20)
(0.318142 -0.289516 7.62068e-21)
(0.311026 -0.300404 3.82986e-21)
(0.304005 -0.310942 0)
(0.2971 -0.32122 7.00914e-22)
(0.290338 -0.33133 -1.82453e-21)
(0.283743 -0.341361 -2.82617e-21)
(0.277343 -0.351398 1.23808e-19)
(0.271162 -0.361514 -1.2994e-19)
(0.162227 -0.105545 -9.35685e-17)
(-0.016414 -0.0785126 0)
(0.0140686 -0.0811935 1.09173e-16)
(0.0142173 -0.0846454 -6.9253e-17)
(0.0137909 -0.0859939 -1.39549e-18)
(0.0134625 -0.0865996 1.94083e-18)
(0.0131242 -0.0868725 2.34388e-17)
(0.0127609 -0.0869369 -1.95439e-17)
(0.0123921 -0.0868318 -1.00714e-18)
(0.0120324 -0.086563 -1.52097e-17)
(0.0116971 -0.0861136 1.32609e-17)
(0.0114084 -0.0854419 7.94837e-19)
(0.0111999 -0.0844679 6.38344e-23)
(0.0111232 -0.0830569 7.98969e-19)
(0.011244 -0.0810274 8.12489e-19)
(0.0116869 -0.0781519 1.31419e-17)
(0.0125703 -0.0741277 -2.92469e-20)
(0.0140492 -0.0685963 -1.2124e-17)
(0.0163278 -0.0611722 0)
(0.0195911 -0.0514727 -7.22909e-19)
(0.0240236 -0.0391727 -9.34686e-18)
(0.0298239 -0.024055 8.57999e-18)
(0.0372064 -0.00609771 8.78546e-18)
(0.0465121 0.0146753 -7.86375e-18)
(0.0580566 0.0387377 0)
(0.072062 0.0666691 7.90099e-19)
(0.089046 0.0990858 0)
(0.109464 0.136366 6.6992e-19)
(0.13317 0.178161 1.22169e-18)
(0.159872 0.223642 -5.53099e-19)
(0.189047 0.271325 4.99122e-19)
(0.219921 0.319366 -9.02378e-19)
(0.251582 0.365936 8.13814e-19)
(0.283046 0.409407 -6.59105e-18)
(0.313514 0.448361 5.35038e-18)
(0.3423 0.482149 0)
(0.368852 0.510683 4.48529e-18)
(0.393124 0.534161 -3.18318e-18)
(0.415126 0.552856 0)
(0.434766 0.567294 0)
(0.452127 0.577903 4.4696e-19)
(0.467378 0.585079 0)
(0.480704 0.589236 -4.03735e-19)
(0.492302 0.590794 0)
(0.502379 0.590158 -2.55244e-18)
(0.511144 0.587693 2.8041e-18)
(0.518795 0.583709 -6.65962e-19)
(0.52551 0.578457 6.28667e-19)
(0.531439 0.572137 0)
(0.536707 0.5649 -5.6891e-19)
(0.541411 0.55686 5.41365e-19)
(0.545627 0.548098 5.19821e-19)
(0.54941 0.538673 -4.3998e-21)
(0.5528 0.528625 0)
(0.555824 0.517981 1.32755e-18)
(0.5585 0.506759 -2.77433e-20)
(0.560836 0.494969 -1.64561e-18)
(0.562836 0.482617 7.7546e-19)
(0.564499 0.469704 -7.34867e-19)
(0.56582 0.456227 7.22704e-19)
(0.566789 0.442184 -1.34971e-18)
(0.567395 0.427566 1.95508e-18)
(0.567623 0.412365 -1.8875e-18)
(0.567458 0.39657 -1.77993e-18)
(0.566877 0.380171 1.16422e-18)
(0.565859 0.363153 -5.54688e-19)
(0.564378 0.345497 -2.08168e-18)
(0.562407 0.327186 1.03719e-18)
(0.559915 0.308199 -4.4893e-19)
(0.556868 0.288511 2.83198e-18)
(0.553227 0.268091 1.42291e-20)
(0.548955 0.246908 -1.41395e-20)
(0.544009 0.224923 -1.5946e-18)
(0.538347 0.202093 1.55233e-18)
(0.532017 0.178709 -2.25633e-18)
(0.525207 0.155417 -1.3589e-18)
(0.518061 0.132545 2.01516e-18)
(0.510634 0.1101 -1.21549e-18)
(0.502968 0.0881057 2.90353e-18)
(0.495127 0.0666404 -8.41372e-19)
(0.487159 0.0458121 9.7248e-19)
(0.479065 0.0255616 -9.71454e-19)
(0.470841 0.00578107 -1.07722e-18)
(0.462508 -0.0135361 6.44235e-19)
(0.454073 -0.0323734 5.49416e-19)
(0.445551 -0.0507218 -9.13585e-19)
(0.436967 -0.0685818 -1.59926e-19)
(0.428351 -0.0859626 2.70337e-19)
(0.419738 -0.102879 -1.20046e-18)
(0.411161 -0.119345 5.02264e-19)
(0.402651 -0.135366 1.07187e-19)
(0.394222 -0.150947 0)
(0.385859 -0.166043 -3.90263e-20)
(0.377589 -0.180563 2.54725e-19)
(0.369369 -0.194461 -2.77901e-19)
(0.36113 -0.207681 -1.53778e-19)
(0.352919 -0.220232 3.20679e-19)
(0.344746 -0.23216 -1.4124e-19)
(0.336619 -0.243525 9.46332e-20)
(0.328557 -0.254396 -8.87314e-20)
(0.320585 -0.264859 -5.99092e-20)
(0.31273 -0.275009 4.1838e-20)
(0.305026 -0.284947 -1.5799e-20)
(0.297507 -0.294778 2.75011e-20)
(0.290207 -0.304599 0)
(0.283159 -0.3145 3.61775e-21)
(0.276391 -0.324557 0)
(0.269927 -0.334829 -5.12331e-21)
(0.163765 -0.101136 9.51642e-17)
(-0.0157559 -0.0762823 -2.95534e-16)
(0.0152999 -0.0785442 -3.30237e-18)
(0.0156499 -0.0821759 7.2748e-17)
(0.0153812 -0.083644 0)
(0.0151865 -0.084336 -1.02562e-18)
(0.0149658 -0.0846918 -2.46897e-17)
(0.0147062 -0.0848526 3.15125e-20)
(0.0144268 -0.0848707 1.56019e-17)