/*--------------------------------*- C++ -*----------------------------------*\
  =========                 |
  \\      /  F ield         | OpenFOAM: The Open Source CFD Toolbox
   \\    /   O peration     | Website:  https://openfoam.org
    \\  /    A nd           | Version:  10
     \\/     M anipulation  |
\*---------------------------------------------------------------------------*/
FoamFile
{
    format      ascii;
    class       volScalarField;
    location    "57000";
    object      yPlus;
}
// * * * * * * * * * * * * * * * * * * * * * * * * * * * * * * * * * * * * * //

dimensions      [0 0 0 0 0 0 0];

internalField   uniform 0;

boundaryField
{
    right
    {
        type            cyclic;
    }
    left
    {
        type            cyclic;
    }
    outerWall
    {
        type            calculated;
        value           nonuniform List<scalar> 
200
(
18.544
18.5373
18.5365
18.5364
18.537
18.5384
18.5404
18.5426
18.5448
18.5472
18.5494
18.5516
18.5537
18.5557
18.5576
18.5593
18.5609
18.5624
18.5638
18.5651
18.5662
18.5673
18.5684
18.5693
18.5702
18.5711
18.5719
18.5726
18.5733
18.574
18.5747
18.5753
18.576
18.5766
18.5772
18.5778
18.5783
18.5789
18.5794
18.58
18.5805
18.581
18.5816
18.5821
18.5826
18.5831
18.5835
18.584
18.5845
18.5849
18.5853
18.5858
18.5862
18.5865
18.5869
18.5872
18.5876
18.5879
18.5881
18.5884
18.5886
18.5887
18.5889
18.5889
18.589
18.589
18.5889
18.5888
18.5889
18.5872
18.5843
18.5809
18.5771
18.5729
18.568
18.5669
18.5681
18.5699
18.5714
18.5713
18.5246
18.5276
18.5359
18.5447
18.5536
18.5626
18.5716
18.5803
18.5885
18.5962
18.6034
18.61
18.6161
18.6215
18.6264
18.6308
18.6346
18.6379
18.6407
18.643
18.6448
18.6462
18.647
18.6474
18.6473
18.6468
18.6458
18.6443
18.6423
18.6399
18.6369
18.6333
18.6292
18.6243
18.6187
18.6122
18.6044
18.5949
18.583
18.5645
18.5727
18.5767
18.579
18.5803
18.5811
18.5817
18.5793
18.5751
18.5714
18.5689
18.5677
18.5674
18.5681
18.5698
18.5718
18.5736
18.5753
18.5767
18.5779
18.5789
18.5798
18.5805
18.5811
18.5816
18.582
18.5824
18.5827
18.5829
18.5831
18.5832
18.5834
18.5834
18.5835
18.5835
18.5835
18.5835
18.5835
18.5834
18.5833
18.5832
18.5831
18.583
18.5829
18.5827
18.5825
18.5823
18.5821
18.5819
18.5817
18.5814
18.5812
18.5809
18.5806
18.5803
18.5799
18.5796
18.5792
18.5788
18.5784
18.578
18.5775
18.577
18.5764
18.5759
18.5752
18.5746
18.5738
18.573
18.5721
18.5711
18.57
18.5687
18.5673
18.5656
18.5635
18.5611
18.5579
18.5536
18.5476
18.5353
)
;
    }
    stirrerWall
    {
        type            calculated;
        value           nonuniform List<scalar> 0();
    }
    top
    {
        type            empty;
    }
    bottom
    {
        type            empty;
    }
    procBoundary2to3
    {
        type            processor;
        value           uniform 0;
    }
}


// ************************************************************************* //
