/*--------------------------------*- C++ -*----------------------------------*\
  =========                 |
  \\      /  F ield         | OpenFOAM: The Open Source CFD Toolbox
   \\    /   O peration     | Website:  https://openfoam.org
    \\  /    A nd           | Version:  10
     \\/     M anipulation  |
\*---------------------------------------------------------------------------*/
FoamFile
{
    format      ascii;
    class       volScalarField;
    location    "47000";
    object      nut;
}
// * * * * * * * * * * * * * * * * * * * * * * * * * * * * * * * * * * * * * //

dimensions      [0 2 -1 0 0 0 0];

internalField   nonuniform List<scalar> 
17969
(
2.69029e-09
2.70536e-07
2.3748e-06
7.58969e-06
1.34859e-05
1.78422e-05
2.02645e-05
2.17934e-05
2.34204e-05
2.28864e-05
2.18005e-05
2.14504e-05
2.19688e-05
2.33652e-05
2.57417e-05
2.93452e-05
3.46333e-05
4.2409e-05
5.08859e-05
5.68871e-05
6.42262e-05
7.31536e-05
8.38775e-05
9.65586e-05
0.000111314
0.000128202
0.000147204
0.000168209
0.000191047
0.000215517
0.000241409
0.000268516
0.000296648
0.000325632
0.000355318
0.000385579
0.00041631
0.000447421
0.000478839
0.000510505
0.000542365
0.000574377
0.0006065
0.000638697
0.000670932
0.000703171
0.000735377
0.000767512
0.000799538
0.000831411
0.00086309
0.000894526
0.000925671
0.000956473
0.000986878
0.00101683
0.00104626
0.00107512
0.00110333
0.00113082
0.00115752
0.00118336
0.00120824
0.00123209
0.0012548
0.00127627
0.00129639
0.00131505
0.00133209
0.00134739
0.00136077
0.00137205
0.00138105
0.00138753
0.00139124
0.0013921
0.00139029
0.00138602
0.00136129
0.00132879
0.00129902
0.00127156
0.00124607
0.00122233
0.00119987
0.00117877
0.0011607
0.00114975
0.00115128
0.0011676
0.00118863
0.00117674
0.00115974
0.00114325
0.00112745
0.00111251
0.00109907
0.00108769
0.00107834
0.00107094
1.17194e-09
1.21661e-07
1.27344e-06
5.08765e-06
1.04571e-05
1.52466e-05
1.83592e-05
2.01173e-05
2.20599e-05
2.42357e-05
2.66088e-05
2.76403e-05
2.66749e-05
2.61529e-05
2.64069e-05
2.7498e-05
2.94834e-05
3.2531e-05
3.69381e-05
4.32192e-05
5.2175e-05
6.0772e-05
6.70937e-05
7.47249e-05
8.38989e-05
9.48085e-05
0.0001076
0.000122377
0.0001392
0.00015808
0.000178962
0.000201725
0.000226196
0.000252175
0.000279456
0.000307843
0.000337154
0.000367227
0.000397918
0.000429104
0.00046068
0.000492554
0.000524647
0.000556891
0.000589226
0.000621596
0.000653951
0.000686244
0.000718429
0.000750461
0.000782293
0.000813879
0.00084517
0.000876118
0.00090667
0.00093677
0.000966363
0.000995388
0.00102378
0.00105148
0.0010784
0.00110448
0.00112964
0.00115379
0.00117683
0.00119867
0.00121921
0.00123831
0.00125585
0.00127168
0.00128564
0.00129755
0.00130722
0.00131444
0.00131892
0.0013206
0.00131971
0.00131649
0.00128804
0.00125548
0.00122597
0.00119878
0.00117379
0.00115102
0.00113024
0.00111106
0.00109344
0.0010785
0.00106941
0.0010712
0.00108726
0.00111105
0.00111301
0.00109835
0.00108438
0.00107127
0.00105961
0.00104991
0.00104213
0.00103626
6.42367e-10
6.68895e-08
7.36152e-07
3.41578e-06
7.92485e-06
1.25744e-05
1.61378e-05
1.8227e-05
1.99386e-05
2.19647e-05
2.43285e-05
2.70157e-05
2.99712e-05
3.29771e-05
3.22309e-05
3.1508e-05
3.1496e-05
3.22635e-05
3.38744e-05
3.64426e-05
4.01896e-05
4.54318e-05
5.27061e-05
6.27665e-05
7.10379e-05
7.76403e-05
8.55241e-05
9.49057e-05
0.000105961
0.000118821
0.000133579
0.000150289
0.000168964
0.000189578
0.000212056
0.000236273
0.000262064
0.000289238
0.000317597
0.000346952
0.000377125
0.000407954
0.000439298
0.000471032
0.000503045
0.00053524
0.000567534
0.000599849
0.000632115
0.000664271
0.000696256
0.000728014
0.000759489
0.000790629
0.000821377
0.000851679
0.000881478
0.000910716
0.00093933
0.000967257
0.000994428
0.00102077
0.00104621
0.00107066
0.00109404
0.00111624
0.00113716
0.00115669
0.00117469
0.00119103
0.00120554
0.00121806
0.00122838
0.00123632
0.00124159
0.00124415
0.00124424
0.00124216
0.00121297
0.00118068
0.00115144
0.00112456
0.00109992
0.00107762
0.00105766
0.00103993
0.00102424
0.00101059
0.000999742
0.000994072
0.000997629
0.00101387
0.00103926
0.00105115
0.00103928
0.00102828
0.00101871
0.00101099
0.0010051
0.0010011
4.54715e-10
4.69571e-08
5.12148e-07
2.53987e-06
6.33857e-06
1.07277e-05
1.46074e-05
1.73015e-05
1.87862e-05
2.02597e-05
2.209e-05
2.4326e-05
2.69683e-05
2.99889e-05
3.33454e-05
3.68564e-05
3.84571e-05
3.77463e-05
3.74367e-05
3.78484e-05
3.908e-05
4.12137e-05
4.43854e-05
4.88429e-05
5.48903e-05
6.30257e-05
7.39889e-05
8.17958e-05
8.8626e-05
9.66986e-05
0.000106214
0.000117335
0.000130183
0.000144843
0.000161362
0.000179756
0.000200004
0.000222051
0.000245805
0.000271141
0.000297901
0.000325905
0.000354966
0.000384895
0.000415517
0.000446667
0.0004782
0.000509985
0.000541906
0.00057386
0.000605756
0.000637511
0.00066905
0.0007003
0.000731196
0.000761674
0.000791669
0.000821119
0.00084996
0.000878127
0.000905552
0.000932163
0.000957885
0.000982638
0.00100633
0.00102888
0.00105018
0.00107011
0.00108855
0.00110537
0.00112042
0.00113353
0.00114452
0.00115323
0.00115938
0.00116293
0.00116413
0.0011633
0.00113584
0.00110423
0.00107554
0.00104929
0.0010253
0.00100365
0.000984375
0.000967536
0.000953188
0.000941359
0.000932162
0.000926215
0.000925237
0.000932251
0.000950354
0.000977382
0.000992642
0.000984031
0.00097682
0.000971376
0.000967685
0.00096586
0.000966083
0.000968514
0.000973267
0.000980387
3.6947e-10
3.7907e-08
4.0704e-07
2.07208e-06
5.37558e-06
9.48762e-06
1.35412e-05
1.68936e-05
1.91283e-05
2.02964e-05
2.1379e-05
2.27914e-05
2.46578e-05
2.70024e-05
2.98204e-05
3.30906e-05
3.67811e-05
4.07563e-05
4.47344e-05
4.4742e-05
4.42137e-05
4.4322e-05
4.51769e-05
4.68856e-05
4.9555e-05
5.33289e-05
5.84682e-05
6.52369e-05
7.4155e-05
8.58589e-05
9.30472e-05
0.000100025
0.000108197
0.000117752
0.000128846
0.000141592
0.000156071
0.000172328
0.000190372
0.000210183
0.000231708
0.000254865
0.000279546
0.000305617
0.000332923
0.000361292
0.000390545
0.000420503
0.000450993
0.000481853
0.000512934
0.000544103
0.00057524
0.000606235
0.000636993
0.000667423
0.000697443
0.000726974
0.00075594
0.000784269
0.000811886
0.000838716
0.000864682
0.000889702
0.000913691
0.000936557
0.000958204
0.000978523
0.000997401
0.00101471
0.00103032
0.00104409
0.00105587
0.00106549
0.00107271
0.00107747
0.00107999
0.00108055
0.00105729
0.00102688
0.000999108
0.000973901
0.000950956
0.000930344
0.000912109
0.000896311
0.000883092
0.000872646
0.000865183
0.000860988
0.000860659
0.000865437
0.000877499
0.000899659
0.000929184
0.000939036
0.000934442
0.000931531
0.000930322
0.000930967
0.000933653
0.000938535
0.000945714
0.000955217
3.20522e-10
3.27634e-08
3.46932e-07
1.78749e-06
4.73701e-06
8.57556e-06
1.26481e-05
1.64445e-05
1.95568e-05
2.16735e-05
2.27461e-05
2.34344e-05
2.43877e-05
2.57012e-05
2.74956e-05
2.98416e-05
3.27317e-05
3.61469e-05
4.00604e-05
4.43992e-05
4.89021e-05
5.20985e-05
5.17197e-05
5.16059e-05
5.21807e-05
5.35213e-05
5.57352e-05
5.89559e-05
6.33537e-05
6.91885e-05
7.66853e-05
8.63784e-05
9.86513e-05
0.000104755
0.000111795
0.000119979
0.00012949
0.000140475
0.000153043
0.00016727
0.000183193
0.000200818
0.000220114
0.000241023
0.000263459
0.000287316
0.000312465
0.000338763
0.000366054
0.000394173
0.000422952
0.000452225
0.000481828
0.000511609
0.000541425
0.000571142
0.00060064
0.000629807
0.000658538
0.000686738
0.000714315
0.000741178
0.000767242
0.000792418
0.000816618
0.000839752
0.000861724
0.000882437
0.000901785
0.000919661
0.00093595
0.000950531
0.000963279
0.000974064
0.000982622
0.000988863
0.000992986
0.000995241
0.000978981
0.000950337
0.000923788
0.000899952
0.000878418
0.000859236
0.000842452
0.000828092
0.000816272
0.00080723
0.000801299
0.00079889
0.000800495
0.000806726
0.000818429
0.000837231
0.00086528
0.000893904
0.000892128
0.000891972
0.000893492
0.000896869
0.000902284
0.000909878
0.000919732
0.000931852
2.88908e-10
2.9487e-08
3.07698e-07
1.59366e-06
4.27603e-06
7.85491e-06
1.18226e-05
1.58074e-05
1.94994e-05
2.26106e-05
2.48764e-05
2.61051e-05
2.6545e-05
2.70563e-05
2.78182e-05
2.89554e-05
3.05933e-05
3.2836e-05
3.56922e-05
3.91533e-05
4.32016e-05
4.78215e-05
5.27686e-05
5.77269e-05
5.95934e-05
5.96384e-05
6.00873e-05
6.11765e-05
6.30448e-05
6.5816e-05
6.96557e-05
7.47565e-05
8.13618e-05
8.97108e-05
0.000100274
0.000110785
0.000116927
0.000123965
0.0001321
0.000141502
0.000152309
0.000164623
0.000178512
0.000194006
0.000211099
0.000229753
0.0002499
0.000271446
0.000294278
0.000318268
0.000343275
0.00036915
0.000395739
0.000422885
0.000450432
0.000478226
0.000506119
0.00053397
0.000561644
0.000589014
0.00061596
0.00064237
0.000668136
0.000693154
0.000717327
0.000740555
0.000762743
0.000783795
0.000803613
0.0008221
0.000839156
0.000854677
0.000868555
0.00088067
0.000890736
0.000898611
0.000904452
0.000908455
0.000902516
0.000876398
0.000851387
0.000829216
0.000809482
0.000792147
0.00077721
0.000764665
0.000754613
0.000747307
0.000743143
0.000742642
0.00074645
0.000755251
0.000769327
0.000788729
0.000816083
0.000849275
0.000850471
0.000853238
0.000857697
0.000864033
0.000872412
0.000882949
0.000895694
0.00091062
0.000927626
2.6954e-10
2.75044e-08
2.82257e-07
1.46089e-06
3.94402e-06
7.29812e-06
1.11032e-05
1.50841e-05
1.90284e-05
2.2733e-05
2.59825e-05
2.85477e-05
3.02023e-05
3.08622e-05
3.09752e-05
3.12489e-05
3.17579e-05
3.2636e-05
3.40302e-05
3.60623e-05
3.87751e-05
4.21809e-05
4.62754e-05
5.10512e-05
5.63479e-05
6.18653e-05
6.72797e-05
6.82992e-05
6.88648e-05
6.99156e-05
7.15821e-05
7.40382e-05
7.74333e-05
8.19962e-05
8.79285e-05
9.53785e-05
0.000104654
0.000116147
0.000123572
0.000129701
0.000136685
0.000144708
0.000153929
0.000164469
0.000176419
0.000189837
0.000204743
0.000221124
0.000238933
0.000258097
0.000278516
0.000300075
0.000322643
0.000346081
0.000370242
0.000394981
0.000420147
0.000445594
0.000471177
0.000496755
0.000522193
0.000547361
0.000572133
0.000596391
0.00062002
0.000642912
0.000664962
0.000686067
0.00070613
0.000725053
0.000742742
0.000759098
0.000774019
0.000787389
0.000798891
0.000808338
0.000815852
0.000821598
0.000825728
0.000806714
0.000784198
0.000764058
0.000746528
0.000731367
0.000718579
0.000708222
0.000700386
0.000695352
0.000693588
0.000695547
0.00070182
0.000713216
0.000730007
0.000751956
0.00077974
0.000805744
0.000809989
0.000815828
0.000823411
0.000832907
0.000844451
0.000858121
0.000873926
0.000891801
0.000911607
0.000933145
0.000956168
2.60729e-10
2.66211e-08
2.68249e-07
1.37865e-06
3.72414e-06
6.90601e-06
1.05531e-05
1.44455e-05
1.84344e-05
2.23896e-05
2.61728e-05
2.96239e-05
3.25555e-05
3.47565e-05
3.60154e-05
3.63032e-05
3.61489e-05
3.6144e-05
3.63451e-05
3.6889e-05
3.79467e-05
3.96539e-05
4.20918e-05
4.53067e-05
4.93131e-05
5.41081e-05
5.96453e-05
6.56088e-05
7.16745e-05
7.72281e-05
7.84764e-05
7.96814e-05
8.13659e-05
8.36769e-05
8.68194e-05
9.09721e-05
9.63782e-05
0.000103214
0.000111585
0.000121785
0.000131671
0.000137137
0.000143215
0.000150089
0.000157924
0.000166857
0.000176996
0.000188419
0.000201172
0.000215271
0.000230696
0.000247398
0.000265302
0.000284311
0.000304308
0.000325168
0.000346756
0.000368931
0.000391549
0.000414469
0.000437552
0.00046066
0.000483661
0.000506425
0.000528828
0.000550754
0.000572087
0.000592718
0.000612544
0.000631465
0.000649383
0.000666202
0.000681819
0.000696122
0.000708768
0.000719528
0.000728503
0.000735837
0.000741654
0.000741793
0.000724715
0.000707748
0.000692439
0.000679249
0.00066883
0.000661353
0.000656619
0.00065476
0.000656346
0.000661429
0.000669948
0.000682142
0.000698604
0.000720835
0.000748688
0.000763805
0.000771153
0.000780183
0.00079104
0.000803856
0.00081872
0.000835663
0.000854645
0.000875553
0.000898211
0.000922384
0.000947803
0.000974177
2.61482e-10
2.6734e-08
2.64308e-07
1.34035e-06
3.60443e-06
6.67348e-06
1.02027e-05
1.40005e-05
1.79511e-05
2.19666e-05
2.59625e-05
2.98439e-05
3.34957e-05
3.67759e-05
3.95113e-05
4.14981e-05
4.25301e-05
4.25715e-05
4.21492e-05
4.18505e-05
4.17175e-05
4.18793e-05
4.25096e-05
4.37733e-05
4.58047e-05
4.86926e-05
5.24802e-05
5.71782e-05
6.27961e-05
6.90904e-05
7.57054e-05
8.23453e-05
8.85071e-05
9.04566e-05
9.23499e-05
9.47418e-05
9.78054e-05
0.000101755
0.000106817
0.000113166
0.000120873
0.000130161
0.000141119
0.000146166
0.000151585
0.000157552
0.000164228
0.000171755
0.000180253
0.000189814
0.000200507
0.00021237
0.000225412
0.000239613
0.000254926
0.000271281
0.000288585
0.000306732
0.000325598
0.00034506
0.000364987
0.000385244
0.000405692
0.000426202
0.000446644
0.000466895
0.000486832
0.00050634
0.000525311
0.000543641
0.000561231
0.000577982
0.000593798
0.000608564
0.000621923
0.000633616
0.000643727
0.00065239
0.000659725
0.000665854
0.000671011
0.000660714
0.000649473
0.000640398
0.000633781
0.000629903
0.000628759
0.000629935
0.000633242
0.000639201
0.000647662
0.000654458
0.000662404
0.000674797
0.000694082
0.000719759
0.00073421
0.000746555
0.000760817
0.000777081
0.000795383
0.000815693
0.000837917
0.000861891
0.000887393
0.000914159
0.000941896
0.000970303
0.000999085
0.00102796
2.71186e-10
2.77895e-08
2.69668e-07
1.34131e-06
3.57427e-06
6.58854e-06
1.00538e-05
1.37919e-05
1.77013e-05
2.17125e-05
2.57684e-05
2.98121e-05
3.37792e-05
3.75903e-05
4.11452e-05
4.4316e-05
4.69419e-05
4.88264e-05
4.97622e-05
4.96668e-05
4.90012e-05
4.8425e-05
4.79662e-05
4.77232e-05
4.78683e-05
4.86036e-05
5.01113e-05
5.25301e-05
5.59457e-05
6.03962e-05
6.58951e-05
7.23511e-05
7.93995e-05
8.6649e-05
9.38812e-05
0.000100912
0.000104342
0.000107078
0.000110296
0.000114269
0.000119231
0.000125396
0.000132755
0.000141392
0.000151426
0.000156501
0.000161507
0.000166817
0.000172588
0.000178958
0.000186047
0.000193958
0.000202769
0.000212538
0.000223297
0.000235052
0.000247786
0.000261455
0.000276
0.00029134
0.000307377
0.000324004
0.0003411
0.000358551
0.000376235
0.000394027
0.000411802
0.000429445
0.000446846
0.0004639
0.000480505
0.000496563
0.000511978
0.000526641
0.000540185
0.000552334
0.000563153
0.00057276
0.00058127
0.000588804
0.000595525
0.000601687
0.000607177
0.000611956
0.000611786
0.000611014
0.000612916
0.000616582
0.000611712
0.000609725
0.000609493
0.000611478
0.000616435
0.000625436
0.000640263
0.000663258
0.000693511
0.000715107
0.000732891
0.000752706
0.000774525
0.000798255
0.000823737
0.000850753
0.000879038
0.000908297
0.00093822
0.000968499
0.000998844
0.00102899
0.0010587
0.00108777
0.00111605
0.0011434
2.89474e-10
2.97657e-08
2.84001e-07
1.37775e-06
3.62291e-06
6.63341e-06
1.00875e-05
1.38142e-05
1.77168e-05
2.17274e-05
2.58011e-05
2.98984e-05
3.398e-05
3.80025e-05
4.19134e-05
4.56461e-05
4.91143e-05
5.22049e-05
5.47731e-05
5.66365e-05
5.75916e-05
5.75074e-05
5.66868e-05
5.58671e-05
5.51181e-05
5.45044e-05
5.41735e-05
5.43454e-05
5.52439e-05
5.70615e-05
5.99371e-05
6.39515e-05
6.91363e-05
7.55244e-05
8.27984e-05
9.05475e-05
9.84264e-05
0.000106249
0.000113863
0.000120225
0.000124146
0.000128431
0.000133532
0.000139687
0.00014702
0.000155521
0.000162727
0.000167583
0.0001724
0.000177319
0.000182475
0.000187991
0.000193979
0.000200537
0.00020775
0.000215685
0.000224389
0.000233888
0.000244192
0.000255285
0.000267136
0.000279688
0.000292878
0.000306626
0.000320838
0.000335414
0.000350248
0.000365238
0.000380286
0.000395291
0.000410153
0.000424779
0.000439084
0.000452964
0.000466058
0.000478078
0.000489067
0.00049912
0.000508332
0.000516799
0.00052464
0.000532027
0.000539251
0.000546267
0.000552837
0.000559122
0.000565276
0.000571438
0.000576777
0.000575889
0.000575673
0.000577069
0.000580836
0.000588217
0.000600481
0.000619198
0.000646376
0.000680971
0.000707501
0.000730921
0.000756283
0.000783422
0.000812111
0.000842076
0.000873012
0.000904596
0.000936507
0.000968438
0.00100011
0.00103127
0.00106172
0.00109127
0.00111979
0.00114717
3.16352e-10
3.26795e-08
3.07008e-07
1.44596e-06
3.74005e-06
6.7891e-06
1.0277e-05
1.40348e-05
1.79644e-05
2.20024e-05
2.61034e-05
3.02324e-05
3.43599e-05
3.84585e-05
4.25002e-05
4.64526e-05
5.02755e-05
5.39158e-05
5.73022e-05
6.03387e-05
6.28978e-05
6.48135e-05
6.58781e-05
6.59483e-05
6.51365e-05
6.41237e-05
6.31573e-05
6.22579e-05
6.15215e-05
6.11577e-05
6.14182e-05
6.25454e-05
6.47399e-05
6.81435e-05
7.28354e-05
7.88617e-05
8.60802e-05
9.40879e-05
0.000102456
0.000110919
0.00011928
0.000127421
0.000135247
0.000142711
0.000149581
0.000156342
0.000162464
0.000168153
0.000173479
0.000178532
0.000183414
0.000188233
0.000193094
0.000198101
0.000203349
0.000208931
0.000214925
0.000221399
0.00022841
0.000235995
0.000244179
0.00025297
0.000262358
0.000272324
0.000282825
0.000293806
0.000305213
0.000316982
0.000329035
0.000341294
0.000353681
0.000366125
0.000378557
0.000390889
0.000402798
0.000414002
0.000424519
0.000434416
0.000443758
0.000452616
0.000461072
0.000469224
0.00047721
0.000485231
0.000493476
0.000501771
0.000510052
0.000518459
0.000527122
0.000536195
0.000545897
0.000549933
0.000554624
0.000561543
0.000572011
0.000587704
0.000610261
0.000641623
0.000680655
0.000711974
0.000740822
0.000771273
0.00080303
0.000835764
0.000869133
0.000902794
0.000936424
0.000969724
0.00100243
0.00103432
0.00106521
0.00109495
0.00112344
0.00115059
3.52501e-10
3.66091e-08
3.39095e-07
1.54373e-06
3.90392e-06
7.02424e-06
1.05906e-05
1.4427e-05
1.84293e-05
2.25302e-05
2.66824e-05
3.08514e-05
3.50109e-05
3.91401e-05
4.32219e-05
4.72403e-05
5.11784e-05
5.50155e-05
5.87239e-05
6.2264e-05
6.55796e-05
6.8591e-05
7.11882e-05
7.32237e-05
7.44968e-05
7.48533e-05
7.42358e-05
7.31212e-05
7.20333e-05
7.09568e-05
6.99352e-05
6.91287e-05
6.87934e-05
6.92056e-05
7.06224e-05
7.3247e-05
7.72135e-05
8.25932e-05
8.94408e-05
9.73872e-05
0.000105985
0.000114876
0.000123823
0.000132633
0.000141165
0.000149312
0.000157016
0.000164227
0.000170941
0.00017719
0.000183021
0.0001885
0.0001937
0.000198699
0.00020358
0.000208426
0.000213317
0.000218329
0.000223533
0.000228992
0.000234761
0.000240883
0.000247393
0.000254313
0.000261652
0.000269402
0.000277554
0.000286094
0.000294996
0.000304223
0.000313743
0.000323517
0.000333507
0.000343662
0.000353721
0.000363437
0.000372816
0.000381901
0.000390736
0.00039937
0.000407854
0.000416251
0.000424636
0.00043311
0.000441798
0.00045088
0.000460494
0.00047061
0.000481192
0.000492348
0.000504295
0.000517275
0.00053158
0.00054053
0.000550665
0.000564777
0.000584551
0.000611659
0.000647917
0.000691791
0.000728252
0.000761817
0.000796403
0.00083163
0.000867126
0.00090254
0.00093755
0.000971878
0.00100528
0.00103757
0.00106859
0.00109822
0.00112639
0.00115305
3.97901e-10
4.15796e-08
3.80559e-07
1.66072e-06
4.12097e-06
7.35301e-06
1.10352e-05
1.49837e-05
1.90884e-05
2.32773e-05
2.75003e-05
3.17218e-05
3.5916e-05
4.00648e-05
4.41556e-05
4.81802e-05
5.21328e-05
5.60087e-05
5.98019e-05
6.35029e-05
6.70952e-05
7.05516e-05
7.38288e-05
7.68618e-05
7.95559e-05
8.17813e-05
8.3355e-05
8.40814e-05
8.38366e-05
8.28196e-05
8.17017e-05
8.05533e-05
7.93913e-05
7.82891e-05
7.74731e-05
7.72292e-05
7.78519e-05
7.96036e-05
8.26871e-05
8.72315e-05
9.3329e-05
0.000100812
0.000109273
0.000118275
0.000127506
0.000136721
0.000145733
0.000154408
0.000162658
0.00017045
0.00017777
0.000184625
0.000191043
0.000197064
0.000202736
0.000208115
0.00021326
0.000218233
0.000223096
0.000227908
0.00023273
0.000237615
0.000242611
0.000247762
0.000253104
0.000258663
0.000264461
0.000270518
0.000276844
0.000283446
0.000290328
0.000297499
0.000304961
0.00031272
0.00032059
0.000328395
0.000336143
0.000343869
0.000351612
0.000359414
0.000367316
0.000375364
0.000383613
0.000392125
0.000400978
0.000410266
0.000420097
0.000430598
0.00044197
0.000454362
0.000467913
0.000482821
0.00049932
0.000517646
0.000533794
0.000547997
0.000566658
0.000591549
0.000623972
0.000665399
0.000713879
0.000754981
0.00079205
0.000829393
0.000866621
0.000903383
0.000939375
0.00097434
0.00100807
0.00104041
0.00107122
0.00110044
0.00112801
0.00115392
0.00117816
4.52518e-10
4.7576e-08
4.29239e-07
1.80475e-06
4.39506e-06
7.76959e-06
1.15954e-05
1.56802e-05
1.99075e-05
2.42008e-05
2.85072e-05
3.27896e-05
3.70221e-05
4.11877e-05
4.52766e-05
4.92847e-05
5.32121e-05
5.70624e-05
6.08406e-05
6.45521e-05
6.82005e-05
7.1785e-05
7.52982e-05
7.87215e-05
8.20213e-05
8.51428e-05
8.80031e-05
9.04846e-05
9.24225e-05
9.3587e-05
9.38637e-05
9.32159e-05
9.21399e-05
9.10222e-05
8.98494e-05
8.86224e-05
8.74896e-05
8.67215e-05
8.66242e-05
8.75021e-05
8.96138e-05
9.31483e-05
9.82215e-05
0.000104867
0.000112765
0.000121486
0.000130646
0.000139954
0.00014919
0.000158199
0.000166878
0.000175158
0.000183012
0.000190439
0.00019744
0.000204031
0.000210243
0.00021611
0.000221669
0.000226964
0.000232038
0.000236936
0.000241704
0.000246383
0.000251013
0.000255632
0.000260278
0.000264982
0.000269776
0.000274688
0.000279747
0.000284987
0.000290445
0.000296155
0.00030202
0.000307938
0.000313944
0.000320087
0.000326418
0.000332987
0.000339843
0.000347036
0.000354618
0.000362646
0.000371183
0.000380306
0.000390107
0.000400705
0.000412255
0.00042495
0.000439028
0.000454777
0.00047253
0.000492626
0.000515282
0.000535448
0.000554543
0.000578782
0.000609343
0.00064715
0.000693267
0.000745373
0.000789707
0.00082868
0.000867154
0.000904792
0.000941313
0.000976492
0.00101016
0.00104217
0.00107246
0.00110097
0.00112767
0.00115259
0.00117573
5.17634e-10
5.47464e-08
4.84663e-07
1.97457e-06
4.72105e-06
8.2628e-06
1.22529e-05
1.64903e-05
2.08525e-05
2.52587e-05
2.96536e-05
3.39988e-05
3.82685e-05
4.24469e-05
4.65265e-05
5.05063e-05
5.43907e-05
5.81886e-05
6.19115e-05
6.55731e-05
6.91872e-05
7.27666e-05
7.63209e-05
7.9855e-05
8.3366e-05
8.68402e-05
9.02487e-05
9.35428e-05
9.66474e-05
9.94539e-05
0.000101815
0.000103514
0.000104367
0.000104265
0.000103396
0.00010239
0.000101286
0.000100089
9.8828e-05
9.77229e-05
9.70661e-05
9.71728e-05
9.83379e-05
0.0001008
0.000104718
0.000110205
0.00011712
0.000125121
0.000133815
0.000142875
0.000152049
0.000161152
0.000170058
0.000178675
0.000186945
0.000194834
0.00020234
0.000209458
0.000216196
0.000222566
0.000228593
0.000234303
0.000239722
0.000244878
0.000249803
0.000254528
0.000259087
0.000263513
0.000267837
0.000272093
0.000276317
0.000280551
0.000284841
0.000289237
0.000293695
0.000298175
0.000302743
0.000307472
0.000312437
0.000317708
0.000323352
0.000329436
0.000336029
0.000343197
0.000351014
0.000359563
0.000368941
0.000379274
0.00039073
0.000403526
0.000417943
0.000434317
0.000453016
0.000474382
0.00049866
0.000525199
0.00054573
0.000570733
0.000601514
0.00063826
0.0006814
0.000731379
0.000785216
0.000828996
0.000868157
0.000906149
0.000942719
0.000977676
0.00101088
0.00104223
0.00107168
0.0010992
0.0011248
0.00114851
0.00117038
5.94007e-10
6.31195e-08
5.48048e-07
2.17055e-06
5.09454e-06
8.82152e-06
1.29894e-05
1.73887e-05
2.1891e-05
2.64118e-05
3.08937e-05
3.52975e-05
3.95981e-05
4.37814e-05
4.78424e-05
5.17834e-05
5.56129e-05
5.93443e-05
6.29941e-05
6.65816e-05
7.01269e-05
7.36501e-05
7.717e-05
8.07025e-05
8.42595e-05
8.78468e-05
9.14621e-05
9.50922e-05
9.87095e-05
0.000102268
0.000105696
0.000108893
0.00011172
0.000113986
0.000115423
0.000115964
0.000115568
0.000114703
0.000113734
0.000112673
0.000111469
0.000110237
0.000109237
0.000108763
0.000109121
0.000110573
0.000113326
0.000117495
0.000123123
0.000130007
0.000137841
0.000146291
0.00015508
0.00016399
0.000172865
0.000181591
0.000190084
0.000198286
0.000206159
0.00021368
0.000220852
0.000227668
0.00023413
0.000240246
0.000246031
0.000251502
0.000256677
0.000261577
0.000266225
0.000270646
0.000274869
0.00027893
0.000282869
0.000286737
0.000290508
0.000294175
0.000297829
0.000301569
0.000305488
0.000309681
0.000314239
0.000319251
0.000324809
0.000331002
0.000337925
0.000345681
0.000354391
0.000364206
0.000375323
0.000387997
0.000402556
0.000419385
0.000438887
0.000461421
0.000487205
0.000516256
0.000540844
0.000567665
0.000599302
0.000636147
0.000682032
0.000727576
0.000777832
0.000829382
0.000868923
0.000906757
0.000942913
0.00097723
0.0010096
0.00103997
0.0010683
0.0010946
0.0011189
0.00114125
0.0011617
0.00118034
6.82693e-10
7.2763e-08
6.19656e-07
2.39085e-06
5.50799e-06
9.43168e-06
1.37847e-05
1.83493e-05
2.29914e-05
2.76232e-05
3.21854e-05
3.6639e-05
4.09601e-05
4.51368e-05
4.91673e-05
5.30578e-05
5.68213e-05
6.04755e-05
6.40418e-05
6.75441e-05
7.10073e-05
7.44564e-05
7.79155e-05
8.14067e-05
8.49488e-05
8.8557e-05
9.22409e-05
9.60037e-05
9.98404e-05
0.000103735
0.000107659
0.000111565
0.000115385
0.000119021
0.000122341
0.000125178
0.000127273
0.000128453
0.00012867
0.000128078
0.000127297
0.0001264
0.000125395
0.000124243
0.000123135
0.00012233
0.00012211
0.000122743
0.00012445
0.000127382
0.000131618
0.000137137
0.000143758
0.000151237
0.000159292
0.000167687
0.000176234
0.000184791
0.000193252
0.000201536
0.000209581
0.000217345
0.000224795
0.000231912
0.00023869
0.000245122
0.000251206
0.000256943
0.00026234
0.000267408
0.000272159
0.000276614
0.000280804
0.000284761
0.000288455
0.000291885
0.000295158
0.000298387
0.000301684
0.000305161
0.000308931
0.000313104
0.000317796
0.00032312
0.000329196
0.00033616
0.000344164
0.000353394
0.000364091
0.000376565
0.0003912
0.000408434
0.000428709
0.000452384
0.000479641
0.000510418
0.000541392
0.000571187
0.000607602
0.000643138
0.00068181
0.000724339
0.00077069
0.000820073
0.000868348
0.000905975
0.000941282
0.00097459
0.00100581
0.0010349
0.00106188
0.00108675
0.00110958
0.00113044
0.00114938
0.00116651
7.84971e-10
8.38553e-08
6.97287e-07
2.62875e-06
5.94827e-06
1.00748e-05
1.46159e-05
1.93453e-05
2.41233e-05
2.88587e-05
3.34912e-05
3.79826e-05
4.2311e-05
4.64672e-05
5.04534e-05
5.42805e-05
5.79662e-05
6.15334e-05
6.5008e-05
6.84184e-05
7.17936e-05
7.51626e-05
7.85533e-05
8.19915e-05
8.55e-05
8.90982e-05
9.28016e-05
9.66205e-05
0.00010056
0.000104618
0.000108784
0.00011304
0.000117353
0.000121675
0.000125938
0.00013005
0.000133884
0.000137285
0.000140039
0.000141841
0.000142713
0.000142639
0.000142049
0.00014135
0.000140599
0.000139707
0.000138716
0.000137846
0.000137335
0.000137428
0.000138341
0.000140249
0.000143257
0.000147398
0.000152645
0.000158856
0.000165851
0.000173399
0.000181297
0.000189381
0.000197516
0.000205603
0.000213558
0.000221319
0.000228832
0.000236058
0.000242966
0.000249535
0.000255748
0.000261599
0.000267079
0.000272188
0.000276939
0.000281347
0.000285355
0.000288954
0.00029225
0.000295367
0.000298425
0.000301549
0.000304865
0.000308502
0.000312593
0.000317274
0.000322688
0.000329004
0.000336415
0.000345148
0.000355495
0.000367831
0.0003826
0.000400298
0.000421393
0.00044623
0.000474928
0.00050733
0.000542953
0.000580895
0.00061579
0.000652795
0.000691361
0.0007312
0.000772888
0.000816893
0.000861931
0.000903305
0.000937404
0.000969382
0.000999186
0.00102678
0.00105218
0.00107544
0.00109662
0.00111524
0.00112789
0.00113844
9.01713e-10
9.63946e-08
7.8229e-07
2.87819e-06
6.40234e-06
1.07331e-05
1.54619e-05
2.03527e-05
2.52595e-05
3.00883e-05
3.47784e-05
3.92934e-05
4.3615e-05
4.77353e-05
5.16622e-05
5.54122e-05
5.90084e-05
6.24789e-05
6.58548e-05
6.91681e-05
7.24516e-05
7.57382e-05
7.90587e-05
8.24419e-05
8.59129e-05
8.94935e-05
9.32017e-05
9.70512e-05
0.000101051
0.000105206
0.000109513
0.000113966
0.00011855
0.000123241
0.000128004
0.000132789
0.000137529
0.000142134
0.000146486
0.000150432
0.000153801
0.000156311
0.000157804
0.000158361
0.0001581
0.000157634
0.000157095
0.000156558
0.000155883
0.000155183
0.000154665
0.000154529
0.000154976
0.000156168
0.000158239
0.000161254
0.000165215
0.000170103
0.000175819
0.000182228
0.00018917
0.000196465
0.000203963
0.000211543
0.000219102
0.000226558
0.000233841
0.000240892
0.000247663
0.000254113
0.000260209
0.000265928
0.000271264
0.000276204
0.000280664
0.000284614
0.000288154
0.000291404
0.000294488
0.000297534
0.000300673
0.000304045
0.000307796
0.000312085
0.000317072
0.000322949
0.000329952
0.000338359
0.000348517
0.000360864
0.000375908
0.000394187
0.000416175
0.00044217
0.000472191
0.00050594
0.000542768
0.000581907
0.000622656
0.000664278
0.00070605
0.00074543
0.000783681
0.000822217
0.000861211
0.000898534
0.000931208
0.000961637
0.000989799
0.00101571
0.00103937
0.0010604
0.00107579
0.0010881
0.00109793
0.00110554
1.03145e-09
1.10207e-07
8.74305e-07
3.13853e-06
6.86623e-06
1.14005e-05
1.63149e-05
2.13621e-05
2.63894e-05
3.12998e-05
3.60325e-05
4.05527e-05
4.48458e-05
4.89119e-05
5.27635e-05
5.64225e-05
5.99175e-05
6.32822e-05
6.6554e-05
6.97659e-05
7.29544e-05
7.61564e-05
7.94065e-05
8.27353e-05
8.61689e-05
8.97309e-05
9.34409e-05
9.7314e-05
0.000101361
0.000105588
0.000109997
0.000114587
0.000119349
0.000124271
0.000129333
0.000134507
0.000139756
0.00014503
0.00015026
0.000155361
0.000160224
0.000164705
0.000168648
0.000171851
0.000173977
0.000175169
0.000175488
0.000175252
0.000174961
0.000174701
0.000174456
0.000174113
0.000173815
0.000173729
0.000174016
0.000174831
0.000176287
0.000178477
0.000181447
0.000185182
0.000189652
0.000194803
0.000200533
0.000206746
0.000213292
0.000220033
0.000226855
0.00023366
0.000240362
0.000246888
0.000253176
0.000259175
0.000264837
0.000270128
0.000274933
0.000279197
0.000282998
0.000286448
0.000289668
0.00029278
0.000295915
0.000299215
0.000302832
0.000306933
0.000311703
0.000317357
0.00032416
0.00033244
0.000342607
0.000355155
0.000370648
0.000389645
0.000412597
0.00043972
0.000470914
0.000505679
0.000543247
0.000582845
0.000623692
0.000665031
0.000706177
0.000746543
0.000785638
0.00082307
0.000858539
0.000891847
0.000922882
0.000951596
0.000977986
0.00100208
0.00102394
0.00104244
0.00105607
0.00106583
0.00107242
0.00107653
1.17461e-09
1.25228e-07
9.70928e-07
3.408e-06
7.34113e-06
1.20774e-05
1.71721e-05
2.23662e-05
2.75011e-05
3.24778e-05
3.72367e-05
4.17464e-05
4.59967e-05
4.99939e-05
5.37563e-05
5.73117e-05
6.0694e-05
6.39415e-05
6.70949e-05
7.0195e-05
7.32824e-05
7.63968e-05
7.9576e-05
8.2852e-05
8.62479e-05
8.97906e-05
9.35017e-05
9.73962e-05
0.000101485
0.000105775
0.000110271
0.000114972
0.000119873
0.000124966
0.000130239
0.000135674
0.000141247
0.000146929
0.000152679
0.000158446
0.000164165
0.000169752
0.000175105
0.000180095
0.000184565
0.000188371
0.000191263
0.000193027
0.000193976
0.000194196
0.000194142
0.000194095
0.000194188
0.000194309
0.000194374
0.00019452
0.000194876
0.000195555
0.00019667
0.0001983
0.000200497
0.000203298
0.000206697
0.000210638