/*--------------------------------*- C++ -*----------------------------------*\
  =========                 |
  \\      /  F ield         | OpenFOAM: The Open Source CFD Toolbox
   \\    /   O peration     | Website:  https://openfoam.org
    \\  /    A nd           | Version:  10
     \\/     M anipulation  |
\*---------------------------------------------------------------------------*/
FoamFile
{
    format      ascii;
    class       volScalarField;
    location    "47000";
    object      omega;
}
// * * * * * * * * * * * * * * * * * * * * * * * * * * * * * * * * * * * * * //

dimensions      [0 0 -1 0 0 0 0];

internalField   nonuniform List<scalar> 
17969
(
5562.21
1255.09
415.445
241.057
202.965
210.527
246.225
298.622
358.752
421.426
476.863
511.039
521.105
510.572
484.985
450.249
411.299
371.861
334.474
299.985
268.575
240.4
215.386
193.336
173.986
157.068
142.335
129.559
118.514
108.974
100.727
93.5799
87.3623
81.9288
77.1557
72.9393
69.1932
65.8455
62.8365
60.1167
57.6451
55.3875
53.3155
51.4053
49.637
47.994
46.462
45.0294
43.6859
42.423
41.2336
40.1112
39.0507
38.0475
37.0978
36.1981
35.3458
34.5385
33.7741
33.0511
32.3681
31.724
31.1182
30.55
30.0193
29.5259
29.0701
28.6522
28.273
27.9332
27.6342
27.3771
27.1639
26.9964
26.8786
26.8114
26.7909
26.8133
26.8773
26.9803
27.1195
27.2925
27.4975
27.7337
28.0009
28.3005
28.6344
29.0054
29.416
29.8682
30.3639
30.9117
31.5231
32.2055
32.9655
33.8086
34.7225
35.6904
36.718
37.8117
5562.29
1273.24
393.673
198.997
149.62
142.762
158.766
190.469
225.866
265.662
310.948
356.558
398.64
430.665
446.842
447.548
435.181
413.234
385.387
354.75
323.808
294.225
266.572
241.071
217.895
197.05
178.442
161.919
147.299
134.397
123.044
113.081
104.359
96.7295
90.0515
84.1944
79.0413
74.4897
70.4515
66.8517
63.6267
60.7232
58.0962
55.708
53.527
51.5265
49.684
47.9806
46.4004
44.9298
43.5574
42.2734
41.0695
39.9387
38.875
37.8733
36.9293
36.0392
35.2001
34.4094
33.6649
32.9649
32.3081
31.6935
31.1203
30.5882
30.0971
29.6471
29.2389
28.873
28.5506
28.2731
28.0422
27.8598
27.73
27.6533
27.6249
27.6395
27.6969
27.7937
27.9267
28.0933
28.2916
28.5207
28.7807
29.0732
29.4005
29.7663
30.1746
30.6294
31.1333
31.6882
32.301
32.9841
33.7473
34.5971
35.522
36.5079
37.5617
38.6882
5562.35
1286.49
389.368
178.874
121.07
105.359
108.541
125.405
148.474
174.182
202.795
234.36
269.6
304.969
338.014
366.545
385.533
393.242
390.157
378.049
359.327
336.506
311.713
286.724
262.667
239.937
218.771
199.332
181.665
165.73
151.436
138.666
127.286
117.165
108.179
100.214
93.1631
86.9264
81.4072
76.5156
72.17
68.297
64.8327
61.7215
58.9158
56.3747
54.0638
51.9537
50.0194
48.2397
46.5968
45.0753
43.6624
42.347
41.1197
39.9727
38.8991
37.8932
36.9503
36.0662
35.2375
34.4616
33.736
33.0591
32.4295
31.8462
31.3088
30.817
30.371
29.9714
29.6192
29.3154
29.0619
28.8603
28.7149
28.6254
28.586
28.59
28.6378
28.7255
28.8496
29.0075
29.1973
29.4183
29.6707
29.9561
30.2772
30.6377
31.0426
31.4972
32.0064
32.5733
33.1997
33.8904
34.6588
35.5168
36.4538
37.4585
38.5393
39.699
5562.39
1292.49
388.958
169.901
106.526
85.1682
80.1516
85.4187
99.0943
116.169
135.555
157.169
180.954
206.887
235.316
264.336
291.505
315.895
335.145
346.517
349.496
344.625
333.268
317.188
298.181
277.748
257.17
237.235
218.232
200.385
183.839
168.656
154.834
142.324
131.05
120.921
111.838
103.704
96.4285
89.9256
84.117
78.93
74.2966
70.1532
66.4415
63.1085
60.1069
57.395
54.9363
52.6994
50.6572
48.7865
47.0673
45.4828
44.0185
42.662
41.403
40.2324
39.1428
38.1278
37.182
36.3011
35.4812
34.7194
34.0134
33.3614
32.762
32.2146
31.7188
31.2747
30.883
30.5445
30.2607
30.0329
29.8652
29.757
29.7012
29.6899
29.722
29.7949
29.9053
30.0506
30.2291
30.4402
30.6841
30.9625
31.2778
31.6339
32.0357
32.4893
33.0007
33.5755
34.2168
34.9256
35.7064
36.5731
37.5226
38.5466
39.6547
40.8479
42.119
43.4563
44.8445
46.2665
5562.42
1296.03
389.461
166.364
99.8087
75.1595
65.6621
64.0117
68.4686
78.4019
91.0131
105.628
122.455
141.06
161.392
183.354
207.038
231.531
254.693
275.343
293.244
306.176
312.875
313.156
307.594
297.26
283.457
267.49
250.43
233.234
216.467
200.342
185.074
170.792
157.57
145.429
134.352
124.294
115.194
106.98
99.5789
92.9161
86.9213
81.5291
76.6791
72.316
68.3888
64.8505
61.6581
58.7726
56.1586
53.7846
51.6228
49.649
47.842
46.1836
44.6579
43.2515
41.9528
40.7522
39.6412
38.6129
37.6615
36.782
35.9706
35.224
34.5399
33.9165
33.3527
32.8477
32.4016
32.0146
31.6874
31.4209
31.2191
31.0812
30.9993
30.9654
30.9724
31.0229
31.1133
31.2411
31.4048
31.6037
31.8379
32.1087
32.4185
32.7708
33.1705
33.6234
34.1361
34.7153
35.3664
36.0916
36.8906
37.7707
38.7319
39.7749
40.9097
42.1356
43.4443
44.8228
46.2547
47.7212
5562.44
1299.66
391.365
165.964
97.454
70.836
58.8477
53.6847
52.8295
55.7261
62.4111
71.7198
82.4803
95.0832
109.622
125.892
143.537
162.454
182.592
203.733
224.043
242.074
258.063
271.181
279.919
283.712
282.559
276.976
267.779
255.941
242.424
228.019
213.464
199.169
185.301
172.063
159.581
147.937
137.164
127.267
118.222
109.99
102.521
95.7584
89.6421
84.1139
79.1182
74.6029
70.5202
66.8263
63.4814
60.4495
57.6977
55.1964
52.9191
50.842
48.9442
47.2072
45.6147
44.1527
42.8092
41.5737
40.4374
39.3927
38.4335
37.5545
36.7516
36.0214
35.3614
34.7697
34.2451
33.7869
33.3949
33.0694
32.8148
32.6304
32.5076
32.4374
32.411
32.4315
32.4956
32.601
32.7461
32.93
33.1528
33.4151
33.719
34.0676
34.4651
34.9172
35.4305
36.0118
36.6676
37.4021
38.216
39.1092
40.0818
41.1438
42.3051
43.5633
44.9089
46.3273
47.8005
49.3084
5562.45
1303.62
394.851
167.665
97.7092
69.7868
56.3185
49.259
45.7963
44.8943
46.3279
50.3976
56.9656
64.7766
74.0216
84.9119
97.5289
111.77
127.209
143.721
161.165
179.608
197.568
213.865
228.184
240.64
250.286
256.268
258.31
256.485
251.211
243.113
232.931
221.398
209.137
196.686
184.347
172.301
160.718
149.723
139.396
129.782
120.896
112.729
105.259
98.449
92.2565
86.6341
81.5339
76.9085
72.7133
68.9064
65.4496
62.3081
59.4504
56.8482
54.4762
52.3116
50.3341
48.526
46.8713
45.3563
43.9687
42.6981
41.5356
40.4734
39.505
38.6252
37.8295
37.1144
36.4774
35.9166
35.4307
35.0194
34.6883
34.4374
34.2573
34.1383
34.0721
34.0519
34.0817
34.1586
34.2805
34.4459
34.6544
34.9062
35.2025
35.5457
35.9394
36.3886
36.8994
37.4788
38.1337
38.8698
39.6894
40.5885
41.5712
42.6536
43.842
45.1324
46.5138
47.97
49.4812
51.0261
52.583
5562.45
1307.26
399.363
170.628
99.4664
70.5825
56.162
48.0113
43.1859
40.4751
39.3794
39.7782
41.8427
45.8678
51.5506
58.1688
66.0853
75.4994
86.4949
98.9587
112.573
127.179
142.575
158.712
174.822
189.777
202.81
214.214
223.874
231.015
235.145
236.103
233.981
229.114
221.995
213.203
203.295
192.788
182.071
171.36
160.841
150.665
140.95
131.771
123.177
115.189
107.809
101.024
94.8105
89.1352
83.9618
79.2515
74.9655
71.0659
67.517
64.2857
61.3415
58.657
56.2075
53.9707
51.9271
50.0591
48.3513
46.79
45.3636
44.0615
42.875
41.7965
40.8196
39.9391
39.1509
38.4517
37.8395
37.3132
36.8802
36.5413
36.2862
36.1035
35.9839
35.916
35.9052
35.9478
36.041
36.1831
36.3729
36.6099
36.8943
37.2275
37.6121
38.0523
38.5538
39.1235
39.7691
40.4973
41.312
42.2123
43.2069
44.3099
45.5249
46.8458
48.2599
49.7493
51.2927
52.8676
54.4516
56.0242
57.5681
5562.43
1309.87
404.207
174.19
101.99
72.3292
57.2288
48.3888
42.7869
39.1326
36.8226
35.5797
35.3198
36.1116
38.1878
41.7792
46.579
52.1843
58.9317
67.0344
76.603
87.4555
99.4589
112.428
126.129
140.397
155.024
168.822
181.024
191.626
200.766
208.261
213.554
216.357
216.575
214.31
209.842
203.572
195.961
187.445
178.426
169.174
159.871
150.683
141.749
133.169
125.018
117.341
110.165
103.499
97.3379
91.666
86.4607
81.6947
77.3376
73.3584
69.7261
66.4111
63.3854
60.6232
58.1005
55.796
53.6904
51.7667
50.0097
48.4061
46.9443
45.6141
44.4071
43.3161
42.3351
41.4595
40.6862
40.0135
39.4507
39.0002
38.6498
38.3865
38.1991
38.0787
38.0145
38.0121
38.0676
38.1783
38.3413
38.5549
38.8182
39.1313
39.4956
39.9151
40.3954
40.9444
41.5714
42.2847
43.0895
43.9908
44.998
46.1199
47.3576
48.7034
50.1431
51.6574
53.2239
54.819
56.42
58.0064
59.5613
61.0712
5562.41
1311.09
408.953
177.923
104.82
74.4888
58.8482
49.5216
43.4319
39.2419
36.2986
34.2632
32.9634
32.3325
32.3883
33.2378
35.096
38.1719
42.2332
46.9756
52.704
59.6311
67.8184
77.2688
87.8836
99.4833
111.832
124.675
137.93
150.747
162.325
172.338
180.949
188.219
193.969
197.813
199.588
199.253
196.923
192.84
187.335
180.76
173.472
165.752
157.777
149.716
141.715
133.89
126.332
119.108
112.263
105.827
99.8112
94.2187
89.0415
84.2647
79.8694
75.8334
72.1326
68.7424
65.6391
62.8001
60.2037
57.8303
55.6615
53.681
51.8741
50.2279
48.7316
47.3756
46.1518
45.054
44.0772
43.2192
42.4917
41.8988
41.4261
41.0584
40.7825
40.5862
40.4562
40.3921
40.396
40.4616
40.5835
40.7585
40.9848
41.2619
41.5902
41.9744
42.4208
42.9391
43.5412
44.2385
45.0396
45.9448
46.9574
48.0876
49.3363
50.695
52.148
53.6749
55.2521
56.8554
58.4621
60.052
61.6087
63.1194
64.5749
65.9693
5562.38
1310.78
413.308
181.525
107.66
76.7332
60.6285
50.9181
44.485
39.9599
36.6587
34.2111
32.4077
31.1317
30.3284
29.9916
30.1646
30.9519
32.5361
35.1205
38.565
42.5651
47.3698
53.1961
60.1871
68.3895
77.7531
88.1338
99.3159
111.018
123.047
135.037
146.119
155.664
163.887
170.838
176.543
180.85
183.525
184.485
183.739
181.409
177.716
172.925
167.314
161.125
154.527
147.679
140.725
133.787
126.963
120.332
113.953
107.87
102.112
96.6968
91.63
86.9102
82.5306
78.4786
74.7397
71.2969
68.1318
65.2259
62.5612
60.1208
57.8887
55.8506
53.9932
52.3048
50.7752
49.3959
48.1606
47.0655
46.1263
45.3488
44.7156
44.2088
43.813
43.5139
43.2972
43.1471
43.0669
43.0575
43.1121
43.2261
43.3961
43.6203
43.9011
44.2424
44.6507
45.1358
45.7087
46.3817
47.1657
48.0628
49.0708
50.1934
51.4358
52.791
54.2419
55.7669
57.3414
58.9407
60.5421
62.1259
63.6762
65.181
66.6318
68.0233
69.3521
70.6172
71.8184
72.9569
5562.34
1309
416.985
184.781
110.321
78.8723
62.3536
52.314
45.6088
40.8499
37.3268
34.6489
32.5867
31.0006
29.8067
28.9588
28.4412
28.2665
28.4793
29.1673
30.475
32.5896
35.4838
38.8573
42.8787
47.7615
53.6803
60.727
68.9069
78.1278
88.2082
98.8876
109.883
121.074
131.637
140.959
148.882
155.612
161.164
165.542
168.646
170.38
170.72
169.702
167.463
164.189
160.086
155.334
150.081
144.47
138.631
132.675
126.7
120.788
115.005
109.405
104.028
98.9022
94.0482
89.4762
85.1902
81.1883
77.4651
74.011
70.8164
67.8685
65.1546
62.6613
60.3753
58.2853
56.3804
54.6516
53.0918
51.6964
50.4862
49.4697
48.6258
47.9332
47.3739
46.9319
46.5921
46.3382
46.1507
46.0295
45.9861
46.0131
46.1053
46.26
46.478
46.7614
47.1156
47.5477
48.0692
48.6933
49.4333
50.2961
51.2818
52.386
53.6078
54.9434
56.3775
57.8869
59.4465
61.031
62.618
64.1881
65.7261
67.2207
68.6637
70.0502
71.3771
72.6432
73.8485
74.9937
5562.3
1305.96
419.966
187.639
112.708
80.8099
63.9163
53.5872
46.6592
41.716
38.0355
35.2132
33.0063
31.262
29.8815
28.801
27.9816
27.4039
27.0664
26.9859
27.202
27.7856
28.8547
30.5557
32.9521
35.8226
39.1928
43.2628
48.2238
54.2033
61.257
69.3549
78.3715
88.0978
98.2339
108.567
118.628
127.745
135.45
141.964
147.391
151.743
155.025
157.166
158.157
158.043
156.903
154.856
152.029
148.547
144.534
140.105
135.368
130.422
125.356
120.246
115.161
110.154
105.274
100.555
96.0256
91.7054
87.6075
83.7404
80.1071
76.7062
73.5348
70.5862
67.8543
65.3316
63.0104
60.8837
58.9447
57.1895
55.6483
54.335
53.2247
52.2927
51.5182
50.8835
50.3724
49.9701
49.6619
49.431
49.2631
49.1685
49.1519
49.2071
49.3313
49.5251
49.7909
50.1365
50.5744
51.1181
51.7841
52.5849
53.5231
54.5939
55.7871
57.0918
58.4965
59.9795
61.5147
63.0769
64.6435
66.1957
67.7188
69.2018
70.6371
72.0195
73.3463
74.6159
75.8281
76.9835
5562.25
1301.55
422.021
189.989
114.969
82.568
65.2634
54.6481
47.5205
42.4327
38.642
35.7295
33.4419
31.6176
30.1494
28.9646
28.0137
27.2639
26.6956
26.301
26.0837
26.0604
26.2642
26.7511
27.6138
28.9639
30.9185
33.374
36.2073
39.5943
43.7174
48.7302
54.7235
61.7203
69.6519
78.3573
87.5763
97.0316
106.553
115.373
122.987
129.385
134.71
139.036
142.385
144.787
146.23
146.746
146.404
145.275
143.446
141.01
138.058
134.68
130.961
126.983
122.819
118.538
114.2
109.858
105.559
101.34
97.2335
93.264
89.4515
85.8088
82.3458
79.0701
75.9857
73.0929
70.3917
67.8793
65.554
63.4186
61.5152
59.8657
58.445
57.2266
56.1883
55.3113
54.5795
53.9779
53.4931
53.112
52.8215
52.6061
52.456
52.375
52.3701
52.4416
52.5891
52.8188
53.1415
53.5748
54.1389
54.8508
55.7166
56.7339
57.8903
59.1628
60.5323
61.9822
63.4883
65.025
66.5698
68.1042
69.6137
71.0875
72.5182
73.9006
75.2316
76.5095
77.7337
78.9043
5562.19
1296.04
422.8
192.249
116.775
83.8911
66.2566
55.4257
48.1552
42.9702
39.1108
36.1474
33.819
31.9584
30.4533
29.2264
28.2227
27.4034
26.7411
26.2175
25.8223
25.5529
25.4147
25.4227
25.6041
26.0024
26.6885
27.7591
29.3273
31.3987
33.7986
36.6263
40.0353
44.1918
49.208
55.143
61.9855
69.6392
77.9224
86.5499
95.3295
103.748
111.259
117.565
122.827
127.126
130.533
133.083
134.826
135.79
136.019
135.575
134.52
132.918
130.838
128.349
125.518
122.408
119.08
115.591
111.991
108.329
104.645
100.975
97.3522
93.8009
90.3426
86.9961
83.776
80.6931
77.7563
74.9729
72.3488
69.8935
67.6604
65.6873
63.9534
62.4347
61.1105
59.963
58.9768
58.1379
57.4335
56.8516
56.381
56.0108
55.7311
55.5327
55.4038
55.3419
55.3523
55.4435
55.6304
55.9356
56.3797
56.9846
57.7623
58.7132
59.8238
61.0677
62.4114
63.8312
65.3093
66.823
68.3497
69.8708
71.3722
72.843
74.2756
75.6648
77.0071
78.3005
79.5439
80.7369
81.8798
5562.13
1289.75
423.041
193.662
117.935
84.7471
66.9029
55.9384
48.5838
43.346
39.4537
36.4698
34.1286
32.2588
30.7455
29.5085
28.4902
27.6486
26.9529
26.3802
25.9143
25.5447
25.2659
25.0779
24.9867
25.0054
25.1566
25.4754
26.0159
26.8636
28.0973
29.793
31.8511
34.2249
37.046
40.4684
44.6206
49.5816
55.3809
61.974
69.2389
76.9497
84.877
92.776
100.057
106.287
111.5
115.797
119.245
121.917
123.866
125.144
125.797
125.863
125.393
124.441
123.055
121.289
119.195
116.824
114.223
111.439
108.514
105.487
102.394
99.2656
96.1312
93.0157
89.9407
86.9247
83.9837
81.1321
78.3829
75.7514
73.3055
71.0977
69.1157
67.3424
65.7621
64.361
63.1269
62.0482
61.1144
60.3153
59.6412
59.0829
58.6312
58.2773
58.0135
57.8343
57.7383
57.729
57.8156
58.0136
58.3505
58.8549
59.5478
60.4337
61.4998
62.7199
64.0545
65.4644
66.9259
68.4245
69.9415
71.4585
72.9609
74.438
75.882
77.2873
78.6501
79.9679
81.2392
82.4633
83.6397
5562.07
1282.6
422.945
194.281
118.508
85.1932
67.2553
56.2339
48.8484
43.5967
39.7016
36.7216
34.3881
32.5278
31.0239
29.7948
28.7813
27.9402
27.2385
26.6516
26.1607
25.7518
25.415
25.1442
24.9371
24.7952
24.7247
24.7372
24.8519
25.0973
25.5147
26.1705
27.1386
28.5009
30.2531
32.2651
34.6221
37.4386
40.8529
44.9519
49.7843
55.3453
61.5651
68.2973
75.3148
82.4776
89.326
95.4388
100.585
104.873
108.376
111.156
113.274
114.789
115.748
116.197
116.172
115.712
114.864
113.669
112.165
110.393
108.393
106.2
103.85
101.373
98.8003
96.1588
93.4726
90.7637
88.0516
85.3545
82.69
80.078
77.5928
75.2983
73.1936
71.2702
69.5202
67.9362
66.5111
65.2382
64.1105
63.121
62.2629
61.5289
60.9115
60.4033
59.9975
59.6891
59.4763
59.3626
59.3585
59.4824
59.7592
60.2169
60.8799
61.7525
62.8185
64.0469
65.3951
66.821
68.2914
69.7918
71.3126
72.8382
74.3541
75.8494
77.3162
78.7486
80.1426
81.4954
82.8049
84.0699
85.2895
5562
1275.11
421.802
194.066
118.561
85.3061
67.3821
56.3704
48.9986
43.765
39.891
36.9338
34.6235
32.7858
31.303
30.0925
29.0945
28.2649
27.57
26.9841
26.4873
26.0643
25.7032
25.3957
25.1359
24.9207
24.75
24.6264
24.5562
24.5501
24.6243
24.8025
25.1181
25.6207
26.3868
27.4668
28.9153
30.6524
32.6448
34.9803
37.7807
41.1432
45.1202
49.73
54.9392
60.6628
66.7261
72.9603
79.1791
84.9716
90.0226
94.2827
97.8256
100.704
102.97
104.676
105.874
106.606
106.913
106.834
106.397
105.637
104.591
103.292
101.767
100.048
98.1619
96.1361
93.9947
91.7599
89.4523
87.0913
84.6961
82.2877
79.9399
77.7217
75.6427
73.7038
71.9049
70.2456
68.7251
67.3418
66.0937
64.9779
63.9911
63.1292
62.3875
61.7605
61.2433
60.8324
60.5275
60.3341
60.2648
60.3404
60.5871
61.0323
61.6991
62.5907
63.6898
64.963
66.3605
67.8374
69.3584
70.8957
72.442
73.9924
75.536
77.0625
78.564
80.035
81.4713
82.8698
84.2284
85.5452
86.819
88.0488
5561.92
1267.69
419.482
193.162
118.236
85.1929
67.3641
56.4111
49.0854
43.893
40.0574
37.1365
34.8603
33.0543
31.6001
30.4149
29.4385
28.626
27.9435
27.3648
26.8696
26.4421
26.0698
25.7434
25.4558
25.2023
24.9801
24.7885
24.6286
24.5043
24.4217
24.3908
24.4256
24.5462
24.7802
25.1648
25.7607
26.624
27.806
29.304
31.0112
32.9816
35.2887
38.0389
41.286
45.0542
49.3313
54.0645
59.1533
64.4397
69.8251
75.0673
79.8924
84.0639
87.5934
90.529
92.9086
94.7724
96.1618
97.1167
97.6793
97.8819
97.7571
97.3358
96.6422
95.704
94.5483
93.2002
91.6821
90.0147
88.2191
86.3141
84.3182
82.253
80.1858
78.1851
76.2688
74.4453
72.7218
71.1038
69.596
68.2022
66.9249
65.7656
64.725
63.8028
62.9972
62.3058
61.7262
61.2576
60.9029
60.6708
60.5775
60.6471
60.9074
61.3846
62.0948
63.0376
64.192
65.5224
66.9848
68.5315
70.1218
71.7259
73.3268
74.9213
76.5056
78.0733
79.6193
81.1382
82.6262
84.0802
85.4977
86.8768
88.2156
89.5129
5561.85
1260.04
416.921
191.984
117.751
84.9826
67.2862
56.4166
49.1551
44.0176
40.2313
37.3554
35.1203
33.3516
31.9309
30.7748
29.8229
29.0299
28.3619
27.7924
27.3011
26.8719
26.4924
26.153
25.8466
25.5679
25.3133
25.0808
24.8698
24.6812
24.5174
24.3825
24.2828
24.2272
24.2281
24.3023
24.4726
24.7689
25.2344
25.9371
26.9
28.1603
29.6556
31.3439
33.2723
35.5233
38.1638
41.2142
44.675
48.5152
52.678
57.0578
61.5292
66.0374
70.3682
74.3396
77.7871
80.7085
83.1399
85.1087
86.6434
87.7764
88.5397
88.9637
89.0803
88.9158
88.4953
87.8431
86.98
85.9259
84.701
83.3245
81.8121
80.1849
78.5014
76.8251
75.18
73.5806
72.0392
70.5663
69.1713
67.862
66.6452
65.5263
64.5085
63.5961
62.7915
62.0944
61.5061
61.0297
60.6722
60.4471
60.3758
60.4862
60.8076
61.3636
62.1598
63.1852
64.4189
65.8254
67.3583
68.9733
70.6322
72.3052
73.9727
75.6264
77.2654
78.887
80.4854
82.0584
83.6036
85.1182
86.5999
88.0471
89.46
90.8382
5561.77
1252.33
413.797
190.847
117.291
84.7821
67.2168
56.4351
49.2439
44.1677
40.4365
37.6103
35.4196
33.6916
32.307
31.1819
30.2556
29.4827
28.829
28.2684
27.7805
27.3495
26.963
26.6117
26.2886
25.9887
25.7084
25.4454
25.1987
24.968
24.7543
24.5593
24.3861
24.2389
24.1237
24.0485
24.0241
24.0647
24.1892
24.4228
24.7957
25.3607
26.1597
27.2117
28.5176
29.9859
31.6367
33.4975
35.6442
38.1069
40.8857
43.9645
47.3044
50.854
54.5212
58.209
61.8768
65.3859
68.6103
71.4484
73.8506
75.8501
77.469
78.7249
79.6413
80.2436
80.5558
80.6009
80.4022
79.9814
79.3579
78.5499
77.5728
76.4473
75.2209
73.9468
72.6533
71.3603
70.0841
68.8392
67.6383
66.4924
65.4118
64.4056
63.4799
62.6404
61.8942
61.2455
60.6984
60.2607
59.9446
59.7699
59.7638
59.9582
60.3826
61.0565
61.9747
63.1166
64.4547
65.9479
67.5525
69.2301
70.9494
72.6846
74.4164
76.1341
77.8348
79.5162
81.1745
82.8067
84.4118
85.9893
87.5402
89.0646
90.5609
92.0264
5561.69
1244.99
410.085
189.687
116.859
84.6002
67.164
56.4738
49.3587
44.3496
40.6791
37.9083
35.768
34.0835
32.7362
31.6425
30.7415
29.9878
29.347
28.7937
28.3077
27.8732
27.4782
27.1138
26.7737
26.4531
26.1488
25.8588
25.5821
25.3184
25.0679
24.8316
24.6112
24.4088
24.2277
24.0719
23.9469
23.8598
23.82
23.8394
23.9335
24.1226
24.431
24.892
25.5643
26.447
27.5583
28.8611
30.2919
31.8722
33.6314
35.6234
37.8534
40.3109
42.9728
45.7999
48.7483
51.7497
54.7297
57.6444
60.4411
63.0234
65.3301
67.2929
68.9237
70.2429
71.2635
71.9996
72.4695
72.6914
72.6829
72.4612
72.0472
71.4591
70.7317
69.9095
69.0237
68.0969
67.1463
66.1903
65.2442
64.3219
63.4359
62.5979
61.8175
61.1032
60.4634
59.9067
59.4423
59.0827
58.8466
58.7603
58.8573
59.1726
59.7346
60.5508
61.6086
62.8813
64.3331
65.9217
67.6063
69.3516
71.1298
72.92
74.7077
76.4842
78.2443
79.9848
81.7032
83.3977
85.0669
86.7111
88.3332
89.9341
91.513
93.0676
5561.6
1237.98
406.121
188.401
116.357
84.3874
67.1063
56.5253
49.4982
44.5646
40.9607
38.2489
36.1606
34.5214
33.2129
32.1514
31.276
30.5417
29.9141
29.3674
28.8818
28.4419
28.0362
27.6566
27.2981
26.956
26.6276
26.3114
26.0067
25.7134
25.4316
25.1622
24.9062
24.6649
24.4401
24.2343
24.0503
23.8921
23.7644
23.6737
23.6277
23.6367
23.7132
23.8735
24.1385
24.5292
25.0841
25.8429
26.7856
27.9185
29.1822
30.5536
32.0341
33.6563
35.4543
37.4203
39.5392
41.7885
44.1336
46.5386
48.9612
51.3458
53.6461
55.8542
57.9089
59.7599
61.3597
62.6888
63.7645
64.5921
65.1825
65.5479
65.7024
65.6612
65.4464
65.0964
64.6434
64.1122
63.5241
62.897
62.2463
61.5879
60.9369
60.3066
59.7094
59.1564
58.6587
58.228
57.8783
57.6281
57.5032
57.537
57.7679
58.2321
58.9533
59.9281
61.1321
62.5362
64.0996
65.7802
67.5403
69.3491
71.1829
73.0249
74.8636
76.692
78.5056
80.3018
82.0788
83.8356
85.5713
87.2851
88.9768
90.6503
92.3082
93.9496
5561.52
1231.49
402.045
187.043
115.818
84.1648
67.0589
56.6009
49.6713
44.8198
41.2869
38.637
36.6026
35.0099
33.7404
32.7107
31.86
31.1432
30.5264
29.984
29.4966
29.0496
28.6325
28.2376
27.8597
27.4953
27.1419
26.7991
26.4671
26.1455
25.8347
25.5357
25.2493
24.9764
24.7182
24.4764
24.2526
24.0491
23.8686
23.7145
23.5912
23.504
23.4598
23.467
23.5359
23.6792
23.9132
24.2565
24.7276
25.3687
26.1827
27.1489
28.2621
29.4618
30.7454
32.1036
33.5631
35.1482
36.8477
38.6476
40.5287
42.462
44.4157
46.366
48.2792
50.1231
51.8875
53.5506
55.0622
56.358
57.446
58.3257
59.0014
59.48
59.7675
59.8847
59.8618
59.7274
59.508
59.2226
58.8871
58.514
58.1201
57.7204
57.3294
56.9604
56.6272
56.3451
56.133
56.0156
56.026
56.204
56.5917
57.2243
58.1133
59.2453
60.5928
62.1195
63.7834
65.545
67.3704
69.2334
71.1148
73.0013
74.8841
76.7579
78.6197
80.4675
82.3004
84.1178
85.9191
87.7037
89.471
91.2208
92.9546
94.6767
5561.43
1225.62
397.991
185.667
115.27
83.9519
67.0354
56.7099
49.8843
45.1193
41.6602
39.0742
37.0948
35.5488
34.3181
33.3195
32.4923
31.7915
31.1837
30.6436
30.1523
29.696
29.265
28.8523
28.4535
28.0661
27.6885
27.3203
26.9615
26.6123
26.2729
25.9459
25.6315
25.3303
25.0435
24.7722
24.5175
24.2809
24.0639
23.8685
23.6973
23.5532
23.4399
23.3622
23.3256
23.3372
23.4055
23.5406
23.7544
24.0628
24.4788
25.018
25.7194
26.5556
27.5045
28.5588
29.6725
30.8462
32.0712
33.3735
34.7638
36.2313
37.7533
39.3196
40.915
42.5192
44.117
45.6921
47.2247
48.7243
50.1242
51.3638
52.4381
53.3431
54.0657
54.6064
54.9871
55.2321
55.365
55.4082
55.3824
55.2966
55.1646
55.0029
54.827
54.6523
54.495
54.3742
54.3137
54.3448
54.507
54.8453
55.4033
56.2099
57.2656
58.5458
60.0221
61.6546
63.4024
65.2293
67.1064
69.012
70.9308
72.8528
74.7718
76.6843
78.5884
80.4832
82.3684
84.2438
86.1091
87.9638
89.8072
91.6383
93.4568
95.2616
5561.35
1220.5
394.085
184.322
114.742
83.7659
67.046
56.8584
50.1405
45.4643
42.0807
39.5592
37.6351
36.1357
34.9434
33.975
33.1702
32.4842
31.8839
31.3445
30.8477
30.3805
29.9339
29.502
29.0811
28.6693
28.266
27.8712
27.4854
27.1095
26.7443
26.3907
26.0496
25.7213
25.4077
25.11
24.8286
24.5644
24.3188
24.0927
23.8878
23.7056
23.5484
23.4187
23.3197
23.2554
23.2305
23.2507
23.3227
23.455
23.6563
23.9377
24.3133
24.789
25.3737
26.0953
26.9173
27.8167
28.7903
29.8103
30.8836
32.009
33.1563
34.3586
35.615
36.9116
38.2403
39.5968
40.9725
42.3646
43.7654
45.1596
46.4567
47.6417
48.6834
49.5603
50.2799
50.8577
51.3103
51.6557
51.9139
52.0984
52.2176
52.2873
52.3234
52.3425
52.3632
52.4079
52.5058
52.694
53.0173
53.5243
54.2577
55.2341
56.4404
57.8528
59.4376
61.1548
62.9667
64.8416
66.7553
68.6904
70.6355
72.5835
74.5303
76.4742
78.4143
80.3507
82.2837
84.2135
86.1401
88.0631
89.9818
91.8951
93.8015
95.7001
5561.26
1216.26
390.41
183.04
114.251
83.6159
67.0955
57.0483
50.4396
45.8532
42.5454
40.0887
38.2197
36.7665
35.6119
34.673
33.8898
33.2177
32.6239
32.0842
31.581
31.1021
30.6391
30.187
29.7432
29.3063
28.8766
28.4546
28.0413
27.638
27.2457
26.8655
26.4985
26.1454
25.8073
25.4849
25.1785
24.889
24.6183
24.3667
24.1347
23.9237
23.7349
23.5697
23.4298
23.3175
23.2354
23.1868
23.1755
23.2062
23.2843
23.4163
23.6094
23.8709
24.2088
24.6334
25.1435
25.7379
26.434
27.1983
28.0165
28.9014
29.85
30.8323
31.8535
32.8899
33.9556
35.0694
36.2291
37.4346
38.6902
39.9984
41.3466
42.653
43.8771
44.9785
45.9478
46.788
47.506
48.1122
48.6204
49.0433
49.3906
49.6745
49.9101
50.1143
50.3076
50.5159
50.7727
51.1203
51.6078
52.2852
53.1871
54.3186
55.6566
57.1782
58.8478
60.627
62.4825
64.3875
66.3224
68.274
70.234
72.1979
74.1637
76.131
78.1002
80.0721
82.0476
84.0273
86.0116
88.0002
89.9924
91.987
93.9824
95.9766
5561.17
1213.04
387.062
181.856
113.811
83.5087
67.1858
57.2785
50.7789
46.2821
43.0498
40.6574
38.843
37.4355
36.3181
35.4084
34.6463
33.9878
33.4003
32.8602
32.3504
31.8595
31.38
30.9077
30.4406
29.9785
29.5221
29.0725
28.6313
28.2
27.7801
27.3728
26.9792
26.6005
26.2374
25.8907
25.561
25.249
24.9554
24.6805
24.4243
24.189
23.9748
23.7822
23.6123
23.4663
23.3457
23.2521
23.1878
23.1553
23.1578
23.1989
23.2829
23.4143
23.5983
23.8401
24.1424
24.5072
24.9368
25.4268
25.9768
26.5998
27.3234
28.0976
28.9259
29.8118
30.7359
31.6944
32.6777
33.6985
34.7852
35.947
37.1964
38.4969
39.7809
40.9973
42.1221
43.1456
44.0629
44.8764
45.5908
46.2143
46.7598
47.2344
47.6509
48.0258
48.3814
48.7461
49.1575
49.6619
50.3109
51.1538
52.2115
53.4731
54.9199
56.5253
58.2548
60.0736
61.9529
63.8708
65.8122
67.7673
69.7309
71.7007
73.6764
75.6587
77.6493
79.6497
81.6615
83.6857
85.7229
87.7733
89.8363
91.9105
93.9942
96.0849
5561.08
1210.95
384.121
180.798
113.435
83.4476
67.3162
57.5461
51.1538
46.7454
43.5877
41.2588
39.4983
38.136
37.0557
36.1751
35.4344
34.7899
34.2093
33.6694
33.1539
32.6517
32.1563
31.6642
31.1743
30.6872
30.2041
29.7269
29.2575
28.7978
28.3497
27.9146
27.4938
27.0886
26.6998
26.3282
25.9745
25.6394
25.3232
25.0263
24.7492
24.4922
24.2556
24.0396
23.8449
23.6727
23.5233
23.3973
23.2961
23.2211
23.1737
23.156
23.1702
23.2191
23.3053
23.4316
23.5998
23.8116
24.0684
24.3708
24.7209
25.1253
25.5926
26.1151
26.702
27.3839
28.1389
28.9494
29.8235
30.7544
31.7411
32.7837
33.9061
35.1354
36.4005
37.6488
38.8492
39.9828
41.0344
41.9977
42.8661
43.6569
44.3698
45.0091
45.5848
46.1134
46.6175
47.1282
47.6863
48.3411
49.1451
50.1393
51.3315
52.6993
54.2293
55.8931
57.6583
59.4953
61.3799
63.2948
65.2288
67.1753
69.1316
71.0971
73.0732
75.0619
77.0656
79.0868
81.1276
83.1897
85.2742
87.3814
89.511
91.6617
93.8317
96.0184
5560.99
1210.03
381.62
179.872
113.123
83.4298
67.4819
57.8449
51.5576
47.236
44.1516
41.8853
40.178
38.8606
37.8174
36.9663
36.248
35.6188
35.0468
34.509
33.9893
33.4775
32.9677
32.457
31.9454
31.4338
30.9244
30.4196
29.9219
29.4335
28.9566
28.493
28.0442
27.6115
27.196
26.7986
26.42
26.0609
25.7216
25.4025
25.1038
24.8257
24.5684
24.3318
24.1162
23.9218
23.7486
23.5967
23.4675
23.361
23.278
23.2193
23.1861
23.1795
23.201
23.2516
23.3325
23.4447
23.5889
23.7663
23.9787
24.2294
24.5228
24.8605
25.249
25.7018
26.2209
26.812
27.505
28.2977
29.1746
30.1482
31.2179
32.3943
33.6245
34.8643
36.0898
37.2785
38.4073
39.4685
40.4617
41.3883
42.2404
43.019
43.732
44.3954
45.0326
45.6768
46.3713
47.167
48.1171
49.2445
50.5411
51.9912
53.5787
55.2765
57.0559
58.8919
60.7653
62.6629
64.5768
66.5033
68.4416
70.393
72.3601
74.346
76.3542
78.3877
80.4496
82.5421
84.6668
86.8245
89.0153
91.2382
93.4914
95.7723
98.0773
5560.9
1210.37
379.583
179.083
112.871
83.4493
67.6755
58.167
51.9821
47.7454
44.7331
42.5283
40.8737
39.601
38.5952
37.7748
37.0806
36.4691
35.9084
35.3755
34.8546
34.3359
33.8139
33.2868
32.7548
32.22
31.6851
31.1531
30.627
30.1096
29.6033
29.1104
28.6325
28.1712
27.7278
27.3034
26.8987
26.5145
26.1511
25.809
25.4881
25.1887
24.9106
24.6538
24.4181
24.2034
24.0095
23.8363
23.684
23.5525
23.4417
23.352
23.2841
23.238
23.214
23.2127
23.2342
23.2791
23.3475
23.4403
23.5584
23.7039
23.8792
24.0871
24.3325
24.6231
24.9659
25.3705
25.8554
26.433
27.1162
27.9419
28.9103
30.0126
31.2208
32.4644
33.7077
34.9358
36.1322
37.2767
38.3732
39.4089
40.3741
41.2677
42.097
42.8763
43.6306
44.3949
45.2137
46.1378
47.2168
48.4581
49.8331
51.3401
52.9608
54.6705
56.4447
58.2631
60.1109
61.9784
63.8609
65.7568
67.6673
69.5952
71.544
73.518
75.5215
77.5585
79.6327
81.747
83.9038
86.1046
88.3498
90.639
92.9706
95.342
97.7498
5560.81
1212.16
378.065
178.441
112.679
83.5005
67.8889
58.5033
52.4179
48.2645
45.3231
43.1791
41.5764
40.3483
39.3808
38.5928
37.9254
37.3349
36.7893
36.2653
35.7472
35.2254
34.6947
34.1538
33.6039
33.0476
32.4883
31.9297
31.3755
30.8288
30.2926
29.7694
29.2613
28.7701
28.2975
27.8446
27.4124
27.0017
26.613
26.2466
25.9025
25.5809
25.2815
25.0041
24.7484
24.514
24.3005
24.1075
23.9347
23.7817
23.6482
23.5339
23.4386
23.3621
23.3042
23.2647
23.2435
23.2405
23.2554
23.2886
23.3405
23.4123
23.5055
23.6225
23.767
23.9444
24.1615
24.4275
24.7568
25.1648
25.6718
26.3075
27.0944
28.0513
29.1852
30.4118
31.6697
32.9355
34.1898
35.4097
36.5857
37.7067
38.7619
39.7484
40.673
41.5506
42.4066
43.2771
44.2079
45.2511
46.4381
47.7609
49.1936
50.7345
52.3668
54.0692
55.8217
57.6083
59.4181
61.2448
63.0859
64.9421
66.8159
68.7112
70.6329
72.5861
74.5758
76.607
78.6841
80.811
82.9908
85.2257
87.5171
89.865
92.2685
94.7253
97.232
5560.72
1215.34
377.08
177.949
112.543
83.5742
68.1113
58.8426
52.8541
48.7832
45.9122
43.8283
42.2772
41.0938
40.1654
39.412
38.7748
38.2096
37.684
37.1742
36.6641
36.144
35.609
35.0583
34.4935
33.9182
33.3363
32.7523
32.1704
31.5944
31.0276
30.4732
29.9336
29.4112
28.9077
28.4246
27.9632
27.5244
27.1088
26.7167
26.3481
26.0032
25.6815
25.3828
25.1066
24.8522
24.6192
24.4069
24.2148
24.042
23.8881
23.7523
23.6342
23.533
23.4481
23.379
23.3252
23.2861
23.2612
23.2505
23.2541
23.2724
23.3065
23.3582
23.4305
23.5275
23.6552
23.8219
24.0393
24.3225
24.6918
25.1745
25.8015
26.6075
27.6186
28.7747
30.0131
31.292
32.5782
33.8452
35.0773
36.2617
37.3853
38.4457
39.4472
40.4063
41.3487
42.3113
43.3401
44.4871
45.7629
47.1409
48.6088
50.1627
51.7877
53.4667
55.1837
56.9268
58.6886
60.4654
62.257
64.0654
65.8946
67.7496
69.636
71.5597
73.5267
75.5428
77.6132
79.7427
81.9355
84.1947
86.5225
88.92
91.387
93.922
96.522
5560.63
1219.7
376.615
177.598
112.448
83.6558
68.3274
59.1699
53.277
49.289
46.4895
44.4661
42.9664
41.8279
40.9401
40.2241