/*--------------------------------*- C++ -*----------------------------------*\
  =========                 |
  \\      /  F ield         | OpenFOAM: The Open Source CFD Toolbox
   \\    /   O peration     | Website:  https://openfoam.org
    \\  /    A nd           | Version:  10
     \\/     M anipulation  |
\*---------------------------------------------------------------------------*/
FoamFile
{
    format      ascii;
    class       volScalarField;
    location    "59000";
    object      p;
}
// * * * * * * * * * * * * * * * * * * * * * * * * * * * * * * * * * * * * * //

dimensions      [0 2 -2 0 0 0 0];

internalField   nonuniform List<scalar> 
17981
(
2.1094e-05
0.0559786
0.110259
0.162919
0.214007
0.263565
0.311634
0.358255
0.403466
0.447308
0.489819
0.531037
0.570999
0.609741
0.647301
0.683712
0.719009
0.753225
0.786394
0.818546
0.849712
0.879924
0.90921
0.937598
0.965116
0.991792
1.01765
1.04272
1.06702
1.09058
1.11342
1.13556
1.15703
1.17784
1.19802
1.21758
1.23655
1.25495
1.27278
1.29008
1.30685
1.32312
1.33889
1.35419
1.36903
1.38342
1.39738
1.41092
-0.0112727
0.0452053
0.100009
0.153183
0.20477
0.254812
0.303351
0.350427
0.396079
0.440347
0.483271
0.524887
0.565234
0.604349
0.642267
0.679023
0.714653
0.74919
0.782666
0.815115
0.846567
0.877052
0.906601
0.935241
0.963002
0.98991
1.01599
1.04127
1.06578
1.08953
1.11256
1.13488
1.15652
1.17749
1.19783
1.21755
1.23666
1.25519
1.27316
1.29058
1.30747
1.32385
1.33974
1.35514
1.37008
1.38457
1.39862
1.41224
-0.0233726
0.0336997
0.0890823
0.142819
0.194954
0.245527
0.294581
0.342155
0.388291
0.433026
0.476401
0.518454
0.559222
0.598742
0.637051
0.674185
0.710178
0.745064
0.778877
0.811649
0.843411
0.874195
0.904029
0.932944
0.960968
0.988128
1.01445
1.03996
1.06469
1.08866
1.11188
1.1344
1.15622
1.17738
1.19788
1.21776
1.23703
1.2557
1.27381
1.29137
1.30839
1.32489
1.34089
1.35641
1.37145
1.38604
1.40019
1.4139
0.184515
0.23566
0.285267
0.333378
0.380031
0.425267
0.469125
0.511643
0.552861
0.592814
0.63154
0.669075
0.705455
0.740712
0.774881
0.807995
0.840086
0.871184
0.90132
0.930524
0.958825
0.98625
1.01283
1.03858
1.06354
1.08773
1.11117
1.13388
1.1559
1.17724
1.19792
1.21796
1.23739
1.25622
1.27447
1.29217
1.30932
1.32595
1.34207
1.3577
1.37285
1.38754
1.40179
1.4156
0.1735
0.225261
0.275465
0.324151
0.371362
0.417136
0.461513
0.504533
0.546233
0.586652
0.625826
0.663791
0.700584
0.736239
0.770789
0.804269
0.836711
0.868145
0.898603
0.928115
0.956711
0.984417
1.01126
1.03727
1.06248
1.0869
1.11056
1.13349
1.15571
1.17724
1.19811
1.21833
1.23793
1.25692
1.27532
1.29316
1.31045
1.32721
1.34346
1.35921
1.37447
1.38927
1.40362
1.41753
0.161885
0.214303
0.265143
0.314444
0.362248
0.408595
0.453525
0.497076
0.539289
0.580201
0.619849
0.65827
0.6955
0.731575
0.766528
0.800394
0.833204
0.864992
0.895788
0.925623
0.954527
0.982528
1.00966
1.03594
1.0614
1.08606
1.10996
1.13311
1.15554
1.17727
1.19833
1.21873
1.2385
1.25765
1.27621
1.2942
1.31163
1.32853
1.3449
1.36077
1.37615
1.39106
1.40551
1.41952
0.202804
0.254319
0.304273
0.352707
0.399662
0.445178
0.489295
0.532052
0.573487
0.613637
0.652541
0.690235
0.726754
0.762132
0.796405
0.829605
0.861766
0.892918
0.923093
0.952321
0.980632
1.00805
1.03462
1.06034
1.08526
1.1094
1.13279
1.15544
1.17738
1.19863
1.21922
1.23917
1.2585
1.27722
1.29536
1.31294
1.32997
1.34647
1.36247
1.37797
1.39299
1.40755
1.42166
0.293604
0.342704
0.390302
0.436438
0.481151
0.524482
0.566469
0.60715
0.646562
0.684743
0.721728
0.757554
0.792254
0.825862
0.858412
0.889936
0.920466
0.950031
0.978664
1.00639
1.03324
1.05925
1.08443
1.10882
1.13244
1.15532
1.17747
1.19893
1.21971
1.23984
1.25934
1.27823
1.29653
1.31425
1.33142
1.34806
1.36418
1.3798
1.39493
1.4096
1.42381
0.3322
0.380476
0.427265
0.472608
0.516544
0.559112
0.60035
0.640297
0.678989
0.716464
0.752757
0.787904
0.821939
0.854896
0.886807
0.917705
0.947622
0.976589
1.00463
1.03179
1.05808
1.08354
1.1082
1.13209
1.1552
1.17758
1.19924
1.22022
1.24054
1.26022
1.27928
1.29773
1.31561
1.33292
1.3497
1.36594
1.38168
1.39693
1.4117
1.42601
0.417624
0.463632
0.508206
0.551388
0.593214
0.633725
0.672957
0.710948
0.747734
0.783352
0.817835
0.85122
0.883539
0.914826
0.945113
0.974432
1.00281
1.03028
1.05686
1.08257
1.10746
1.13156
1.15491
1.17751
1.1994
1.22059
1.2411
1.26096
1.28019
1.29881
1.31684
1.3343
1.35121
1.36759
1.38345
1.39881
1.41369
1.42811
0.585665
0.626762
0.666555
0.705081
0.742377
0.77848
0.813425
0.847248
0.879984
0.911667
0.942328
0.972001
1.00072
1.02851
1.05542
1.08147
1.10667
1.13105
1.15464
1.17747
1.19957
1.22096
1.24166
1.26171
1.28111
1.29989
1.31807
1.33567
1.35272
1.36922
1.3852
1.40068
1.41567
1.43019
0.577717
0.619428
0.659807
0.698892
0.736721
0.77333
0.808757
0.843038
0.876209
0.908303
0.939355
0.969399
0.998466
1.02659
1.0538
1.08012
1.10559
1.13023
1.15407
1.17714
1.19946
1.22106
1.24197
1.26219
1.28177
1.30072
1.31906
1.33681
1.35399
1.37063
1.38673
1.40232
1.41742
1.43203
0.569337
0.611686
0.652672
0.692335
0.730713
0.767845
0.803769
0.838521
0.872138
0.904656
0.93611
0.966534
0.99596
1.02442
1.05195
1.07858
1.10433
1.12925
1.15334
1.17665
1.1992
1.22101
1.24211
1.26253
1.28228
1.30139
1.31989
1.33778
1.3551
1.37187
1.38809
1.4038
1.419
1.43372
0.560546
0.60355
0.645161
0.685417
0.724359
0.762026
0.798457
0.83369
0.867762
0.900711
0.932572
0.963381
0.993171
1.02198
1.04983
1.07676
1.1028
1.12799
1.15234
1.17589
1.19866
1.22068
1.24199
1.26259
1.28252
1.30179
1.32044
1.33849
1.35594
1.37283
1.38918
1.40499
1.4203
1.43511
0.595054
0.637301
0.678161
0.717677
0.755888
0.792834
0.828555
0.863089
0.896475
0.928749
0.959947
0.990105
1.01926
1.04744
1.07468
1.10101
1.12646
1.15107
1.17486
1.19786
1.2201
1.2416
1.26239
1.28249
1.30193
1.32073
1.33892
1.35651
1.37352
1.38998
1.40591
1.42132
1.43623
0.586249
0.629137
0.670606
0.710699
0.749457
0.78692
0.823131
0.858128
0.891951
0.924638
0.956227
0.986752
1.01625
1.04476
1.0723
1.09892
1.12465
1.14951
1.17354
1.19676
1.21921
1.2409
1.26188
1.28215
1.30175
1.32071
1.33903
1.35675
1.37389
1.39047
1.4065
1.42201
1.43701
0.577211
0.620738
0.662813
0.70348
0.742781
0.78076
0.817457
0.852914
0.887172
0.920269
0.952244
0.983134
1.01297
1.0418
1.06965
1.09656
1.12255
1.14766
1.17192
1.19537
1.21802
1.23991
1.26106
1.28151
1.30127
1.32037
1.33883
1.35668
1.37393
1.39062
1.40675
1.42236
1.43745
0.612182
0.654852
0.696083
0.735918
0.774402
0.811578
0.847487
0.882171
0.915671
0.948024
0.979271
1.00945
1.03859
1.06674
1.09392
1.12017
1.14553
1.17002
1.19368
1.21654
1.23861
1.25994
1.28055
1.30046
1.3197
1.3383
1.35627
1.37364
1.39043
1.40666
1.42236
1.43753
0.603549
0.646797
0.688576
0.728931
0.767907
0.805548
0.841897
0.876995
0.910885
0.943607
0.975199
1.0057
1.03515
1.06358
1.09104
1.11754
1.14314
1.16785
1.19172
1.21477
1.23702
1.25852
1.27929
1.29934
1.31872
1.33744
1.35553
1.37301
1.3899
1.40623
1.42201
1.43726
0.59491
0.638714
0.681023
0.721882
0.761334
0.799424
0.836197
0.871695
0.905961
0.939037
0.970962
1.00178
1.03152
1.06023
1.08794
1.11469
1.14051
1.16544
1.1895
1.21274
1.23517
1.25682
1.27774
1.29794
1.31744
1.33628
1.35448
1.37207
1.38905
1.40547
1.42133
1.43666
0.586305
0.630636
0.673475
0.714856
0.754791
0.793311
0.830475
0.866343
0.900959
0.934365
0.966602
0.99771
1.02773
1.0567
1.08466
1.11163
1.13767
1.1628
1.18705
1.21046
1.23305
1.25486
1.27592
1.29625
1.31588
1.33483
1.35314
1.37082
1.38789
1.40439
1.42032
1.43572
0.577703
0.622553
0.665918
0.7078
0.748217
0.787213
0.824829
0.861081
0.896016
0.929709
0.962222
0.993594
1.02386
1.05307
1.08125
1.10844
1.13467
1.15999
1.18442
1.20799
1.23073
1.25269
1.27388
1.29433
1.31407
1.33313
1.35153
1.3693
1.38646
1.40303
1.41904
1.4345
0.569423
0.614711
0.658481
0.700759
0.741584
0.780989
0.818988
0.855606
0.890898
0.924911
0.957696
0.989319
1.01983
1.04926
1.07766
1.10505
1.13147
1.15697
1.18156
1.20529
1.22818
1.25027
1.27159
1.29216
1.31201
1.33117
1.34966
1.36752
1.38475
1.4014
1.41747
1.43299
0.561601
0.607247
0.651333
0.693909
0.735018
0.774703
0.813002
0.84995
0.885574
0.919897
0.952964
0.984843
1.01559
1.04525
1.07386
1.10145
1.12807
1.15374
1.17849
1.20238
1.22541
1.24764
1.26907
1.28976
1.30972
1.32897
1.34756
1.36549
1.38281
1.39952
1.41566
1.43124
0.5541
0.6001
0.644494
0.687349
0.728725
0.768665
0.807208
0.844393
0.880257
0.914838
0.948168
0.980289
1.01126
1.04114
1.06995
1.09774
1.12453
1.15037
1.17529
1.19932
1.22249
1.24484
1.2664
1.28719
1.30725
1.3266
1.34527
1.36329
1.38067
1.39745
1.41365
1.42928
0.546879
0.59321
0.637915
0.681037
0.722649
0.762816
0.801583
0.838986
0.875062
0.909851
0.943395
0.975732
1.00692
1.037
1.066
1.09397
1.12094
1.14693
1.172
1.19617
1.21948
1.24195
1.26362
1.28452
1.30467
1.32411
1.34287
1.36096
1.37841
1.39525
1.41151
1.42719
0.539939
0.586556
0.63156
0.674965
0.716815
0.757186
0.796148
0.833745
0.870013
0.904989
0.938716
0.971246
1.00263
1.0329
1.06209
1.09022
1.11735
1.1435
1.16871
1.19301
1.21644
1.23903
1.26081
1.2818
1.30205
1.32158
1.34041
1.35857
1.37609
1.39299
1.40929
1.42503
0.533294
0.58015
0.6254
0.669075
0.711185
0.75177
0.790913
0.828682
0.865122
0.90027
0.934169
0.966878
0.998445
1.02889
1.05825
1.08654
1.11382
1.14011
1.16546
1.18989
1.21343
1.23613
1.25801
1.2791
1.29944
1.31904
1.33795
1.35618
1.37376
1.39071
1.40707
1.42285
0.526953
0.574014
0.619465
0.663355
0.705711
0.74654
0.785881
0.823815
0.860412
0.895719
0.92978
0.962656
0.994394
1.02501
1.05452
1.08297
1.11039
1.13682
1.16229
1.18684
1.2105
1.2333
1.25528
1.27646
1.29688
1.31656
1.33554
1.35383
1.37147
1.38848
1.40489
1.42071
0.568151
0.613775
0.657838
0.700385
0.741441
0.781013
0.819138
0.85589
0.891344
0.925559
0.958602
0.99051
1.02128
1.05095
1.07954
1.10709
1.13365
1.15924
1.18391
1.20768
1.23058
1.25265
1.27392
1.29442
1.31418
1.33322
1.35158
1.36927
1.38633
1.40279
1.41865
0.562564
0.608337
0.652549
0.695246
0.736472
0.776251
0.814596
0.851545
0.887164
0.921539
0.95475
0.986815
1.01773
1.04753
1.07626
1.10395
1.13063
1.15634
1.18111
1.20499
1.22799
1.25015
1.27151
1.29208
1.31191
1.33102
1.34944
1.36719
1.3843
1.4008
1.4167
0.557254
0.603154
0.647498
0.690328
0.731688
0.77162
0.810156
0.847314
0.883141
0.917716
0.951096
0.983301
1.01435
1.04429
1.07314
1.10096
1.12776
1.15358
1.17847
1.20244
1.22554
1.24779
1.26923
1.28989
1.30979
1.32896
1.34744
1.36525
1.38241
1.39895
1.41489
0.552227
0.598241
0.642705
0.685662
0.727153
0.767219
0.805901
0.843236
0.879264
0.914026
0.94756
0.979904
1.01109
1.04116
1.07015
1.09809
1.12502
1.15096
1.17595
1.20004
1.22323
1.24558
1.2671
1.28784
1.30781
1.32705
1.34559
1.36345
1.38066
1.39725
1.41323
0.681233
0.722852
0.763052
0.801874
0.839355
0.875533
0.910446
0.944129
0.97662
1.00795
1.03816
1.06729
1.09536
1.12241
1.14847
1.17358
1.19777
1.22107
1.24351
1.26512
1.28594
1.30599
1.3253
1.3439
1.36181
1.37907
1.3957
1.41173
0.677006
0.718742
0.759067
0.79802
0.835639
0.871959
0.907015
0.940845
0.97348
1.00496
1.03531
1.06457
1.09277
1.11995
1.14613
1.17136
1.19566
1.21906
1.2416
1.2633
1.2842
1.30432
1.3237
1.34237
1.36034
1.37766
1.39433
1.4104
0.672964
0.714808
0.75525
0.794327
0.832076
0.868531
0.903727
0.937697
0.970476
1.0021
1.03259
1.06199
1.09032
1.11763
1.14394
1.16928
1.1937
1.2172
1.23984
1.26164
1.28262
1.30283
1.32228
1.34101
1.35905
1.37641
1.39314
1.40925
0.669088
0.711031
0.751583
0.790778
0.828651
0.865238
0.90057
0.934681
0.967601
0.999363
1.03
1.05954
1.08801
1.11545
1.14189
1.16736
1.19188
1.2155
1.23824
1.26014
1.28121
1.3015
1.32102
1.33982
1.35792
1.37534
1.39211
1.40827
0.665359
0.707395
0.748049
0.787357
0.825351
0.862066
0.897532
0.93178
0.964842
0.996748
1.02753
1.05721
1.08582
1.1134
1.13997
1.16557
1.19021
1.21394
1.23679
1.25878
1.27995
1.30032
1.31993
1.3388
1.35696
1.37443
1.39126
1.40746
0.66176
0.703881
0.744633
0.784048
0.822159
0.858998
0.894596
0.928982
0.962185
0.994234
1.02516
1.05498
1.08374
1.11146
1.13817
1.16389
1.18867
1.21252
1.23547
1.25757
1.27883
1.29929
1.31898
1.33792
1.35615
1.37368
1.39056
1.4068
0.658274
0.700475
0.741318
0.780835
0.819059
0.85602
0.891746
0.926268
0.959612
0.991806
1.02288
1.05285
1.08175
1.10962
1.13646
1.16232
1.18723
1.2112
1.23427
1.25648
1.27784
1.29839
1.31817
1.33718
1.35548
1.37308
1.39001
1.4063
0.654888
0.697161
0.738089
0.777704
0.816035
0.853114
0.888967
0.923623
0.957107
0.989445
1.02066
1.05079
1.07984
1.10785
1.13484
1.16084
1.18588
1.20998
1.23318
1.25549
1.27696
1.29761
1.31747
1.33657
1.35493
1.3726
1.38959
1.40593
0.65159
0.693929
0.734936
0.774641
0.813076
0.850267
0.886244
0.921031
0.954654
0.987136
1.0185
1.04878
1.07798
1.10614
1.13328
1.15942
1.1846
1.20884
1.23216
1.25459
1.27617
1.29692
1.31687
1.33605
1.3545
1.37223
1.38928
1.40567
0.648372
0.69077
0.731849
0.771639
0.81017
0.847469
0.883564
0.918479
0.952238
0.984864
1.01638
1.0468
1.07616
1.10447
1.13177
1.15806
1.18338
1.20775
1.2312
1.25376
1.27545
1.29631
1.31636
1.33563
1.35415
1.37195
1.38906
1.40551
0.645229
0.687677
0.72882
0.768688
0.807309
0.844711
0.880919
0.915957
0.949849
0.982615
1.01428
1.04485
1.07437
1.10283
1.13028
1.15672
1.18219
1.20671
1.23029
1.25298
1.27479
1.29576
1.31591
1.33527
1.35388
1.37175
1.38893
1.40543
0.642157
0.684648
0.725847
0.765785
0.804489
0.841985
0.8783
0.913456
0.947476
0.980379
1.01218
1.04291
1.07258
1.1012
1.12881
1.15541
1.18103
1.20569
1.22942
1.25224
1.27417
1.29526
1.31551
1.33497
1.35366
1.37162
1.38886
1.40543
0.639157
0.681681
0.722928
0.762928
0.801706
0.83929
0.875705
0.910972
0.945113
0.978149
1.0101
1.04097
1.07079
1.09957
1.12734
1.15409
1.17987
1.20468
1.22856
1.25151
1.27358
1.29478
1.31515
1.33471
1.3535
1.37153
1.38885
1.40547
0.636232
0.678778
0.720064
0.760117
0.798962
0.836625
0.873131
0.908502
0.942758
0.97592
1.008
1.03902
1.06899
1.09793
1.12586
1.15277
1.17871
1.20368
1.2277
1.2508
1.273
1.29433
1.31481
1.33448
1.35336
1.37148
1.38887
1.40556
0.633387
0.675944
0.717258
0.757355
0.796258
0.833992
0.870581
0.906046
0.94041
0.97369
1.0059
1.03706
1.06718
1.09628
1.12436
1.15144
1.17753
1.20266
1.22683
1.25008
1.27242
1.29388
1.31449
1.33426
1.35324
1.37145
1.38892
1.40568
0.630629
0.673186
0.714516
0.754646
0.793597
0.831393
0.868056
0.903608
0.93807
0.971461
1.0038
1.03509
1.06535
1.0946
1.12283
1.15008
1.17633
1.20162
1.22595
1.24935
1.27184
1.29343
1.31416
1.33406
1.35314
1.37144
1.38899
1.40582
0.627961
0.670511
0.711846
0.751996
0.790985
0.828833
0.865561
0.901191
0.935743
0.969235
1.00168
1.0331
1.0635
1.09289
1.12129
1.14869
1.17511
1.20056
1.22505
1.2486
1.27124
1.29297
1.31383
1.33385
1.35304
1.37144
1.38907
1.40598
0.625372
0.667923
0.709255
0.749413
0.788427
0.826318
0.863102
0.8988
0.933432
0.967016
0.99957
1.03111
1.06164
1.09117
1.11971
1.14727
1.17385
1.19946
1.22412
1.24783
1.27062
1.2925
1.31349
1.33363
1.35294
1.37144
1.38916
1.40615
0.622848
0.66541
0.706747
0.746908
0.785934
0.823853
0.860683
0.89644
0.931144
0.964811
0.99746
1.0291
1.05975
1.08942
1.1181
1.14581
1.17256
1.19833
1.22315
1.24703
1.26997
1.292
1.31314
1.33341
1.35283
1.37143
1.38925
1.40632
0.62038
0.662958
0.704312
0.744481
0.783512
0.821447
0.85831
0.894117
0.928883
0.962625
0.995359
1.0271
1.05786
1.08765
1.11648
1.14433
1.17123
1.19717
1.22216
1.2462
1.2693
1.29149
1.31277
1.33317
1.35271
1.37143
1.38934
1.40649
0.660558
0.701932
0.742122
0.781166
0.81911
0.855993
0.891837
0.926656
0.960463
0.993274
1.02511
1.05597
1.08587
1.11483
1.14283
1.16988
1.19598
1.22113
1.24533
1.2686
1.29094
1.31237
1.33291
1.35258
1.37141
1.38943
1.40667
0.658206
0.699601
0.739816
0.778884
0.816844
0.853738
0.889606
0.924467
0.95833
0.99121
1.02312
1.05408
1.08409
1.11316
1.1413
1.16849
1.19475
1.22006
1.24443
1.26787
1.29037
1.31195
1.33264
1.35244
1.37139
1.38952
1.40685
0.737552
0.77665
0.814637
0.85155
0.887434
0.922322
0.956232
0.989172
1.02115
1.05219
1.0823
1.11149
1.13975
1.16708
1.19349
1.21897
1.2435
1.2671
1.28977
1.31151
1.33235
1.35229
1.37136
1.3896
1.40702
0.735328
0.774454
0.812473
0.849417
0.885322
0.920229
0.954171
0.987162
1.01921
1.05032
1.08052
1.10981
1.13818
1.16565
1.1922
1.21784
1.24254
1.26631
1.28914
1.31105
1.33204
1.35212
1.37132
1.38967
1.4072
0.772291
0.810342
0.847322
0.883259
0.918191
0.952156
0.985184
1.01729
1.04847
1.07874
1.10812
1.13661
1.1642
1.19089
1.21668
1.24154
1.26548
1.28849
1.31056
1.3317
1.35194
1.37127
1.38974
1.40737
0.770158
0.80824
0.845254
0.88123
0.916196
0.950188
0.983244
1.01539
1.04663
1.07698
1.10644
1.13503
1.16273
1.18956
1.21549
1.24051
1.26462
1.2878
1.31004
1.33135
1.35174
1.37121
1.38981
1.40754
0.768051
0.806162
0.843209
0.879222
0.914228
0.948258
0.981344
1.01352
1.04481
1.07523
1.10477
1.13344
1.16125
1.1882
1.21427
1.23945
1.26373
1.28708
1.30949
1.33097
1.35151
1.37114
1.38986
1.40771
0.804104
0.841183
0.877232
0.912278
0.946349
0.979474
1.01169
1.04302
1.07348
1.10309
1.13185
1.15976
1.18682
1.21303
1.23836
1.26279
1.28632
1.30891
1.33056
1.35127
1.37105
1.38991
1.40788
0.802062
0.839172
0.875255
0.910339
0.944451
0.977619
1.00987
1.04124
1.07176
1.10143
1.13026
1.15826
1.18543
1.21175
1.23723
1.26182
1.28552
1.30829
1.33012
1.351
1.37094
1.38994
1.40804
0.837172
0.873289
0.908409
0.942561
0.975771
1.00807
1.03948
1.07004
1.09976
1.12866
1.15674
1.18401
1.21045
1.23606
1.26081
1.28467
1.30762
1.32963
1.3507
1.3708
1.38996
1.40818
0.83518
0.871328
0.906483
0.940673
0.973924
1.00626
1.03772
1.06832
1.09809
1.12705
1.15521
1.18257
1.20912
1.23485
1.25975
1.28378
1.30691
1.32911
1.35035
1.37063
1.38995
1.40832
0.833192
0.86937
0.904558
0.938785
0.972076
1.00446
1.03596
1.06661
1.09642
1.12544
1.15366
1.1811
1.20775
1.23361
1.25864
1.28283
1.30614
1.32852
1.34996
1.37042
1.38991
1.40843
0.867411
0.902631
0.936892
0.970221
1.00264
1.03418
1.06487
1.09474
1.12381
1.15209
1.1796
1.20634
1.23231
1.25748
1.28182
1.3053
1.32787
1.3495
1.37016
1.38983
1.40851
0.865448
0.900698
0.934993
0.968357
1.00082
1.0324
1.06313
1.09304
1.12215
1.15049
1.17807
1.20489
1.23096
1.25625
1.28075
1.30439
1.32715
1.34898
1.36984
1.3897
1.40855
0.86348
0.898758
0.933084
0.966482
0.998978
1.0306
1.06137
1.09131
1.12047
1.14886
1.1765
1.2034
1.22955
1.25496
1.27959
1.3034
1.32634
1.34837
1.36943
1.3895
1.40854
0.896806
0.931162
0.964593
0.997124
1.02878
1.05959
1.08957
1.11876
1.14719
1.17488
1.20185
1.22808
1.25359
1.27835
1.30232
1.32544
1.34767
1.36894
1.38922
1.40847
0.89484
0.929223
0.962685
0.99525
1.02694
1.05779
1.08781
1.11703
1.14549
1.17322
1.20024
1.22655
1.25215
1.27702
1.30114
1.32444
1.34685
1.36834
1.38885
1.40832
0.892856
0.927264
0.960755
0.993352
1.02508
1.05596
1.08601
1.11527
1.14376
1.17152
1.19857
1.22494
1.25062
1.2756
1.29985
1.32331
1.34592
1.36762
1.38836
1.40807
0.890852
0.925283
0.9588
0.991427
1.02319
1.0541
1.08419
1.11348
1.142
1.16978
1.19686
1.22326
1.249
1.27407
1.29844
1.32206
1.34485
1.36676
1.38773
1.4077
0.888828
0.923277
0.956818
0.989472
1.02126
1.05221
1.08233
1.11166
1.14021
1.16801
1.19511
1.22152
1.2473
1.27244
1.29691
1.32067
1.34365
1.36576
1.38696
1.4072
0.886782
0.921249
0.954809
0.987487
1.0193
1.05028
1.08044
1.1098
1.13838
1.16622
1.19333
1.21975
1.24553
1.2707
1.29525
1.31914
1.34228
1.36459
1.38602
1.40653
0.884719
0.919199
0.952776
0.985473
1.01731
1.04832
1.0785
1.10789
1.13651
1.16438
1.19151
1.21795
1.24373
1.2689
1.29348
1.31745
1.34073
1.36322
1.38487
1.4057
0.882646
0.917136
0.950726
0.983439
1.0153
1.04632
1.07653
1.10595
1.1346
1.1625
1.18967
1.21613
1.24191
1.26706
1.29162
1.31561
1.33899
1.36162
1.38342
1.40461
0.880584
0.915082
0.948683
0.981407
1.01328
1.04432
1.07455
1.104
1.13268
1.16061
1.18781
1.21429
1.2401
1.26524
1.28977
1.31373
1.33714
1.35989
1.38188
1.40328
0.878501
0.913014
0.946632
0.979376
1.01127
1.04234
1.07259
1.10207
1.13078
1.15874
1.18597
1.21248
1.23831
1.26347
1.28798
1.3119
1.33527
1.3581
1.38038
1.40208
0.87662
0.911112
0.944711
0.977443
1.00933
1.0404
1.07067
1.10017
1.1289
1.15689
1.18415
1.21071
1.23658
1.26179
1.28634
1.31026
1.33358
1.35629
1.37849
1.40028
0.874709
0.909325
0.943044
0.975888
1.00788
1.03905
1.0694
1.09895
1.12773
1.15576
1.18303
1.20958
1.23542
1.26055
1.28499
1.30872
1.33175
1.35408
1.37541
1.39559
2.52418
2.49519
2.46662
2.43845
2.41069
2.38334
2.35638
2.32982
2.30366
2.27789
2.25251
2.22752
2.20291
2.17867
2.15482
2.13133
2.10821
2.08546
2.06306
2.04101
2.01932
1.99796
1.97694
1.95625
1.93588
1.91583
1.89608
1.87663
1.85748
1.8386
1.82
1.80166
1.78357
1.76572
1.74811
1.73072
1.71353
1.69655
1.67975
1.66313
1.64667
1.63037
1.61421
1.59818
1.58229
1.56652
1.55088
1.53535
1.51996
1.5047
1.48956
1.47442
1.45932
1.44623
1.42351
2.52471
2.49575
2.46721
2.43908
2.41136
2.38405
2.35713
2.33062
2.3045
2.27878
2.25345
2.2285
2.20394
2.17976
2.15596
2.13252
2.10946
2.08676
2.06441
2.04242
2.02078
1.99947
1.9785
1.95786
1.93754
1.91754
1.89784
1.87843
1.85932
1.84049
1.82192
1.80362
1.78557
1.76776
1.75018
1.73282
1.71567
1.69871
1.68194
1.66534
1.6489
1.63261
1.61646
1.60043
1.58451
1.56871
1.553
1.53737
1.52183
1.50635
1.49091
1.47531
1.45913
1.44351
1.42518
2.52463
2.4957
2.46718
2.43908
2.41139
2.3841
2.35722
2.33075
2.30467
2.27898
2.25369
2.22878
2.20426
2.18012
2.15636
2.13297
2.10995
2.08729
2.06499
2.04304
2.02144
2.00018
1.97925
1.95865
1.93836
1.91839
1.89873
1.87936
1.86027
1.84147
1.82293
1.80465
1.78662
1.76883
1.75127
1.73393
1.71679
1.69984
1.68308
1.66648
1.65005
1.63376
1.61761
1.60159
1.58568
1.56988
1.55417
1.53855
1.52301
1.50752
1.49204
1.47643
1.46018
1.44321
1.42496
2.52448
2.49557
2.46709
2.43902
2.41136
2.38411
2.35727
2.33083
2.30479
2.27914
2.25389
2.22903
2.20455
2.18046
2.15674
2.13339
2.11041
2.0878
2.06554
2.04364
2.02208
2.00086
1.97997
1.9594
1.93916
1.91922
1.89959
1.88025
1.86119
1.84241
1.8239
1.80564
1.78763
1.76985
1.7523
1.73496
1.71783
1.70089
1.68413
1.66754
1.6511
1.63482
1.61867
1.60265
1.58676
1.57097
1.55529
1.53971
1.52421
1.50876
1.49329
1.47767
1.46151
1.44427
1.42545
2.5244
2.49552
2.46707
2.43903
2.4114
2.38419
2.35738
2.33098
2.30498
2.27937
2.25416
2.22934
2.20491
2.18085
2.15718
2.13388
2.11094
2.08837
2.06615
2.04429
2.02277
2.00158
1.98073
1.9602
1.93999
1.92009
1.90049
1.88117
1.86214
1.84339
1.82489
1.80665
1.78866
1.7709
1.75336
1.73604
1.71891
1.70198
1.68523
1.66865
1.65223
1.63596
1.61983
1.60384
1.58797
1.57221
1.55657
1.54102
1.52556
1.51013
1.49465
1.47894
1.46265
1.44525
1.42607
2.52434
2.4955
2.46707
2.43906
2.41147
2.38429
2.35752
2.33115
2.30519
2.27962
2.25445
2.22967
2.20527
2.18126
2.15763
2.13436
2.11147
2.08893
2.06676
2.04493
2.02345
2.0023
1.98148
1.96098
1.9408
1.92093
1.90135
1.88206
1.86305
1.84432
1.82584
1.80762
1.78964
1.77189
1.75437
1.73705
1.71994
1.70302
1.68628
1.66971
1.65331
1.63705
1.62094
1.60497
1.58913
1.5734
1.55779
1.54227
1.52681
1.51136
1.49582
1.47995
1.4634
1.44574
1.42638
2.5243
2.49549
2.46709
2.43911
2.41155
2.38441
2.35767
2.33134
2.30541
2.27988
2.25475
2.23001
2.20565
2.18168
2.15808
2.13485
2.112
2.0895
2.06736
2.04556
2.02411
2.003
1.98221
1.96174
1.94159
1.92174
1.90218
1.88292
1.86393
1.84521
1.82675
1.80854
1.79057
1.77284
1.75532
1.73802
1.72092
1.704
1.68728
1.67072
1.65433
1.63809
1.622
1.60604
1.59022
1.57451
1.55891
1.54339
1.52791
1.51242
1.49676
1.48068
1.46386
1.446
1.42668
2.52429
2.49549
2.46713
2.43918
2.41165
2.38454
2.35784
2.33154
2.30565
2.28016
2.25506
2.23035
2.20604
2.1821
2.15854
2.13535
2.11253
2.09006
2.06795
2.04619
2.02477
2.00369
1.98293
1.96249
1.94235
1.92253
1.90299
1.88375
1.86477
1.84607
1.82762
1.80943
1.79147
1.77374
1.75624
1.73894
1.72185
1.70494
1.68822
1.67168
1.65529
1.63907
1.62299
1.60705
1.59123
1.57553
1.55992
1.54439
1.52887
1.51329
1.49746
1.48115
1.46411
1.4461
1.42695
2.52428
2.49552
2.46718
2.43927
2.41177
2.38469
2.35802
2.33176
2.3059
2.28045
2.25538
2.23071
2.20643
2.18253
2.159
2.13584
2.11305
2.09062
2.06855
2.04681
2.02542
2.00436
1.98363
1.96321
1.9431
1.92329
1.90377
1.88454
1.86558
1.84689
1.82846
1.81027
1.79232
1.7746
1.7571
1.73981
1.72272
1.70583
1.68911
1.67257
1.6562
1.63998
1.6239
1.60797
1.59215
1.57644
1.56082
1.54524
1.52966
1.51395
1.49792
1.48138
1.46416
1.44609
1.42713
2.5243
2.49557
2.46726
2.43937
2.41191
2.38486
2.35822
2.33199
2.30617
2.28075
2.25572
2.23108
2.20683
2.18296
2.15947
2.13634
2.11358
2.09118
2.06913
2.04743
2.02606
2.00502
1.98431
1.96391
1.94382
1.92403
1.90453
1.88531
1.86636
1.84768
1.82925
1.81107
1.79313
1.77541
1.75792
1.74063
1.72355
1.70665
1.68994
1.67341
1.65703
1.64081
1.62474
1.60879
1.59296
1.57723
1.56157
1.54594
1.53026
1.51439
1.49816
1.48143
1.46408
1.446
1.42722
2.52434
2.49563
2.46735
2.4395
2.41206
2.38504
2.35844
2.33224
2.30645
2.28106
2.25606
2.23145
2.20723
2.1834
2.15993
2.13684
2.1141
2.09173
2.06971
2.04802
2.02668
2.00566
1.98497
1.96459
1.94451
1.92474
1.90525
1.88604
1.8671
1.84843
1.83
1.81183
1.79389
1.77618
1.75869
1.7414
1.72432
1.70742
1.69071
1.67417
1.65779
1.64157
1.62548
1.60952
1.59367
1.57791
1.5622
1.5465
1.53068
1.51463
1.49821
1.48134
1.4639
1.44585
1.42723
2.52439
2.49571
2.46746
2.43963
2.41223
2.38524
2.35866
2.3325
2.30674
2.28138
2.25641
2.23183
2.20764
2.18383
2.1604
2.13733
2.11462
2.09227
2.07027
2.04861
2.02729
2.00629
1.98561
1.96524
1.94518
1.92541
1.90593
1.88673
1.8678
1.84913
1.83072
1.81254
1.79461
1.77689
1.7594
1.74211
1.72502
1.70813
1.69141
1.67486
1.65847
1.64224
1.62613
1.61015
1.59427
1.57847
1.5627
1.54689
1.53092
1.5147
1.49812
1.48113
1.46365
1.44565
1.42718
2.52446
2.49581
2.46759
2.43979
2.41241
2.38545
2.3589
2.33277
2.30703
2.2817
2.25677
2.23222
2.20805
2.18427
2.16086
2.13782
2.11513
2.0928
2.07082
2.04918
2.02787
2.00689
1.98623
1.96587
1.94582
1.92606
1.90659
1.8874
1.86847
1.8498
1.83139
1.81321
1.79527
1.77756
1.76006
1.74277
1.72567
1.70877
1.69204
1.67548
1.65908
1.64283
1.6267
1.61069
1.59478
1.57892
1.56307
1.54712
1.531
1.51462
1.49793
1.48085
1.46335
1.4454
1.42706
2.52455
2.49592
2.46773
2.43995
2.41261
2.38567
2.35916
2.33305
2.30734
2.28204
2.25713
2.2326
2.20847
2.18471
2.16132
2.1383
2.11564
2.09333
2.07136
2.04974
2.02845
2.00748
1.98683
1.96648
1.94644
1.92668
1.90722
1.88802
1.8691
1.85043
1.83201
1.81384
1.79589
1.77818
1.76067
1.74337
1.72627
1.70935
1.69261
1.67604
1.65962
1.64334
1.62719
1.61115
1.59519
1.57926
1.56329
1.54721
1.53094
1.51444
1.49764
1.48051
1.463
1.44512
1.42691
2.52466
2.49605
2.46788
2.44014
2.41281
2.38591
2.35942
2.33333
2.30766
2.28238
2.25749
2.23299
2.20888
2.18514
2.16178
2.13877
2.11613
2.09384
2.07189
2.05028
2.029
2.00804
1.9874
1.96706
1.94702
1.92727
1.90781
1.88862
1.86969
1.85102
1.8326
1.81442
1.79647
1.77874
1.76123
1.74392
1.7268
1.70987
1.69312
1.67652
1.66008
1.64378
1.6276
1.61151
1.59549
1.57947
1.56338
1.54717
1.53078
1.51417
1.4973
1.48012
1.46262
1.44481
1.42671
2.52478
2.4962
2.46805
2.44033
2.41303
2.38616
2.35969
2.33363
2.30798
2.28272
2.25786
2.23338
2.20929
2.18557
2.16223
2.13924
2.11662
2.09434
2.07241
2.05081
2.02954
2.00859
1.98795
1.96762
1.94758
1.92784
1.90837
1.88918
1.87025
1.85157
1.83315
1.81496
1.797
1.77926
1.76174
1.74442
1.72728
1.71034
1.69356
1.67695
1.66048
1.64415
1.62793
1.6118
1.5957
1.57957
1.56336
1.54703
1.53053
1.51384
1.49691
1.47971
1.46223
1.44448
1.42649
2.52491
2.49636
2.46824
2.44054
2.41327
2.38641
2.35997
2.33393
2.3083
2.28307
2.25823
2.23378
2.2097
2.186
2.16267
2.13971
2.11709
2.09483
2.07291
2.05132
2.03005
2.00911
1.98848
1.96815
1.94812
1.92837
1.9089
1.8897
1.87077
1.85209
1.83366
1.81546
1.79749
1.77974
1.7622
1.74486
1.72772
1.71075
1.69395
1.67732
1.66082
1.64446
1.6282
1.612
1.5958
1.57956
1.56324
1.54681
1.53022
1.51346
1.49648
1.47927
1.46182
1.44413
1.42625
2.52507
2.49653
2.46843
2.44076
2.41351
2.38668
2.36026
2.33425
2.30864
2.28342
2.2586
2.23417
2.21011
2.18643
2.16311
2.14016
2.11756
2.09531
2.07339
2.05181
2.03055
2.00961
1.98898
1.96866
1.94862
1.92887
1.9094
1.8902
1.87126
1.85257
1.83413
1.81592
1.79794
1.78018
1.76262
1.74527
1.7281
1.71112
1.6943
1.67763
1.66111
1.64471
1.62839
1.6121
1.59581
1.57947
1.56305
1.54653
1.52987
1.51305
1.49604
1.47882
1.4614
1.44378
1.426
2.52523
2.49672
2.46864
2.44099
2.41377
2.38695
2.36056
2.33456
2.30897
2.28378
2.25898
2.23456
2.21052
2.18685
2.16355
2.14061
2.11802
2.09577
2.07387
2.05229
2.03104
2.0101
1.98947
1.96914
1.94911
1.92935
1.90988
1.89067
1.87172
1.85302
1.83457
1.81635
1.79835
1.78058
1.763
1.74563
1.72845
1.71144
1.6946
1.67791
1.66135
1.6449
1.6285
1.61213
1.59573
1.5793
1.56279
1.5462
1.52948
1.51261
1.49558
1.47837
1.46098
1.44343
1.42574
2.52541
2.49693
2.46887
2.44124
2.41403
2.38724
2.36086
2.33489
2.30932
2.28414
2.25935
2.23495
2.21092
2.18727
2.16398
2.14105
2.11847
2.09623
2.07433
2.05275
2.0315
2.01057
1.98994
1.96961
1.94957
1.92981
1.91033
1.89111
1.87215
1.85344
1.83498
1.81674
1.79873
1.78094
1.76335
1.74596
1.72875
1.71172
1.69486
1.67814
1.66153
1.64501
1.62854
1.61207
1.59559
1.57907
1.56249
1.54583
1.52906
1.51216
1.49511
1.47791
1.46056
1.44308
1.42547
2.52561
2.49714
2.46911
2.4415
2.41431
2.38754
2.36118
2.33522
2.30967
2.2845
2.25973
2.23534
2.21133
2.18769
2.16441
2.14148
2.11891
2.09668
2.07478
2.05321
2.03196
2.01102
1.99039
1.97006
1.95001
1.93025
1.91075
1.89153
1.87256
1.85384
1.83536
1.81711
1.79909
1.78127
1.76367
1.74625
1.72903
1.71197
1.69508
1.67832
1.66166
1.64507
1.62851
1.61195
1.59539
1.5788
1.56216
1.54544
1.52862
1.51169
1.49464
1.47746
1.46015
1.44272
1.4252
2.52583
2.49738
2.46936
2.44177
2.4146
2.38784
2.3615
2.33556
2.31002
2.28487
2.26012
2.23574
2.21174
2.1881
2.16483
2.14191
2.11934
2.09711
2.07522
2.05365
2.0324
2.01146
1.99082
1.97049
1.95043
1.93066
1.91116
1.89192
1.87294
1.85421
1.83572
1.81745
1.79941
1.78158
1.76395
1.74652
1.72927
1.71219
1.69526
1.67845
1.66172
1.64505
1.62841
1.61178
1.59515
1.57849
1.56179
1.54502
1.52817
1.51122
1.49417
1.477
1.45974
1.44237
1.42494
2.52606
2.49763
2.46963
2.44205
2.4149
2.38816
2.36183
2.33591
2.31038
2.28525
2.2605
2.23613
2.21214
2.18852
2.16525
2.14234
2.11977
2.09755
2.07565
2.05408
2.03283
2.01189
1.99125
1.9709
1.95084
1.93106
1.91155
1.8923
1.87331
1.85456
1.83605
1.81777
1.79971
1.78187
1.76422
1.74677
1.72949
1.71238
1.6954
1.67853
1.66173
1.64498
1.62827
1.61157
1.59487
1.57816
1.5614
1.54459
1.52771
1.51075
1.4937
1.47656
1.45933
1.44203
1.42467
2.5263
2.49789
2.46991
2.44235
2.41521
2.38849
2.36217
2.33626
2.31075
2.28563
2.26089
2.23654
2.21255