/*--------------------------------*- C++ -*----------------------------------*\
  =========                 |
  \\      /  F ield         | OpenFOAM: The Open Source CFD Toolbox
   \\    /   O peration     | Website:  https://openfoam.org
    \\  /    A nd           | Version:  10
     \\/     M anipulation  |
\*---------------------------------------------------------------------------*/
FoamFile
{
    format      ascii;
    class       volVectorField;
    location    "59000";
    object      U;
}
// * * * * * * * * * * * * * * * * * * * * * * * * * * * * * * * * * * * * * //

dimensions      [0 1 -1 0 0 0 0];

internalField   nonuniform List<vector> 
17981
(
(0.11585 3.25666 9.28371e-22)
(0.111956 3.26362 -9.3203e-22)
(0.108132 3.27029 0)
(0.104375 3.27665 -5.90466e-21)
(0.100685 3.28269 1.30145e-20)
(0.0970647 3.28839 -7.05651e-21)
(0.0935169 3.29373 0)
(0.0900441 3.29872 6.11338e-22)
(0.0866492 3.30335 0)
(0.0833346 3.30762 0)
(0.0801029 3.31153 -7.49538e-22)
(0.0769561 3.31509 1.38317e-20)
(0.0738962 3.3183 -1.25209e-20)
(0.0709244 3.32118 0)
(0.0680419 3.32374 0)
(0.0652492 3.32599 0)
(0.0625464 3.32795 0)
(0.0599335 3.32963 -1.41124e-20)
(0.0574098 3.33105 1.35151e-20)
(0.0549745 3.33223 2.80524e-20)
(0.0526264 3.33317 -2.64487e-20)
(0.0503641 3.3339 -4.23717e-22)
(0.0481859 3.33443 0)
(0.0460902 3.33477 0)
(0.0440749 3.33494 2.66469e-20)
(0.0421378 3.33496 -2.51712e-20)
(0.040277 3.33482 2.58562e-20)
(0.03849 3.33456 -2.48382e-20)
(0.0367747 3.33417 -3.86023e-22)
(0.0351287 3.33368 0)
(0.0335496 3.33308 1.86292e-22)
(0.0320351 3.33239 -1.82841e-22)
(0.0305829 3.33163 -1.79352e-22)
(0.0291908 3.33078 2.25302e-20)
(0.0278563 3.32987 -2.1702e-20)
(0.0265774 3.32891 -1.68783e-22)
(0.0253517 3.32789 0)
(0.0241773 3.32683 0)
(0.023052 3.32572 1.58266e-22)
(0.0219739 3.32458 -2.00967e-20)
(0.0209409 3.32342 -9.34442e-23)
(0.0199511 3.32222 1.86742e-20)
(0.0190029 3.32101 7.23177e-23)
(0.0180943 3.31978 0)
(0.0172237 3.31853 0)
(0.0163895 3.31728 0)
(0.01559 3.31602 0)
(0.0148238 3.31475 -1.67006e-20)
(0.0519833 3.27341 -5.6256e-21)
(0.0474481 3.28067 0)
(0.0429973 3.28763 -1.63238e-20)
(0.0386327 3.29427 4.02172e-20)
(0.0343566 3.30058 -2.28758e-20)
(0.0301718 3.30652 3.45484e-20)
(0.0260813 3.3121 -3.34125e-20)
(0.0220883 3.3173 6.09851e-22)
(0.0181958 3.32211 1.36237e-21)
(0.0144066 3.32653 -4.94084e-20)
(0.0107233 3.33056 9.84812e-20)
(0.00714799 3.33422 -5.04928e-20)
(0.00368223 3.3375 0)
(0.000327123 3.34042 1.69955e-21)
(-0.00291678 3.343 -5.72049e-20)
(-0.00604944 3.34524 5.47483e-20)
(-0.00907131 3.34716 5.80406e-20)
(-0.0119833 3.34878 -5.55433e-20)
(-0.0147867 3.35013 8.8576e-22)
(-0.0174832 3.3512 0)
(-0.0200748 3.35203 -4.41043e-22)
(-0.0225637 3.35263 5.7318e-20)
(-0.0249523 3.35302 -5.36463e-20)
(-0.0272434 3.3532 5.64735e-20)
(-0.0294397 3.35321 -1.08232e-19)
(-0.031544 3.35305 5.22508e-20)
(-0.0335593 3.35273 -5.32664e-20)
(-0.0354886 3.35228 5.11638e-20)
(-0.037335 3.35169 3.98147e-22)
(-0.0391014 3.35099 0)
(-0.0407908 3.35019 1.91867e-22)
(-0.0424061 3.3493 1.8857e-22)
(-0.0439505 3.34831 -4.75939e-20)
(-0.0454266 3.34726 4.61947e-20)
(-0.0468373 3.34614 -5.33172e-22)
(-0.0481853 3.34496 4.50984e-20)
(-0.0494733 3.34372 -4.33129e-20)
(-0.0507039 3.34245 0)
(-0.0518796 3.34113 4.19372e-20)
(-0.0530028 3.33978 -8.13253e-20)
(-0.0540757 3.3384 3.92796e-20)
(-0.0551008 3.337 -3.91983e-20)
(-0.0560801 3.33558 -6.70412e-22)
(-0.0570157 3.33415 3.7009e-20)
(-0.0579096 3.33271 0)
(-0.0587637 3.33126 0)
(-0.0595799 3.3298 1.36133e-22)
(-0.0603599 3.32834 -6.73625e-23)
(-0.0110199 3.29037 0)
(-0.0162415 3.29791 8.98105e-21)
(-0.0213578 3.30515 -9.59128e-21)
(-0.0263665 3.31206 2.33291e-20)
(-0.0312645 3.31861 -2.42193e-20)
(-0.0360482 3.32479 -1.94602e-21)
(-0.0407137 3.33058 0)
(-0.0452572 3.33596 -1.30363e-21)
(-0.0496752 3.34092 -4.20274e-21)
(-0.0539644 3.34547 0)
(-0.058122 3.3496 1.60077e-21)
(-0.0621459 3.35331 3.29255e-21)
(-0.0660348 3.35663 0)
(-0.0697879 3.35955 -1.68791e-23)
(-0.0734051 3.3621 1.77613e-21)
(-0.0768871 3.36429 0)
(-0.0802352 3.36614 1.19283e-19)
(-0.0834509 3.36766 -1.12258e-19)
(-0.0865367 3.36888 -1.20177e-19)
(-0.089495 3.36982 1.14118e-19)
(-0.0923289 3.37049 -1.80605e-21)
(-0.0950416 3.37092 0)
(-0.0976365 3.37112 8.85901e-22)
(-0.100117 3.37111 -8.81309e-22)
(-0.102488 3.3709 8.68554e-22)
(-0.104751 3.37053 -1.10439e-19)
(-0.106912 3.36999 1.06844e-19)
(-0.108974 3.3693 -8.31994e-22)
(-0.110941 3.36848 0)
(-0.112816 3.36754 1.03376e-19)
(-0.114604 3.3665 2.47748e-21)
(-0.116308 3.36536 -9.92133e-20)
(-0.117932 3.36413 0)
(-0.119479 3.36283 0)
(-0.120953 3.36146 -9.49419e-20)
(-0.122356 3.36003 9.18799e-20)
(-0.123693 3.35856 -3.5169e-22)
(-0.124966 3.35704 0)
(-0.126178 3.35548 3.37114e-22)
(-0.127332 3.35389 -3.29691e-22)
(-0.128432 3.35228 -8.31188e-20)
(-0.129478 3.35064 8.02766e-20)
(-0.130475 3.349 1.54182e-22)
(-0.131424 3.34734 -1.50994e-22)
(-0.132327 3.34567 -2.94862e-22)
(-0.133188 3.344 0)
(-0.134007 3.34233 -1.40573e-22)
(-0.134788 3.34066 -7.16979e-20)
(-0.0962888 3.3369 -1.47356e-21)
(-0.101707 3.34329 2.03606e-21)
(-0.10698 3.34926 8.08714e-20)
(-0.112105 3.3548 -1.67526e-19)
(-0.117077 3.35989 8.90613e-20)
(-0.121891 3.36453 -3.04589e-21)
(-0.126545 3.36872 1.05541e-19)
(-0.131037 3.37246 -1.07484e-19)
(-0.135365 3.37577 0)
(-0.139528 3.37865 -1.80424e-21)
(-0.143528 3.38113 1.18656e-19)
(-0.147367 3.38322 -1.15127e-19)
(-0.151045 3.38495 -1.18601e-19)
(-0.154566 3.38632 -9.35016e-21)
(-0.157933 3.38738 1.17137e-19)
(-0.161151 3.38813 -1.21827e-19)
(-0.164222 3.3886 1.16586e-19)
(-0.167152 3.3888 0)
(-0.169946 3.38877 1.16998e-19)
(-0.172607 3.38852 -2.31345e-19)
(-0.175141 3.38806 1.09959e-19)
(-0.177552 3.38742 1.13465e-19)
(-0.179846 3.38662 -1.08037e-19)
(-0.182028 3.38566 -8.54114e-22)
(-0.184101 3.38456 -1.09041e-19)
(-0.186071 3.38335 -6.63913e-22)
(-0.187943 3.38202 -3.79092e-21)
(-0.189721 3.3806 1.02899e-19)
(-0.191408 3.37909 1.01366e-19)
(-0.193011 3.37751 -1.97049e-19)
(-0.194531 3.37586 9.655e-20)
(-0.195975 3.37415 -9.54714e-20)
(-0.197344 3.3724 9.24394e-20)
(-0.198644 3.3706 -9.156e-20)
(-0.199876 3.36878 -2.29788e-21)
(-0.201046 3.36692 8.65231e-20)
(-0.202155 3.36504 9.99111e-22)
(-0.203207 3.36315 -8.35791e-20)
(-0.204206 3.36125 8.07569e-20)
(-0.205153 3.35934 3.11366e-22)
(-0.206051 3.35742 3.0437e-22)
(-0.206903 3.35551 7.62911e-20)
(-0.207711 3.3536 -7.40783e-20)
(-0.208478 3.3517 0)
(-0.16087 3.35553 -3.99311e-20)
(-0.166962 3.36211 -3.88822e-21)
(-0.172882 3.36825 0)
(-0.178623 3.37391 9.1082e-20)
(-0.184179 3.37909 -8.7323e-20)
(-0.189545 3.38379 6.25929e-21)
(-0.194718 3.38799 6.62317e-21)
(-0.199696 3.39171 0)
(-0.204477 3.39496 0)
(-0.209061 3.39776 -3.64846e-21)
(-0.213451 3.40011 0)
(-0.217648 3.40205 0)
(-0.221657 3.4036 -3.82664e-21)
(-0.225481 3.40478 1.91995e-21)
(-0.229124 3.40561 -1.25275e-19)
(-0.232593 3.40611 1.19783e-19)
(-0.235893 3.40632 -1.22127e-19)
(-0.239029 3.40626 1.18727e-19)
(-0.242008 3.40594 1.86962e-21)
(-0.244836 3.4054 0)
(-0.247518 3.40464 -1.18982e-19)
(-0.250061 3.40369 -5.01446e-21)
(-0.252471 3.40257 -4.76904e-21)
(-0.254754 3.4013 1.1288e-19)
(-0.256916 3.39989 -1.12061e-19)
(-0.258962 3.39835 -3.26165e-21)
(-0.260899 3.3967 1.08518e-19)
(-0.26273 3.39496 -1.07128e-19)
(-0.264462 3.39313 1.02382e-19)
(-0.2661 3.39123 0)
(-0.267648 3.38926 1.00371e-19)
(-0.269111 3.38724 -9.83146e-20)
(-0.270494 3.38518 0)
(-0.2718 3.38308 7.32465e-22)
(-0.273033 3.38095 7.17001e-22)
(-0.274199 3.3788 7.02598e-22)
(-0.275299 3.37663 8.78818e-20)
(-0.276338 3.37445 -1.73241e-19)
(-0.27732 3.37227 8.47382e-20)
(-0.278246 3.37008 0)
(-0.279121 3.36789 0)
(-0.279946 3.36572 7.95053e-20)
(-0.280726 3.36355 -7.66204e-20)
(-0.281461 3.3614 0)
(-0.225168 3.3746 -4.15445e-20)
(-0.231981 3.38135 -6.69057e-20)
(-0.23859 3.38762 1.50489e-19)
(-0.244984 3.39338 -7.89238e-20)
(-0.251156 3.39861 -1.00411e-19)
(-0.257099 3.40332 9.27574e-20)
(-0.262811 3.40748 -3.396e-21)
(-0.268289 3.41113 0)
(-0.273532 3.41426 -1.21101e-19)
(-0.278542 3.4169 2.43076e-19)
(-0.283322 3.41908 7.67765e-21)
(-0.287876 3.4208 -1.2e-19)
(-0.292208 3.42211 -3.87866e-21)
(-0.296325 3.42302 -1.28174e-19)
(-0.300233 3.42356 1.22455e-19)
(-0.303939 3.42377 -1.27642e-19)
(-0.307451 3.42367 -4.82564e-21)
(-0.310775 3.42327 1.21484e-19)
(-0.31392 3.42262 -5.74939e-21)
(-0.316894 3.42172 0)
(-0.319703 3.42061 4.31092e-24)
(-0.322356 3.41931 1.85699e-21)
(-0.324859 3.41783 1.18709e-19)
(-0.327221 3.41619 2.88376e-21)
(-0.329448 3.41441 -2.27539e-19)
(-0.331546 3.41251 1.08979e-19)
(-0.333523 3.4105 -3.44206e-21)
(-0.335385 3.40839 0)
(-0.337137 3.4062 -2.14768e-19)
(-0.338786 3.40394 2.06994e-19)
(-0.340338 3.40163 0)
(-0.341797 3.39926 7.85558e-22)
(-0.343169 3.39685 1.98787e-19)
(-0.344459 3.39442 -1.92651e-19)
(-0.345671 3.39195 0)
(-0.34681 3.38948 -7.24708e-22)
(-0.34788 3.38699 7.1034e-22)
(-0.348884 3.38449 6.94734e-22)
(-0.349827 3.382 -1.75876e-19)
(-0.350712 3.37951 1.69426e-19)
(-0.351543 3.37703 -6.51596e-22)
(-0.352322 3.37457 -1.64526e-19)
(-0.353053 3.37212 1.586e-19)
(-0.353739 3.36969 0)
(-0.297004 3.40113 -3.78748e-21)
(-0.304344 3.40749 -4.58521e-21)
(-0.311427 3.41329 0)
(-0.318242 3.41851 -5.85721e-21)
(-0.324784 3.42316 -6.34823e-21)
(-0.331047 3.42722 0)
(-0.337031 3.43072 -1.19407e-19)
(-0.342737 3.43366 1.13778e-19)
(-0.348168 3.43608 0)
(-0.353329 3.43799 -2.56191e-19)
(-0.358225 3.43943 2.482e-19)
(-0.362865 3.44042 3.98333e-21)
(-0.367255 3.441 0)
(-0.371406 3.44119 0)
(-0.375326 3.44103 -3.98006e-21)
(-0.379024 3.44055 0)
(-0.382511 3.43976 2.57669e-19)
(-0.385795 3.43871 -5.02251e-19)
(-0.388886 3.43741 4.9773e-19)
(-0.391793 3.43589 -2.40635e-19)
(-0.394526 3.43417 0)
(-0.397093 3.43228 2.41696e-19)
(-0.399503 3.43023 -2.341e-19)
(-0.401765 3.42804 0)
(-0.403886 3.42572 2.34538e-19)
(-0.405874 3.42331 -4.51221e-19)
(-0.407736 3.4208 2.18766e-19)
(-0.40948 3.41821 -2.21091e-19)
(-0.411112 3.41556 2.11485e-19)
(-0.412639 3.41285 -2.13107e-19)
(-0.414067 3.41011 2.05642e-19)
(-0.415401 3.40732 0)
(-0.416647 3.40452 1.99484e-19)
(-0.417811 3.40169 -1.94211e-19)
(-0.418897 3.39886 0)
(-0.41991 3.39602 -1.89806e-19)
(-0.420855 3.39319 1.83532e-19)
(-0.421735 3.39036 -7.04086e-22)
(-0.422555 3.38755 -1.77351e-19)
(-0.423319 3.38475 3.45127e-19)
(-0.424029 3.38198 -1.67279e-19)
(-0.424689 3.37922 1.66631e-19)
(-0.425303 3.3765 1.60085e-21)
(-0.378246 3.43368 -5.26025e-21)
(-0.385718 3.43881 1.78566e-22)
(-0.392861 3.44332 6.55006e-21)
(-0.399672 3.44719 0)
(-0.406152 3.45045 -2.49138e-19)
(-0.412305 3.45312 4.72751e-19)
(-0.418135 3.45522 1.80138e-20)
(-0.423651 3.45679 1.66252e-20)
(-0.428862 3.45786 -2.60174e-19)
(-0.433778 3.45846 -4.02126e-21)
(-0.43841 3.45863 0)
(-0.442768 3.4584 -2.6671e-19)
(-0.446866 3.4578 -7.14853e-21)
(-0.450714 3.45686 2.58674e-19)
(-0.454325 3.45563 0)
(-0.45771 3.45411 1.37716e-23)
(-0.46088 3.45235 3.97376e-21)
(-0.463848 3.45036 -3.93637e-21)
(-0.466623 3.44818 0)
(-0.469217 3.44582 2.47955e-19)
(-0.471639 3.44331 -2.40251e-19)
(-0.473898 3.44066 0)
(-0.476006 3.4379 1.8473e-21)
(-0.477969 3.43503 2.35477e-19)
(-0.479797 3.43208 -2.23337e-19)
(-0.481498 3.42905 0)
(-0.48308 3.42597 2.23747e-19)
(-0.484549 3.42284 -2.15913e-19)
(-0.485913 3.41968 1.67176e-21)
(-0.487178 3.41649 0)
(-0.488351 3.41328 1.60955e-21)
(-0.489436 3.41007 0)
(-0.490441 3.40685 -1.99599e-19)
(-0.491369 3.40364 3.88605e-19)
(-0.492226 3.40044 -3.80797e-19)
(-0.493017 3.39726 1.86841e-19)
(-0.493746 3.3941 0)
(-0.494416 3.39096 6.98124e-22)
(-0.495032 3.38785 -1.75978e-19)
(-0.495598 3.38478 3.41911e-19)
(-0.496117 3.38174 -1.69173e-19)
(-0.453887 3.45944 -1.98981e-19)
(-0.461608 3.46369 1.88564e-19)
(-0.468938 3.46727 0)
(-0.47588 3.4702 7.36309e-21)
(-0.48244 3.47249 1.19529e-22)
(-0.488629 3.47419 0)
(-0.494456 3.47532 0)
(-0.499935 3.47593 1.62333e-20)
(-0.50508 3.47606 4.12171e-21)
(-0.509904 3.47574 4.11736e-21)
(-0.514422 3.475 0)
(-0.518649 3.47389 -2.71481e-19)
(-0.522598 3.47244 2.55611e-19)
(-0.526286 3.47069 2.69127e-19)
(-0.529724 3.46865 -2.53832e-19)
(-0.532928 3.46637 -4.07889e-21)
(-0.535909 3.46387 4.04217e-21)
(-0.538682 3.46117 0)
(-0.541257 3.4583 3.95579e-21)
(-0.543647 3.45528 2.53128e-19)
(-0.545864 3.45213 -2.43645e-19)
(-0.547915 3.44887 -2.4989e-19)
(-0.549813 3.44552 2.39012e-19)
(-0.551568 3.44209 -3.68974e-21)
(-0.553188 3.43859 0)
(-0.55468 3.43505 3.57277e-21)
(-0.556055 3.43147 2.2858e-19)
(-0.557318 3.42786 -2.20801e-19)
(-0.558479 3.42423 2.18782e-19)
(-0.559543 3.4206 -4.26198e-19)
(-0.560516 3.41697 2.07619e-19)
(-0.561406 3.41334 -2.06637e-19)
(-0.562218 3.40973 1.99906e-19)
(-0.562957 3.40614 -7.7033e-22)
(-0.563628 3.40258 8.81177e-25)
(-0.564236 3.39905 7.4062e-22)
(-0.564785 3.39556 0)
(-0.56528 3.3921 -7.10444e-22)
(-0.565725 3.38869 0)
(-0.566122 3.38532 6.90642e-22)
(-0.539056 3.48726 0)
(-0.546398 3.48974 7.27082e-21)
(-0.553302 3.49156 7.71605e-21)
(-0.559783 3.49275 0)
(-0.565857 3.49336 -2.67794e-19)
(-0.57154 3.49343 2.46855e-19)
(-0.576849 3.493 -8.29592e-21)
(-0.581802 3.49212 -4.21902e-21)
(-0.586417 3.49081 -2.76815e-19)
(-0.590711 3.48913 -1.21133e-20)
(-0.594703 3.4871 2.69195e-19)
(-0.598408 3.48477 0)
(-0.601843 3.48216 -2.73379e-19)
(-0.605024 3.47931 -8.97821e-21)
(-0.607966 3.47624 5.33662e-19)
(-0.610682 3.47298 -2.58489e-19)
(-0.613188 3.46955 -2.63321e-19)
(-0.615497 3.46598 5.09602e-19)
(-0.617619 3.4623 -2.54527e-19)
(-0.619569 3.4585 -1.95366e-21)
(-0.621355 3.45463 -1.93045e-21)
(-0.622989 3.45068 -2.42219e-19)
(-0.624482 3.44668 -4.77025e-21)
(-0.625843 3.44264 2.32035e-19)
(-0.627081 3.43858 -1.81489e-21)
(-0.628205 3.43449 0)
(-0.629222 3.43041 -1.75491e-21)
(-0.630141 3.42632 0)
(-0.630967 3.42225 0)
(-0.631708 3.4182 0)
(-0.632369 3.41417 1.63171e-21)
(-0.632957 3.41017 0)
(-0.633477 3.40622 -7.8403e-22)
(-0.633935 3.4023 9.22337e-25)
(-0.634334 3.39843 -7.54134e-22)
(-0.63468 3.39461 1.91517e-19)
(-0.634976 3.39085 -1.84173e-19)
(-0.635226 3.38713 1.84821e-19)
(-0.637869 3.51062 2.71083e-19)
(-0.643672 3.51007 -2.49981e-19)
(-0.649065 3.50902 8.49996e-21)
(-0.654068 3.5075 0)
(-0.658704 3.50556 -2.81907e-19)
(-0.662993 3.50324 2.69703e-19)
(-0.666954 3.50059 -2.40877e-23)
(-0.670608 3.49763 4.2977e-21)
(-0.673973 3.4944 0)
(-0.677067 3.49093 -4.26306e-21)
(-0.679907 3.48725 -4.24872e-21)
(-0.682508 3.48339 -2.73391e-19)
(-0.684887 3.47938 2.63119e-19)
(-0.687057 3.47523 4.13131e-21)
(-0.689033 3.47097 5.9273e-24)
(-0.690828 3.46661 2.65211e-19)
(-0.692456 3.46219 -2.51978e-19)
(-0.693925 3.4577 -1.96456e-21)
(-0.695249 3.45318 -1.93589e-21)
(-0.696436 3.44862 0)
(-0.697498 3.44405 2.42637e-19)
(-0.698443 3.43948 -2.34609e-19)
(-0.699279 3.43491 2.34689e-19)
(-0.700015 3.43036 -2.28867e-19)
(-0.700658 3.42583 -2.26594e-19)
(-0.701215 3.42133 2.21099e-19)
(-0.701694 3.41687 -1.69417e-21)
(-0.702099 3.41245 -2.12664e-19)
(-0.702437 3.40808 2.06014e-19)
(-0.702714 3.40377 -2.05355e-19)
(-0.702934 3.39951 2.01379e-19)
(-0.703102 3.39532 1.97275e-19)
(-0.703223 3.39119 -1.92765e-19)
(-0.7033 3.38712 -7.48791e-22)
(-0.710446 3.52678 0)
(-0.716277 3.52554 -1.0284e-22)
(-0.721665 3.5238 2.82948e-19)
(-0.726635 3.52159 -2.78901e-19)
(-0.73121 3.51897 0)
(-0.735416 3.51598 -8.76461e-21)
(-0.739274 3.51265 4.36732e-21)
(-0.742806 3.50903 2.87624e-19)
(-0.746033 3.50515 1.04776e-20)
(-0.748975 3.50103 -2.71031e-19)
(-0.751651 3.49672 -2.78946e-19)
(-0.754078 3.49223 2.72646e-19)
(-0.756273 3.4876 2.78579e-19)
(-0.758252 3.48285 -2.64234e-19)
(-0.76003 3.478 2.77038e-19)
(-0.761621 3.47306 -2.67415e-19)
(-0.763039 3.46807 -4.1119e-21)
(-0.764295 3.46303 2.62789e-19)
(-0.765402 3.45796 -5.071e-19)
(-0.766371 3.45287 -6.85276e-21)
(-0.767212 3.44778 2.4704e-19)
(-0.767935 3.4427 -2.47701e-19)
(-0.76855 3.43763 2.41622e-19)
(-0.769064 3.4326 -2.3786e-19)
(-0.769486 3.4276 4.67806e-19)
(-0.769823 3.42264 -2.28274e-19)
(-0.770083 3.41774 0)
(-0.770272 3.41289 -1.73276e-21)
(-0.770395 3.4081 1.7011e-21)
(-0.77046 3.40338 -3.34041e-21)
(-0.77047 3.39873 -2.11755e-19)
(-0.770432 3.39415 2.06177e-19)
(-0.770349 3.38964 1.57548e-21)
(-0.770226 3.38522 0)
(-0.783428 3.54152 -2.57148e-19)
(-0.789187 3.53955 2.74438e-19)
(-0.794474 3.53708 -5.66228e-19)
(-0.799319 3.53415 2.83532e-19)
(-0.803749 3.53082 -8.88021e-21)
(-0.807789 3.52712 -2.851e-19)
(-0.811466 3.52309 2.72982e-19)
(-0.814803 3.51878 2.90114e-19)
(-0.817822 3.51422 -2.87576e-19)
(-0.820546 3.50943 2.88418e-19)
(-0.822994 3.50447 -2.86383e-19)
(-0.825185 3.49934 0)
(-0.827137 3.49407 -4.4174e-21)
(-0.828868 3.4887 2.803e-19)
(-0.830393 3.48324 -5.5667e-19)
(-0.831727 3.47771 2.72236e-19)
(-0.832886 3.47213 5.37761e-24)
(-0.833881 3.46652 0)
(-0.834726 3.46089 -8.31597e-21)
(-0.835432 3.45526 2.67268e-19)
(-0.836011 3.44964 -5.18141e-19)
(-0.836472 3.44404 2.53133e-19)
(-0.836826 3.43848 0)
(-0.837082 3.43295 0)
(-0.837247 3.42747 -2.45647e-19)
(-0.83733 3.42205 4.77762e-19)
(-0.837338 3.4167 -2.34167e-19)
(-0.837279 3.41141 2.33256e-19)
(-0.837158 3.4062 -2.26215e-19)
(-0.836981 3.40107 -1.40129e-24)
(-0.836754 3.39601 -2.20692e-19)
(-0.836483 3.39105 2.12448e-19)
(-0.836171 3.38617 -8.24559e-22)
(-0.835823 3.38138 -2.1116e-19)
(-0.856573 3.55454 8.36932e-21)
(-0.862155 3.55181 0)
(-0.867243 3.54859 8.8997e-21)
(-0.871871 3.54492 0)
(-0.876068 3.54085 3.07943e-19)
(-0.879863 3.53643 -2.95582e-19)
(-0.883281 3.5317 0)
(-0.88635 3.52669 9.22508e-21)
(-0.889093 3.52144 3.06731e-19)
(-0.891532 3.51598 -2.86101e-19)
(-0.89369 3.51035 -4.60409e-21)
(-0.895587 3.50457 4.58602e-21)
(-0.897241 3.49867 3.01287e-19)
(-0.89867 3.49267 -5.80868e-19)
(-0.899892 3.4866 2.84405e-19)
(-0.900923 3.48047 2.98061e-19)
(-0.901776 3.4743 -2.75136e-19)
(-0.902467 3.46812 -2.8292e-19)
(-0.903008 3.46193 5.6198e-19)
(-0.903412 3.45576 -2.70629e-19)
(-0.90369 3.4496 0)
(-0.903853 3.44349 0)
(-0.903911 3.43741 0)
(-0.903874 3.4314 0)
(-0.90375 3.42544 1.99009e-21)
(-0.903548 3.41956 0)
(-0.903275 3.41375 -1.92761e-21)
(-0.902939 3.40802 2.46115e-19)
(-0.902545 3.40238 -2.36971e-19)
(-0.902101 3.39683 -1.10073e-24)
(-0.901611 3.39138 -2.31469e-19)
(-0.901082 3.38603 2.2469e-19)
(-0.900517 3.38077 1.73298e-21)
(-0.899922 3.37562 0)
(-0.934865 3.56207 2.71069e-19)
(-0.939662 3.5581 -2.97272e-19)
(-0.943986 3.55369 5.86427e-19)
(-0.94787 3.5489 -2.80074e-19)
(-0.951342 3.54376 9.42927e-21)
(-0.954432 3.53832 0)
(-0.957167 3.53262 -6.06147e-23)
(-0.95957 3.52669 -9.50408e-21)
(-0.961667 3.52056 3.10757e-19)
(-0.96348 3.51427 -2.90071e-19)
(-0.965029 3.50785 -1.77138e-23)
(-0.966335 3.50131 4.72157e-21)
(-0.967415 3.4947 0)
(-0.968289 3.48801 3.03001e-19)
(-0.968971 3.48129 -2.97695e-19)
(-0.969479 3.47455 2.97643e-19)
(-0.969825 3.46779 -5.82751e-19)
(-0.970025 3.46105 2.80812e-19)
(-0.97009 3.45433 4.45278e-21)
(-0.970033 3.44765 0)
(-0.969864 3.44101 0)
(-0.969595 3.43444 -2.76865e-19)
(-0.969235 3.42793 2.68543e-19)
(-0.968793 3.4215 -2.08475e-21)
(-0.968278 3.41515 0)
(-0.967697 3.40889 2.02163e-21)
(-0.967058 3.40273 -1.98929e-21)
(-0.966368 3.39666 0)
(-0.965632 3.39071 2.47758e-19)
(-0.964858 3.38486 -4.82106e-19)
(-0.964049 3.37912 2.36387e-19)
(-0.963211 3.37349 2.32828e-19)
(-0.962349 3.36798 -2.29407e-19)
(-1.00694 3.57017 2.87315e-19)
(-1.01136 3.56546 -2.83342e-19)
(-1.01531 3.56034 9.30103e-21)
(-1.01881 3.55483 3.1268e-19)
(-1.02189 3.549 -2.90795e-19)
(-1.02459 3.54287 -9.6856e-21)
(-1.02694 3.5365 3.10198e-19)
(-1.02895 3.5299 2.24725e-20)
(-1.03065 3.52313 -3.09419e-19)
(-1.03207 3.5162 -1.47727e-20)
(-1.03323 3.50914 -9.8432e-21)
(-1.03414 3.50199 -3.2381e-19)
(-1.03483 3.49477 6.2563e-19)
(-1.03532 3.48749 -6.22266e-19)
(-1.03562 3.48019 3.00383e-19)
(-1.03575 3.47287 -3.10432e-19)
(-1.03571 3.46556 3.00755e-19)
(-1.03554 3.45827 4.70447e-21)
(-1.03524 3.45101 -3.01254e-19)
(-1.03482 3.44381 2.92159e-19)
(-1.03429 3.43667 4.55287e-21)
(-1.03367 3.42959 0)
(-1.03296 3.4226 0)
(-1.03217 3.4157 -2.82455e-19)
(-1.03132 3.4089 2.74242e-19)
(-1.03041 3.40219 2.71997e-19)
(-1.02945 3.3956 -2.66231e-19)
(-1.02844 3.38912 0)
(-1.02739 3.38276 4.05445e-21)
(-1.02632 3.37652 -2.56641e-19)
(-1.02521 3.3704 2.5131e-19)
(-1.02408 3.36441 2.47657e-19)
(-1.02294 3.35854 -2.46054e-19)
(-1.07798 3.576 2.88468e-19)
(-1.08196 3.5706 0)
(-1.08546 3.56479 -9.62815e-21)
(-1.08852 3.55862 -1.0138e-22)
(-1.09117 3.55212 -9.94645e-21)
(-1.09343 3.54535 3.38263e-19)
(-1.09533 3.53833 -6.46661e-19)
(-1.09691 3.5311 3.28807e-19)
(-1.09818 3.5237 0)
(-1.09917 3.51615 3.33071e-19)
(-1.0999 3.50849 -3.06573e-19)
(-1.10039 3.50075 0)
(-1.10066 3.49293 3.35735e-19)
(-1.10073 3.48508 -6.4918e-19)
(-1.10062 3.47721 6.50781e-19)
(-1.10034 3.46934 7.73577e-21)
(-1.0999 3.46148 -6.36825e-19)
(-1.09933 3.45366 3.12344e-19)
(-1.09864 3.44589 -7.34417e-24)
(-1.09783 3.43817 3.12663e-19)
(-1.09692 3.43053 -3.13093e-19)
(-1.09592 3.42297 0)
(-1.09485 3.41551 0)
(-1.0937 3.40815 -2.99821e-19)
(-1.0925 3.4009 -4.34696e-21)
(-1.09124 3.39376 2.87294e-19)
(-1.08993 3.38674 0)
(-1.08859 3.37985 0)
(-1.08722 3.37309 -2.14204e-21)
(-1.08583 3.36647 -2.10718e-21)
(-1.08441 3.35998 -4.14389e-21)
(-1.08298 3.35363 2.64111e-19)
(-1.08154 3.34742 -5.21608e-19)
(-1.15106 3.57353 2.95064e-19)
(-1.15408 3.56709 3.24196e-19)
(-1.15666 3.56029 -3.21709e-19)
(-1.15883 3.55318 -3.25101e-19)
(-1.16062 3.54579 3.12697e-19)
(-1.16205 3.53816 0)
(-1.16316 3.53034 -1.05753e-20)
(-1.16398 3.52235 3.4579e-19)
(-1.16451 3.51422 2.29063e-20)
(-1.16479 3.50598 -6.92769e-19)
(-1.16483 3.49767 3.30394e-19)
(-1.16466 3.4893 3.40228e-19)
(-1.16429 3.48089 -3.34902e-19)
(-1.16374 3.47248 0)
(-1.16304 3.46407 -3.40505e-19)
(-1.16218 3.45569 6.68517e-19)
(-1.1612 3.44735 -3.33379e-19)
(-1.16009 3.43908 -5.14565e-21)
(-1.15888 3.43087 0)
(-1.15758 3.42274 5.04651e-21)
(-1.15619 3.41472 0)
(-1.15473 3.40679 0)
(-1.15321 3.39898 -3.11806e-19)
(-1.15164 3.39129 3.07857e-19)
(-1.15002 3.38373 0)
(-1.14837 3.3763 0)
(-1.14668 3.36901 -2.3037e-21)
(-1.14498 3.36187 -2.94516e-19)
(-1.14325 3.35487 2.84143e-19)
(-1.14152 3.34801 4.18035e-25)
(-1.13977 3.34131 -2.80104e-19)
(-1.13803 3.33476 2.76326e-19)
(-1.21832 3.57433 3.2509e-19)
(-1.22083 3.56732 -3.02391e-19)
(-1.2229 3.55995 3.30515e-19)
(-1.22457 3.55227 -3.4943e-19)
(-1.22587 3.54432 -3.40725e-19)
(-1.22682 3.53613 3.28528e-19)
(-1.22744 3.52775 0)
(-1.22778 3.51921 0)
(-1.22784 3.51053 -3.61717e-19)
(-1.22765 3.50176 3.50308e-19)
(-1.22723 3.4929 1.67178e-20)
(-1.2266 3.484 5.56518e-21)
(-1.22579 3.47507 5.5574e-21)
(-1.2248 3.46614 -3.5991e-19)
(-1.22365 3.45723 -8.7462e-21)
(-1.22237 3.44834 3.47788e-19)
(-1.22096 3.43951 3.53495e-19)
(-1.21944 3.43075 -3.43468e-19)
(-1.21781 3.42206 0)
(-1.21611 3.41347 0)
(-1.21432 3.40499 -3.40554e-19)
(-1.21248 3.39662 3.36269e-19)
(-1.21058 3.38837 3.32584e-19)
(-1.20863 3.38026 -6.54285e-19)
(-1.20664 3.37229 3.19305e-19)
(-1.20463 3.36446 -3.19425e-19)
(-1.2026 3.35678 6.27905e-19)
(-1.20055 3.34925 -3.0377e-19)
(-1.19849 3.34189 0)
(-1.19643 3.33468 3.02608e-19)
(-1.19437 3.32764 -5.87374e-19)
(-1.19232 3.32076 2.89095e-19)
(-1.28342 3.57317 -3.10421e-19)
(-1.28541 3.56565 -1.04766e-20)
(-1.28697 3.55776 1.0753e-20)
(-1.28813 3.54957 3.59673e-19)
(-1.28893 3.5411 -3.36086e-19)
(-1.28938 3.5324 2.25963e-20)
(-1.28952 3.52351 -3.73711e-19)
(-1.28937 3.51446 -1.47704e-20)
(-1.28895 3.50527 3.53221e-19)
(-1.28829 3.49599 1.16427e-20)
(-1.28741 3.48664 -1.17311e-20)
(-1.28632 3.47724 -5.87126e-21)
(-1.28506 3.46782 -5.86805e-21)
(-1.28362 3.4584 -5.83767e-21)
(-1.28204 3.449 0)
(-1.28032 3.43964 0)
(-1.27849 3.43033 -5.76212e-21)
(-1.27654 3.42111 0)
(-1.27451 3.41196 -3.73186e-19)
(-1.2724 3.40293 -1.24219e-20)
(-1.27022 3.394 7.09132e-19)
(-1.26798 3.3852 -7.12932e-19)
(-1.2657 3.37653 3.47004e-19)
(-1.26337 3.368 -5.39853e-21)
(-1.26102 3.35963 -2.66599e-21)
(-1.25865 3.35141 0)
(-1.25626 3.34335 3.34579e-19)
(-1.25387 3.33546 -6.5528e-19)
(-1.25147 3.32774 3.20833e-19)
(-1.24909 3.32018 0)
(-1.24671 3.31281 3.16888e-19)
(-1.24435 3.30561 -3.07943e-19)
(-1.3461 3.57028 -3.45338e-19)
(-1.34759 3.5623 6.78399e-19)
(-1.34864 3.55395 -3.43786e-19)
(-1.3493 3.54528 1.14222e-20)
(-1.3496 3.53634 -3.92477e-19)
(-1.34955 3.52717 -1.80922e-20)
(-1.3492 3.51781 7.7717e-19)
(-1.34857 3.50829 -3.90997e-19)
(-1.34768 3.49865 3.97516e-19)
(-1.34656 3.4889 -3.97936e-19)
(-1.34522 3.47909 0)
(-1.34369 3.46923 0)
(-1.34198 3.45934 -6.16446e-21)
(-1.34011 3.44946 4.06299e-19)
(-1.33809 3.43961 -3.8885e-19)
(-1.33595 3.4298 -6.12249e-21)
(-1.3337 3.42004 -3.94888e-19)
(-1.33134 3.41037 3.84111e-19)
(-1.3289 3.40079 -3.77398e-19)
(-1.32639 3.39132 3.84931e-19)
(-1.32381 3.38197 3.88614e-19)
(-1.32119 3.37275 6.415e-21)
(-1.31852 3.36367 -3.68783e-19)
(-1.31583 3.35474 5.74891e-21)
(-1.31311 3.34597 -3.63172e-19)
(-1.31038 3.33737 3.53507e-19)
(-1.30764 3.32895 -2.76473e-21)
(-1.30491 3.32069 0)
(-1.30218 3.31262 -3.4625e-19)
(-1.29947 3.30473 -3.91343e-21)
(-1.29677 3.29703 -6.28856e-21)
(-1.2941 3.28952 3.31312e-19)
(-1.40617 3.56591 3.68356e-19)
(-1.40718 3.55757 -3.3434e-19)
(-1.40775 3.54879 1.15222e-20)
(-1.40793 3.53965 1.18462e-20)
(-1.40774 3.53024 1.21009e-20)
(-1.40722 3.52064 3.92742e-19)
(-1.4064 3.51087 -8.15456e-19)
(-1.40531 3.50094 4.10843e-19)
(-1.40396 3.49088 1.28635e-20)
(-1.40239 3.48072 0)
(-1.40061 3.47049 -4.35285e-19)
(-1.39864 3.4602 -1.29246e-20)
(-1.39651 3.4499 4.17842e-19)
(-1.39421 3.43959 0)
(-1.39178 3.42931 -4.22138e-19)
(-1.38923 3.41906 4.17198e-19)
(-1.38657 3.40888 1.29406e-20)
(-1.38381 3.39878 4.16473e-19)
(-1.38097 3.38878 1.89009e-21)
(-1.37807 3.37889 -3.96476e-19)
(-1.37511 3.36912 0)
(-1.3721 3.35949 -4.03384e-19)
(-1.36906 3.35002 -6.47185e-21)
(-1.366 3.3407 3.95006e-19)
(-1.36292 3.33155 -3.84332e-19)
(-1.35983 3.32257 3.83183e-19)
(-1.35675 3.31378 2.95507e-21)
(-1.35368 3.30518 0)
(-1.35062 3.29676 0)
(-1.34758 3.28854 2.8292e-21)
(-1.34457 3.28052 2.78611e-21)
(-1.34159 3.2727 0)
(-1.46358 3.56028 3.83414e-19)
(-1.46414 3.5517 -3.49772e-19)
(-1.46427 3.54261 3.90717e-19)
(-1.46399 3.53309 -4.03767e-19)
(-1.46335 3.52322 -1.14891e-22)
(-1.46236 3.51311 0)
(-1.46109 3.50286 0)
(-1.45955 3.49252 4.38412e-19)
(-1.45779 3.48211 -8.78875e-19)
(-1.4558 3.47161 4.28108e-19)
(-1.45361 3.46102 1.37429e-20)
(-1.45123 3.45036 0)
(-1.44868 3.43967 -4.48337e-19)
(-1.44599 3.42897 -1.21869e-20)
(-1.44315 3.41829 8.84401e-19)
(-1.4402 3.40764 -4.42975e-19)
(-1.43714 3.39705 4.45198e-19)
(-1.43399 3.38655 -4.26781e-19)
(-1.43077 3.37614 0)
(-1.42748 3.36584 -1.3542e-20)
(-1.42413 3.35567 6.7147e-21)
(-1.42075 3.34565 4.30401e-19)
(-1.41734 3.33578 -4.12745e-19)
(-1.41392 3.32608 -6.54668e-21)
(-1.41048 3.31655 -1.29412e-20)
(-1.40705 3.30721 -4.12253e-19)
(-1.40362 3.29806 4.01613e-19)
(-1.40021 3.28911 4.01641e-19)
(-1.39683 3.28035 7.88716e-21)
(-1.39347 3.27181 -3.88742e-19)
(-1.39015 3.26347 -3.90258e-19)
(-1.38687 3.25534 -4.06197e-21)
(-1.51828 3.55339 -2.17179e-19)
(-1.51841 3.5447 1.76068e-19)
(-1.51813 3.53546 2.11284e-19)
(-1.51744 3.52571 -2.0587e-19)
(-1.51638 3.51554 4.35482e-19)
(-1.51498 3.50505 -4.35365e-19)
(-1.51328 3.49435 0)
(-1.51132 3.48354 1.42444e-20)
(-1.50913 3.47268 4.69116e-19)
(-1.50675 3.4618 -4.53673e-19)
(-1.50417 3.45089 0)
(-1.50141 3.4399 1.45619e-20)
(-1.49849 3.42887 1.46207e-20)
(-1.49541 3.41781 0)
(-1.49219 3.40675 0)
(-1.48886 3.39572 7.35362e-21)
(-1.48542 3.38475 -1.46526e-20)
(-1.48189 3.37385 4.65132e-19)
(-1.47829 3.36305 -4.53195e-19)
(-1.47463 3.35236 1.79577e-23)
(-1.47091 3.34181 -1.43628e-20)
(-1.46717 3.3314 0)
(-1.4634 3.32115 4.48912e-19)
(-1.45962 3.31107 -4.4444e-19)
(-1.45583 3.30117 6.93363e-21)
(-1.45205 3.29147 -3.42222e-21)
(-1.44829 3.28197 0)
(-1.44455 3.27267 -3.33893e-21)
(-1.44084 3.26359 -4.86598e-24)
(-1.43717 3.25472 -4.15241e-19)
(-1.43355 3.24607 4.07614e-19)
(-1.42997 3.23764 0)
(-1.57019 3.54544 -2.40562e-20)
(-1.56993 3.53671 2.11495e-19)
(-1.56927 3.52742 -2.19737e-19)
(-1.56821 3.51758 2.43397e-19)
(-1.56678 3.50723 -2.09544e-19)
(-1.56499 3.49648 -2.4228e-19)
(-1.5629 3.48545 2.34919e-19)
(-1.56055 3.47426 -2.79103e-19)
(-1.55798 3.46299 2.70852e-19)
(-1.55521 3.45171 1.53403e-20)
(-1.55227 3.44043 1.53988e-20)
(-1.54917 3.42912 -3.10187e-20)
(-1.54589 3.41776 -1.56144e-20)
(-1.54246 3.40635 -5.07237e-19)
(-1.53889 3.39494 1.00983e-18)
(-1.5352 3.38355 -5.02671e-19)
(-1.5314 3.37221 -4.98484e-19)
(-1.52751 3.36094 -1.10098e-20)
(-1.52355 3.34975 4.84355e-19)
(-1.51953 3.33869 7.74235e-21)
(-1.51547 3.32775 7.69518e-21)
(-1.51137 3.31696 0)
(-1.50725 3.30633 -7.5621e-21)
(-1.50313 3.29588 0)
(-1.499 3.28562 -7.4208e-21)
(-1.49489 3.27556 4.84665e-19)
(-1.4908 3.26571 -9.29654e-19)
(-1.48674 3.25607 4.56095e-19)
(-1.48272 3.24666 4.5229e-19)
(-1.47875 3.23747 -4.47595e-19)
(-1.47482 3.22851 3.44165e-21)
(-1.47095 3.21979 -3.43256e-21)
(-1.61929 3.5367 2.19005e-19)
(-1.61867 3.52792 0)
(-1.61767 3.51865 -2.30499e-19)
(-1.61629 3.50883 2.10967e-19)
(-1.61453 3.49843 -2.78944e-19)
(-1.61242 3.48755 -1.28994e-20)
(-1.60998 3.4763 2.64845e-19)
(-1.60728 3.46481 -2.64439e-19)
(-1.60436 3.4532 2.39551e-19)
(-1.60125 3.44156 -3.00221e-19)
(-1.59797 3.42992 2.422e-19)
(-1.59454 3.41829 -2.35565e-19)
(-1.59095 3.40661 2.78142e-19)
(-1.58719 3.39488 -1.66386e-20)
(-1.5833 3.38312 2.62615e-19)
(-1.57927 3.37138 -2.5594e-19)
(-1.57514 3.35967 8.34795e-21)
(-1.57092 3.34803 0)
(-1.56662 3.33647 0)
(-1.56227 3.32503 0)
(-1.55787 3.31372 0)
(-1.55343 3.30255 5.28459e-19)
(-1.54898 3.29155 -5.07314e-19)
(-1.54453 3.28073 0)
(-1.54008 3.27011 -5.06322e-19)
(-1.53565 3.25969 -1.51823e-20)
(-1.53124 3.24949 4.99847e-19)
(-1.52688 3.23951 3.85724e-21)
(-1.52255 3.22977 -3.80074e-21)
(-1.51828 3.22026 4.83054e-19)
(-1.51407 3.21099 -9.465e-19)
(-1.50992 3.20197 4.77541e-19)
(-1.66562 3.52742 2.63132e-20)
(-1.66468 3.51862 -2.59567e-19)
(-1.66338 3.50934 2.3988e-19)
(-1.66173 3.49956 -2.51148e-19)
(-1.6597 3.48923 2.62126e-19)
(-1.65731 3.47834 0)
(-1.6546 3.46699 -3.37251e-20)
(-1.6516 3.45531 2.98272e-19)
(-1.64837 3.44345 -5.95116e-21)
(-1.64495 3.43151 -5.42444e-19)
(-1.64137 3.41955 -9.91327e-21)
(-1.63765 3.40761 2.77272e-19)
(-1.63377 3.39563 -1.77587e-20)
(-1.62972 3.38358 2.89147e-19)
(-1.62553 3.37149 -2.82092e-19)
(-1.6212 3.3594 0)