/*--------------------------------*- C++ -*----------------------------------*\
  =========                 |
  \\      /  F ield         | OpenFOAM: The Open Source CFD Toolbox
   \\    /   O peration     | Website:  https://openfoam.org
    \\  /    A nd           | Version:  10
     \\/     M anipulation  |
\*---------------------------------------------------------------------------*/
FoamFile
{
    format      ascii;
    class       volVectorField;
    location    "59000";
    object      Urel;
}
// * * * * * * * * * * * * * * * * * * * * * * * * * * * * * * * * * * * * * //

dimensions      [0 1 -1 0 0 0 0];

internalField   nonuniform List<vector> 
17981
(
(0.159375 -0.432934 9.28371e-22)
(0.155704 -0.444854 -9.3203e-22)
(0.152097 -0.456535 0)
(0.14855 -0.46801 -5.90466e-21)
(0.145065 -0.47931 1.30145e-20)
(0.141643 -0.490462 -7.05651e-21)
(0.138289 -0.50149 0)
(0.135004 -0.512416 6.11338e-22)
(0.131792 -0.523255 0)
(0.128654 -0.534021 0)
(0.125595 -0.544723 -7.49538e-22)
(0.122616 -0.555367 1.38317e-20)
(0.119719 -0.565957 -1.25209e-20)
(0.116906 -0.576492 0)
(0.114177 -0.586971 0)
(0.111534 -0.597392 0)
(0.108976 -0.607749 0)
(0.106505 -0.618038 -1.41124e-20)
(0.104118 -0.628253 1.35151e-20)
(0.101816 -0.638388 2.80524e-20)
(0.099598 -0.648435 -2.64487e-20)
(0.0974617 -0.658388 -4.23717e-22)
(0.0954061 -0.668242 0)
(0.0934295 -0.677989 0)
(0.0915299 -0.687624 2.66469e-20)
(0.0897054 -0.697141 -2.51712e-20)
(0.0879538 -0.706536 2.58562e-20)
(0.0862731 -0.715804 -2.48382e-20)
(0.0846611 -0.72494 -3.86023e-22)
(0.0831154 -0.733941 0)
(0.0816339 -0.742803 1.86292e-22)
(0.0802142 -0.751524 -1.82841e-22)
(0.0788542 -0.760102 -1.79352e-22)
(0.0775516 -0.768533 2.25302e-20)
(0.0763042 -0.776817 -2.1702e-20)
(0.0751098 -0.784953 -1.68783e-22)
(0.0739664 -0.792938 0)
(0.0728719 -0.800774 0)
(0.0718243 -0.808459 1.58266e-22)
(0.0708216 -0.815994 -2.00967e-20)
(0.069862 -0.823379 -9.34442e-23)
(0.0689436 -0.830615 1.86742e-20)
(0.0680646 -0.837701 7.23177e-23)
(0.0672234 -0.84464 0)
(0.0664183 -0.851433 0)
(0.0656477 -0.85808 0)
(0.0649101 -0.864583 0)
(0.064204 -0.870945 -1.67006e-20)
(0.181286 -0.414184 -5.6256e-21)
(0.177413 -0.425795 0)
(0.173606 -0.437175 -1.63238e-20)
(0.169866 -0.448359 4.02172e-20)
(0.166198 -0.459382 -2.28758e-20)
(0.162604 -0.470274 3.45484e-20)
(0.159088 -0.481064 -3.34125e-20)
(0.155653 -0.491775 6.09851e-22)
(0.152302 -0.502425 1.36237e-21)
(0.14904 -0.51303 -4.94084e-20)
(0.145869 -0.523598 9.84812e-20)
(0.142792 -0.534138 -5.04928e-20)
(0.13981 -0.544651 0)
(0.136925 -0.555137 1.69955e-21)
(0.134139 -0.565595 -5.72049e-20)
(0.13145 -0.57602 5.47483e-20)
(0.12886 -0.586405 5.80406e-20)
(0.126368 -0.596745 -5.55433e-20)
(0.123972 -0.607031 8.8576e-22)
(0.121672 -0.617256 0)
(0.119466 -0.627411 -4.41043e-22)
(0.117352 -0.637488 5.7318e-20)
(0.115327 -0.647479 -5.36463e-20)
(0.11339 -0.657376 5.64735e-20)
(0.111537 -0.667172 -1.08232e-19)
(0.109767 -0.676861 5.22508e-20)
(0.108077 -0.686435 -5.32664e-20)
(0.106463 -0.695889 5.11638e-20)
(0.104923 -0.705217 3.98147e-22)
(0.103455 -0.714416 0)
(0.102056 -0.72348 1.91867e-22)
(0.100722 -0.732406 1.8857e-22)
(0.0994512 -0.74119 -4.75939e-20)
(0.0982412 -0.74983 4.61947e-20)
(0.0970891 -0.758325 -5.33172e-22)
(0.0959924 -0.76667 4.50984e-20)
(0.0949486 -0.774867 -4.33129e-20)
(0.0939554 -0.782912 0)
(0.0930105 -0.790806 4.19372e-20)
(0.0921116 -0.798549 -8.13253e-20)
(0.0912566 -0.806139 3.92796e-20)
(0.0904434 -0.813579 -3.91983e-20)
(0.08967 -0.820867 -6.70412e-22)
(0.0889345 -0.828004 3.7009e-20)
(0.0882351 -0.834993 0)
(0.08757 -0.841834 0)
(0.0869375 -0.848527 1.36133e-22)
(0.0863361 -0.855076 -6.73625e-23)
(0.201531 -0.393375 0)
(0.197397 -0.404681 8.98105e-21)
(0.193339 -0.415764 -9.59128e-21)
(0.189358 -0.426664 2.33291e-20)
(0.185459 -0.437418 -2.42193e-20)
(0.181646 -0.448061 -1.94602e-21)
(0.177925 -0.458626 0)
(0.174298 -0.469137 -1.30363e-21)
(0.170772 -0.479617 -4.20274e-21)
(0.167349 -0.490081 0)
(0.164034 -0.50054 1.60077e-21)
(0.160828 -0.511001 3.29255e-21)
(0.157735 -0.521467 0)
(0.154755 -0.531937 -1.68791e-23)
(0.151889 -0.542406 1.77613e-21)
(0.149137 -0.552869 0)
(0.146499 -0.563319 1.19283e-19)
(0.143973 -0.573746 -1.12258e-19)
(0.141558 -0.58414 -1.20177e-19)
(0.139251 -0.594493 1.14118e-19)
(0.137051 -0.604793 -1.80605e-21)
(0.134954 -0.615031 0)
(0.132957 -0.625197 8.85901e-22)
(0.131058 -0.635281 -8.81309e-22)
(0.129253 -0.645274 8.68554e-22)
(0.127538 -0.655169 -1.10439e-19)
(0.125911 -0.664958 1.06844e-19)
(0.124368 -0.674633 -8.31994e-22)
(0.122906 -0.684188 0)
(0.121521 -0.693617 1.03376e-19)
(0.120209 -0.702914 2.47748e-21)
(0.118968 -0.712076 -9.92133e-20)
(0.117794 -0.721098 0)
(0.116685 -0.729977 0)
(0.115636 -0.73871 -9.49419e-20)
(0.114646 -0.747295 9.18799e-20)
(0.11371 -0.755728 -3.5169e-22)
(0.112828 -0.76401 0)
(0.111995 -0.772138 3.37114e-22)
(0.111209 -0.780113 -3.29691e-22)
(0.110468 -0.787933 -8.31188e-20)
(0.10977 -0.795598 8.02766e-20)
(0.109112 -0.80311 1.54182e-22)
(0.108492 -0.810468 -1.50994e-22)
(0.107908 -0.817674 -2.94862e-22)
(0.107358 -0.824727 0)
(0.106841 -0.83163 -1.40573e-22)
(0.106353 -0.838384 -7.16979e-20)
(0.202773 -0.413481 -1.47356e-21)
(0.198696 -0.423886 2.03606e-21)
(0.194724 -0.434239 8.08714e-20)
(0.190865 -0.444568 -1.67526e-19)
(0.187123 -0.454899 8.90613e-20)
(0.183505 -0.465247 -3.04589e-21)
(0.180013 -0.475626 1.05541e-19)
(0.17665 -0.48604 -1.07484e-19)
(0.17342 -0.496494 0)
(0.170324 -0.506983 -1.80424e-21)
(0.16736 -0.517502 1.18656e-19)
(0.16453 -0.528044 -1.15127e-19)
(0.161831 -0.538598 -1.18601e-19)
(0.159262 -0.549154 -9.35016e-21)
(0.15682 -0.559699 1.17137e-19)
(0.154502 -0.570222 -1.21827e-19)
(0.152305 -0.580709 1.16586e-19)
(0.150224 -0.59115 0)
(0.148256 -0.601532 1.16998e-19)
(0.146398 -0.611844 -2.31345e-19)
(0.144643 -0.622075 1.09959e-19)
(0.14299 -0.632216 1.13465e-19)
(0.141433 -0.642258 -1.08037e-19)
(0.139967 -0.652191 -8.54114e-22)
(0.13859 -0.662008 -1.09041e-19)
(0.137296 -0.671703 -6.63913e-22)
(0.136081 -0.681269 -3.79092e-21)
(0.134943 -0.690701 1.02899e-19)
(0.133876 -0.699993 1.01366e-19)
(0.132877 -0.709142 -1.97049e-19)
(0.131943 -0.718144 9.655e-20)
(0.13107 -0.726996 -9.54714e-20)
(0.130254 -0.735696 9.24394e-20)
(0.129494 -0.744241 -9.156e-20)
(0.128784 -0.75263 -2.29788e-21)
(0.128124 -0.760862 8.65231e-20)
(0.127509 -0.768937 9.99111e-22)
(0.126937 -0.776853 -8.35791e-20)
(0.126406 -0.784611 8.07569e-20)
(0.125913 -0.792212 3.11366e-22)
(0.125456 -0.799655 3.0437e-22)
(0.125033 -0.806943 7.62911e-20)
(0.124641 -0.814075 -7.40783e-20)
(0.124279 -0.821053 0)
(0.218029 -0.387643 -3.99311e-20)
(0.213634 -0.397822 -3.88822e-21)
(0.209364 -0.407981 0)
(0.205227 -0.418151 9.1082e-20)
(0.201229 -0.428359 -8.7323e-20)
(0.197378 -0.438624 6.25929e-21)
(0.193677 -0.448958 6.62317e-21)
(0.190131 -0.459366 0)
(0.186741 -0.46985 0)
(0.183508 -0.480404 -3.64846e-21)
(0.180432 -0.49102 0)
(0.177511 -0.501689 0)
(0.174744 -0.512398 -3.82664e-21)
(0.172126 -0.523132 1.91995e-21)
(0.169654 -0.533878 -1.25275e-19)
(0.167325 -0.54462 1.19783e-19)
(0.165132 -0.555344 -1.22127e-19)
(0.163072 -0.566036 1.18727e-19)
(0.16114 -0.576681 1.86962e-21)
(0.159329 -0.587267 0)
(0.157634 -0.597781 -1.18982e-19)
(0.156052 -0.608211 -5.01446e-21)
(0.154575 -0.618548 -4.76904e-21)
(0.153199 -0.628781 1.1288e-19)
(0.151919 -0.638901 -1.12061e-19)
(0.15073 -0.6489 -3.26165e-21)
(0.149626 -0.658772 1.08518e-19)
(0.148604 -0.668509 -1.07128e-19)
(0.147659 -0.678107 1.02382e-19)
(0.146786 -0.68756 0)
(0.145981 -0.696863 1.00371e-19)
(0.14524 -0.706015 -9.83146e-20)
(0.14456 -0.71501 0)
(0.143936 -0.723848 7.32465e-22)
(0.143365 -0.732526 7.17001e-22)
(0.142844 -0.741042 7.02598e-22)
(0.14237 -0.749397 8.78818e-20)
(0.14194 -0.757588 -1.73241e-19)
(0.141551 -0.765617 8.47382e-20)
(0.141199 -0.773482 0)
(0.140884 -0.781186 0)
(0.140601 -0.788728 7.95053e-20)
(0.14035 -0.796109 -7.66204e-20)
(0.140127 -0.803332 0)
(0.231111 -0.359938 -4.15445e-20)
(0.226341 -0.369908 -6.69057e-20)
(0.221719 -0.379894 1.50489e-19)
(0.217257 -0.389935 -7.89238e-20)
(0.212962 -0.400057 -1.00411e-19)
(0.208842 -0.41028 9.27574e-20)
(0.204903 -0.420616 -3.396e-21)
(0.201149 -0.431069 0)
(0.19758 -0.441637 -1.21101e-19)
(0.194198 -0.452312 2.43076e-19)
(0.191 -0.463083 7.67765e-21)
(0.187984 -0.473937 -1.2e-19)
(0.185146 -0.484858 -3.87866e-21)
(0.182482 -0.495829 -1.28174e-19)
(0.179985 -0.506832 1.22455e-19)
(0.177651 -0.51785 -1.27642e-19)
(0.175473 -0.528865 -4.82564e-21)
(0.173444 -0.539861 1.21484e-19)
(0.171559 -0.550821 -5.74939e-21)
(0.16981 -0.561731 0)
(0.16819 -0.572576 4.31092e-24)
(0.166694 -0.583344 1.85699e-21)
(0.165314 -0.594021 1.18709e-19)
(0.164045 -0.604597 2.88376e-21)
(0.16288 -0.615062 -2.27539e-19)
(0.161814 -0.625407 1.08979e-19)
(0.16084 -0.635624 -3.44206e-21)
(0.159953 -0.645704 0)
(0.159148 -0.655643 -2.14768e-19)
(0.158419 -0.665434 2.06994e-19)
(0.157763 -0.675073 0)
(0.157173 -0.684556 7.85558e-22)
(0.156646 -0.693878 1.98787e-19)
(0.156178 -0.703038 -1.92651e-19)
(0.155765 -0.712033 0)
(0.155402 -0.720861 -7.24708e-22)
(0.155087 -0.729521 7.1034e-22)
(0.154816 -0.738013 6.94734e-22)
(0.154585 -0.746336 -1.75876e-19)
(0.154393 -0.75449 1.69426e-19)
(0.154235 -0.762475 -6.51596e-22)
(0.15411 -0.770293 -1.64526e-19)
(0.154015 -0.777944 1.586e-19)
(0.153947 -0.785429 0)
(0.236625 -0.340176 -3.78748e-21)
(0.231598 -0.350027 -4.58521e-21)
(0.226763 -0.359983 0)
(0.222133 -0.370072 -5.85721e-21)
(0.217716 -0.380312 -6.34823e-21)
(0.213517 -0.390714 0)
(0.209539 -0.401278 -1.19407e-19)
(0.205783 -0.411998 1.13778e-19)
(0.202247 -0.422864 0)
(0.198928 -0.433859 -2.56191e-19)
(0.195822 -0.444967 2.482e-19)
(0.192922 -0.456168 3.98333e-21)
(0.190223 -0.467442 0)
(0.187716 -0.478766 0)
(0.185393 -0.490122 -3.98006e-21)
(0.183248 -0.501489 0)
(0.18127 -0.512848 2.57669e-19)
(0.179453 -0.524179 -5.02251e-19)
(0.177787 -0.535467 4.9773e-19)
(0.176265 -0.546696 -2.40635e-19)
(0.174879 -0.55785 0)
(0.17362 -0.568915 2.41696e-19)
(0.172482 -0.579881 -2.341e-19)
(0.171457 -0.590735 0)
(0.170537 -0.601467 2.34538e-19)
(0.169717 -0.612068 -4.51221e-19)
(0.168989 -0.622531 2.18766e-19)
(0.168349 -0.632848 -2.21091e-19)
(0.167789 -0.643012 2.11485e-19)
(0.167304 -0.65302 -2.13107e-19)
(0.166889 -0.662866 2.05642e-19)
(0.166539 -0.672546 0)
(0.166249 -0.682057 1.99484e-19)
(0.166015 -0.691397 -1.94211e-19)
(0.165833 -0.700563 0)
(0.165698 -0.709555 -1.89806e-19)
(0.165607 -0.718372 1.83532e-19)
(0.165556 -0.727012 -7.04086e-22)
(0.165542 -0.735476 -1.77351e-19)
(0.165563 -0.743765 3.45127e-19)
(0.165614 -0.751879 -1.67279e-19)
(0.165694 -0.759818 1.66631e-19)
(0.1658 -0.767585 1.60085e-21)
(0.233505 -0.328379 -5.26025e-21)
(0.228517 -0.338509 1.78566e-22)
(0.223789 -0.348847 6.55006e-21)
(0.219324 -0.359396 0)
(0.215124 -0.370154 -2.49138e-19)
(0.211188 -0.38111 4.72751e-19)
(0.207512 -0.392248 1.80138e-20)
(0.204089 -0.403548 1.66252e-20)
(0.200913 -0.414989 -2.60174e-19)
(0.197975 -0.426545 -4.02126e-21)
(0.195266 -0.438194 0)
(0.192775 -0.449911 -2.6671e-19)
(0.190494 -0.461672 -7.14853e-21)
(0.18841 -0.473454 2.58674e-19)
(0.186515 -0.485236 0)
(0.184797 -0.496997 1.37716e-23)
(0.183246 -0.508719 3.97376e-21)
(0.181853 -0.520383 -3.93637e-21)
(0.180609 -0.531974 0)
(0.179503 -0.543476 2.47955e-19)
(0.178527 -0.554876 -2.40251e-19)
(0.177672 -0.566162 0)
(0.17693 -0.577323 1.8473e-21)
(0.176294 -0.588349 2.35477e-19)
(0.175756 -0.599232 -2.23337e-19)
(0.175309 -0.609963 0)
(0.174946 -0.620535 2.23747e-19)
(0.174661 -0.630944 -2.15913e-19)
(0.174448 -0.641184 1.67176e-21)
(0.174302 -0.651251 0)
(0.174217 -0.661142 1.60955e-21)
(0.174188 -0.670854 0)
(0.174211 -0.680384 -1.99599e-19)
(0.174281 -0.689732 3.88605e-19)
(0.174394 -0.698896 -3.80797e-19)
(0.174546 -0.707876 1.86841e-19)
(0.174734 -0.716672 0)
(0.174955 -0.725284 6.98124e-22)
(0.175204 -0.733713 -1.75978e-19)
(0.17548 -0.741959 3.41911e-19)
(0.175779 -0.750024 -1.69173e-19)
(0.231863 -0.305572 -1.98981e-19)
(0.226836 -0.316105 1.88564e-19)
(0.222126 -0.326901 0)
(0.21773 -0.33795 7.36309e-21)
(0.213644 -0.349237 1.19529e-22)
(0.209861 -0.360739 0)
(0.206371 -0.372432 0)
(0.203164 -0.384288 1.62333e-20)
(0.200227 -0.396281 4.12171e-21)
(0.197549 -0.408381 4.11736e-21)
(0.195117 -0.420561 0)
(0.192917 -0.432795 -2.71481e-19)
(0.190938 -0.445058 2.55611e-19)
(0.189166 -0.457324 2.69127e-19)
(0.187588 -0.469572 -2.53832e-19)
(0.186193 -0.481782 -4.07889e-21)
(0.18497 -0.493933 4.04217e-21)
(0.183906 -0.506009 0)
(0.182991 -0.517993 3.95579e-21)
(0.182215 -0.529871 2.53128e-19)
(0.181568 -0.541629 -2.43645e-19)
(0.181041 -0.553256 -2.4989e-19)
(0.180625 -0.564742 2.39012e-19)
(0.18031 -0.576076 -3.68974e-21)
(0.18009 -0.587253 0)
(0.179958 -0.598263 3.57277e-21)
(0.179906 -0.609103 2.2858e-19)
(0.179928 -0.619765 -2.20801e-19)
(0.180016 -0.630246 2.18782e-19)
(0.180166 -0.640541 -4.26198e-19)
(0.180373 -0.650649 2.07619e-19)
(0.18063 -0.660567 -2.06637e-19)
(0.180932 -0.670293 1.99906e-19)
(0.181277 -0.679826 -7.7033e-22)
(0.181659 -0.689166 8.81177e-25)
(0.182074 -0.698312 7.4062e-22)
(0.182519 -0.707264 0)
(0.182991 -0.716025 -7.10444e-22)
(0.183486 -0.724594 0)
(0.184001 -0.732973 6.90642e-22)
(0.221769 -0.293553 0)
(0.217231 -0.304996 7.27082e-21)
(0.213051 -0.316711 7.71605e-21)
(0.209217 -0.32867 0)
(0.205717 -0.340842 -2.67794e-19)
(0.202535 -0.353196 2.46855e-19)
(0.199657 -0.365701 -8.29592e-21)
(0.197067 -0.378324 -4.21902e-21)
(0.194748 -0.391034 -2.76815e-19)
(0.192685 -0.403804 -1.21133e-20)
(0.190863 -0.416605 2.69195e-19)
(0.189266 -0.42941 0)
(0.18788 -0.442197 -2.73379e-19)
(0.186691 -0.454943 -8.97821e-21)
(0.185685 -0.467627 5.33662e-19)
(0.184849 -0.480231 -2.58489e-19)
(0.184171 -0.492738 -2.63321e-19)
(0.18364 -0.505132 5.09602e-19)
(0.183245 -0.5174 -2.54527e-19)
(0.182974 -0.52953 -1.95366e-21)
(0.182819 -0.541511 -1.93045e-21)
(0.182771 -0.553333 -2.42219e-19)
(0.182819 -0.564988 -4.77025e-21)
(0.182955 -0.576467 2.32035e-19)
(0.183173 -0.587765 -1.81489e-21)
(0.183464 -0.598875 0)
(0.183822 -0.609794 -1.75491e-21)
(0.18424 -0.620517 0)
(0.184713 -0.631041 0)
(0.185235 -0.641366 0)
(0.1858 -0.651488 1.63171e-21)
(0.186405 -0.661407 0)
(0.187044 -0.671122 -7.8403e-22)
(0.187713 -0.680633 9.22337e-25)
(0.188409 -0.689941 -7.54134e-22)
(0.189127 -0.699047 1.91517e-19)
(0.189865 -0.707951 -1.84173e-19)
(0.19062 -0.716655 1.84821e-19)
(0.20217 -0.309179 2.71083e-19)
(0.19909 -0.322106 -2.49981e-19)
(0.196344 -0.335192 8.49996e-21)
(0.193912 -0.348402 0)
(0.191776 -0.361703 -2.81907e-19)
(0.189918 -0.375063 2.69703e-19)
(0.188318 -0.388452 -2.40877e-23)
(0.186959 -0.401845 4.2977e-21)
(0.185825 -0.415214 0)
(0.184899 -0.428537 -4.26306e-21)
(0.184167 -0.441792 -4.24872e-21)
(0.183614 -0.454961 -2.73391e-19)
(0.183226 -0.468025 2.63119e-19)
(0.18299 -0.480969 4.13131e-21)
(0.182894 -0.493778 5.9273e-24)
(0.182927 -0.506438 2.65211e-19)
(0.183075 -0.518938 -2.51978e-19)
(0.183332 -0.531269 -1.96456e-21)
(0.183687 -0.543421 -1.93589e-21)
(0.18413 -0.555388 0)
(0.184653 -0.567162 2.42637e-19)
(0.185249 -0.578738 -2.34609e-19)
(0.18591 -0.590111 2.34689e-19)
(0.186629 -0.601278 -2.28867e-19)
(0.1874 -0.612235 -2.26594e-19)
(0.188217 -0.622981 2.21099e-19)
(0.189075 -0.633514 -1.69417e-21)
(0.189968 -0.643832 -2.12664e-19)
(0.190892 -0.653936 2.06014e-19)
(0.191842 -0.663824 -2.05355e-19)
(0.192814 -0.673499 2.01379e-19)
(0.193804 -0.68296 1.97275e-19)
(0.19481 -0.69221 -1.92765e-19)
(0.195827 -0.701249 -7.48791e-22)
(0.195833 -0.277864 0)
(0.19294 -0.291427 -1.0284e-22)
(0.190408 -0.305152 2.82948e-19)
(0.188213 -0.319001 -2.78901e-19)
(0.186335 -0.332939 0)
(0.184751 -0.346933 -8.76461e-21)
(0.183441 -0.360951 4.36732e-21)
(0.182385 -0.374966 2.87624e-19)
(0.181564 -0.38895 1.04776e-20)
(0.180961 -0.402881 -2.71031e-19)
(0.180559 -0.416734 -2.78946e-19)
(0.180342 -0.430492 2.72646e-19)
(0.180295 -0.444134 2.78579e-19)
(0.180403 -0.457645 -2.64234e-19)
(0.180653 -0.471011 2.77038e-19)
(0.181034 -0.484218 -2.67415e-19)
(0.181532 -0.497254 -4.1119e-21)
(0.182139 -0.510111 2.62789e-19)
(0.182842 -0.522778 -5.071e-19)
(0.183632 -0.535248 -6.85276e-21)
(0.184501 -0.547513 2.4704e-19)
(0.18544 -0.55957 -2.47701e-19)
(0.186441 -0.571411 2.41622e-19)
(0.187496 -0.583034 -2.3786e-19)
(0.1886 -0.594437 4.67806e-19)
(0.189746 -0.605615 -2.28274e-19)
(0.190927 -0.616568 0)
(0.192139 -0.627296 -1.73276e-21)
(0.193377 -0.637796 1.7011e-21)
(0.194636 -0.648071 -3.34041e-21)
(0.195911 -0.65812 -2.11755e-19)
(0.1972 -0.667944 2.06177e-19)
(0.198497 -0.677545 1.57548e-21)
(0.199801 -0.686925 0)
(0.186928 -0.247298 -2.57148e-19)
(0.184315 -0.261541 2.74438e-19)
(0.182085 -0.275945 -5.66228e-19)
(0.180212 -0.290468 2.83532e-19)
(0.17867 -0.305074 -8.88021e-21)
(0.177436 -0.31973 -2.851e-19)
(0.176487 -0.334402 2.72982e-19)
(0.175802 -0.349062 2.90114e-19)
(0.175359 -0.363682 -2.87576e-19)
(0.17514 -0.378239 2.88418e-19)
(0.175127 -0.392709 -2.86383e-19)
(0.175302 -0.407072 0)
(0.175649 -0.42131 -4.4174e-21)
(0.176153 -0.435406 2.803e-19)
(0.1768 -0.449344 -5.5667e-19)
(0.177576 -0.463113 2.72236e-19)
(0.17847 -0.476699 5.37761e-24)
(0.179469 -0.490093 0)
(0.180562 -0.503284 -8.31597e-21)
(0.181739 -0.516267 2.67268e-19)
(0.182992 -0.529032 -5.18141e-19)
(0.18431 -0.541576 2.53133e-19)
(0.185685 -0.553893 0)
(0.187111 -0.565979 0)
(0.188579 -0.577831 -2.45647e-19)
(0.190084 -0.589447 4.77762e-19)
(0.191618 -0.600826 -2.34167e-19)
(0.193178 -0.611967 2.33256e-19)
(0.194756 -0.622868 -2.26215e-19)
(0.19635 -0.633532 -1.40129e-24)
(0.197954 -0.643958 -2.20692e-19)
(0.199564 -0.654148 2.12448e-19)
(0.201177 -0.664103 -8.24559e-22)
(0.202789 -0.673825 -2.1116e-19)
(0.175755 -0.217878 8.36932e-21)
(0.173521 -0.232827 0)
(0.171684 -0.24793 8.8997e-21)
(0.170218 -0.263144 0)
(0.169093 -0.278433 3.07943e-19)
(0.168285 -0.293762 -2.95582e-19)
(0.167768 -0.309097 0)
(0.16752 -0.324411 9.22508e-21)
(0.167519 -0.339674 3.06731e-19)
(0.167744 -0.354862 -2.86101e-19)
(0.168176 -0.369953 -4.60409e-21)
(0.168796 -0.384926 4.58602e-21)
(0.169588 -0.399763 3.01287e-19)
(0.170536 -0.414445 -5.80868e-19)
(0.171625 -0.428959 2.84405e-19)
(0.172841 -0.443291 2.98061e-19)
(0.17417 -0.457428 -2.75136e-19)
(0.175601 -0.471361 -2.8292e-19)
(0.177122 -0.48508 5.6198e-19)
(0.178722 -0.498576 -2.70629e-19)
(0.180392 -0.511844 0)
(0.182122 -0.524877 0)
(0.183904 -0.53767 0)
(0.185729 -0.55022 0)
(0.187591 -0.562524 1.99009e-21)
(0.189482 -0.574579 0)
(0.191397 -0.586385 -1.92761e-21)
(0.193329 -0.597939 2.46115e-19)
(0.195273 -0.609243 -2.36971e-19)
(0.197225 -0.620296 -1.10073e-24)
(0.199179 -0.631099 -2.31469e-19)
(0.201132 -0.641654 2.2469e-19)
(0.203081 -0.651962 1.73298e-21)
(0.205021 -0.662026 0)
(0.160932 -0.205606 2.71069e-19)
(0.159576 -0.221407 -2.97272e-19)
(0.158596 -0.23731 5.86427e-19)
(0.157964 -0.253277 -2.80074e-19)
(0.157651 -0.269274 9.42927e-21)
(0.157631 -0.285267 0)
(0.157881 -0.301227 -6.06147e-23)
(0.158378 -0.317126 -9.50408e-21)
(0.159101 -0.33294 3.10757e-19)
(0.160028 -0.348646 -2.90071e-19)
(0.161142 -0.364222 -1.77138e-23)
(0.162424 -0.379651 4.72157e-21)
(0.163859 -0.394915 0)
(0.165431 -0.409999 3.03001e-19)
(0.167125 -0.424889 -2.97695e-19)
(0.168927 -0.439573 2.97643e-19)
(0.170825 -0.45404 -5.82751e-19)
(0.172807 -0.468281 2.80812e-19)
(0.174862 -0.482288 4.45278e-21)
(0.176981 -0.496053 0)
(0.179152 -0.509572 0)
(0.181368 -0.522838 -2.76865e-19)
(0.18362 -0.535849 2.68543e-19)
(0.185901 -0.548601 -2.08475e-21)
(0.188203 -0.561091 0)
(0.190521 -0.57332 2.02163e-21)
(0.192848 -0.585285 -1.98929e-21)
(0.195179 -0.596986 0)
(0.19751 -0.608425 2.47758e-19)
(0.199834 -0.619602 -4.82106e-19)
(0.20215 -0.630518 2.36387e-19)
(0.204451 -0.641176 2.32828e-19)
(0.206737 -0.651578 -2.29407e-19)
(0.146986 -0.180129 2.87315e-19)
(0.146187 -0.196606 -2.83342e-19)
(0.145764 -0.213175 9.30103e-21)
(0.145688 -0.229798 3.1268e-19)
(0.14593 -0.246441 -2.90795e-19)
(0.146463 -0.26307 -9.6856e-21)
(0.147263 -0.279657 3.10198e-19)
(0.148307 -0.296173 2.24725e-20)
(0.149571 -0.312594 -3.09419e-19)
(0.151037 -0.328896 -1.47727e-20)
(0.152684 -0.34506 -9.8432e-21)
(0.154495 -0.361066 -3.2381e-19)
(0.156452 -0.376897 6.2563e-19)
(0.15854 -0.392537 -6.22266e-19)
(0.160744 -0.407972 3.00383e-19)
(0.163049 -0.423191 -3.10432e-19)
(0.165444 -0.438181 3.00755e-19)
(0.167915 -0.452934 4.70447e-21)
(0.170451 -0.467442 -3.01254e-19)
(0.173043 -0.481696 2.92159e-19)
(0.17568 -0.495691 4.55287e-21)
(0.178352 -0.509423 0)
(0.181053 -0.522886 0)
(0.183774 -0.536079 -2.82455e-19)
(0.186508 -0.548998 2.74242e-19)
(0.189248 -0.561643 2.71997e-19)
(0.191988 -0.574012 -2.66231e-19)
(0.194724 -0.586105 0)
(0.197449 -0.597923 4.05445e-21)
(0.20016 -0.609467 -2.56641e-19)
(0.202852 -0.620739 2.5131e-19)
(0.205521 -0.63174 2.47657e-19)
(0.208165 -0.642473 -2.46054e-19)
(0.132146 -0.156558 2.88468e-19)
(0.131964 -0.17367 0)
(0.132154 -0.190866 -9.62815e-21)
(0.132684 -0.208109 -1.0138e-22)
(0.133528 -0.225362 -9.94645e-21)
(0.134657 -0.242594 3.38263e-19)
(0.136047 -0.259775 -6.46661e-19)
(0.137674 -0.276879 3.28807e-19)
(0.139516 -0.293878 0)
(0.141552 -0.310752 3.33071e-19)
(0.143763 -0.327479 -3.06573e-19)
(0.146131 -0.344039 0)
(0.148638 -0.360415 3.35735e-19)
(0.151268 -0.376591 -6.4918e-19)
(0.154006 -0.392554 6.50781e-19)
(0.156837 -0.40829 7.73577e-21)
(0.15975 -0.423788 -6.36825e-19)
(0.162731 -0.439038 3.12344e-19)
(0.165768 -0.454032 -7.34417e-24)
(0.168852 -0.468762 3.12663e-19)
(0.171972 -0.483222 -3.13093e-19)
(0.175119 -0.497407 0)
(0.178285 -0.511313 0)
(0.181461 -0.524936 -2.99821e-19)
(0.184641 -0.538274 -4.34696e-21)
(0.187818 -0.551325 2.87294e-19)
(0.190985 -0.564089 0)
(0.194138 -0.576565 0)
(0.19727 -0.588754 -2.14204e-21)
(0.200379 -0.600658 -2.10718e-21)
(0.203459 -0.612276 -4.14389e-21)
(0.206506 -0.623613 2.64111e-19)
(0.209518 -0.63467 -5.21608e-19)
(0.117352 -0.152649 2.95064e-19)
(0.118192 -0.170422 3.24196e-19)
(0.119365 -0.188235 -3.21709e-19)
(0.120841 -0.206054 -3.25101e-19)
(0.122596 -0.223846 3.12697e-19)
(0.124602 -0.241583 0)
(0.126838 -0.259235 -1.05753e-20)
(0.129281 -0.276779 3.4579e-19)
(0.131909 -0.294191 2.29063e-20)
(0.134704 -0.31145 -6.92769e-19)
(0.137648 -0.328536 3.30394e-19)
(0.140722 -0.345431 3.40228e-19)
(0.143911 -0.362119 -3.34902e-19)
(0.147198 -0.378586 0)
(0.150571 -0.394817 -3.40505e-19)
(0.154016 -0.410803 6.68517e-19)
(0.15752 -0.426532 -3.33379e-19)
(0.161071 -0.441995 -5.14565e-21)
(0.164659 -0.457185 0)
(0.168274 -0.472095 5.04651e-21)
(0.171907 -0.486719 0)
(0.175548 -0.501054 0)
(0.17919 -0.515095 -3.11806e-19)
(0.182825 -0.52884 3.07857e-19)
(0.186447 -0.542287 0)
(0.19005 -0.555435 0)
(0.193628 -0.568285 -2.3037e-21)
(0.197176 -0.580835 -2.94516e-19)
(0.200689 -0.593088 2.84143e-19)
(0.204163 -0.605045 4.18035e-25)
(0.207596 -0.616708 -2.80104e-19)
(0.210982 -0.62808 2.76326e-19)
(0.102762 -0.133512 3.2509e-19)
(0.104273 -0.151801 -3.02391e-19)
(0.106106 -0.170131 3.30515e-19)
(0.108233 -0.188464 -3.4943e-19)
(0.110628 -0.206769 -3.40725e-19)
(0.113266 -0.225016 3.28528e-19)
(0.116124 -0.243176 0)
(0.119179 -0.261224 0)
(0.122411 -0.279138 -3.61717e-19)
(0.125801 -0.296894 3.50308e-19)
(0.129329 -0.314473 1.67178e-20)
(0.132979 -0.331857 5.56518e-21)
(0.136734 -0.349028 5.5574e-21)
(0.140579 -0.365972 -3.5991e-19)
(0.144499 -0.382676 -8.7462e-21)
(0.148482 -0.399126 3.47788e-19)
(0.152515 -0.415313 3.53495e-19)
(0.156585 -0.431226 -3.43468e-19)
(0.160683 -0.446858 0)
(0.164798 -0.462201 0)
(0.16892 -0.47725 -3.40554e-19)
(0.173041 -0.491999 3.36269e-19)
(0.177153 -0.506444 3.32584e-19)
(0.181248 -0.520584 -6.54285e-19)
(0.185319 -0.534415 3.19305e-19)
(0.189361 -0.547936 -3.19425e-19)
(0.193368 -0.561148 6.27905e-19)
(0.197334 -0.574049 -3.0377e-19)
(0.201255 -0.586642 0)
(0.205127 -0.598927 3.02608e-19)
(0.208946 -0.610907 -5.87374e-19)
(0.212709 -0.622585 2.89095e-19)
(0.0885608 -0.11615 -3.10421e-19)
(0.0907453 -0.134895 -1.04766e-20)
(0.0932417 -0.153686 1.0753e-20)
(0.0960229 -0.172483 3.59673e-19)
(0.0990625 -0.191253 -3.36086e-19)
(0.102335 -0.209963 2.25963e-20)
(0.105817 -0.228586 -3.73711e-19)
(0.109487 -0.247097 -1.47704e-20)
(0.113324 -0.26547 3.53221e-19)
(0.117307 -0.283686 1.16427e-20)
(0.12142 -0.301722 -1.17311e-20)
(0.125644 -0.31956 -5.87126e-21)
(0.129963 -0.337183 -5.86805e-21)
(0.134363 -0.354576 -5.83767e-21)
(0.138829 -0.371724 0)
(0.143348 -0.388615 0)
(0.147907 -0.405237 -5.76212e-21)
(0.152495 -0.421579 0)
(0.1571 -0.437634 -3.73186e-19)
(0.161713 -0.453393 -1.24219e-20)
(0.166323 -0.46885 7.09132e-19)
(0.170923 -0.483999 -7.12932e-19)
(0.175503 -0.498835 3.47004e-19)
(0.180056 -0.513357 -5.39853e-21)
(0.184576 -0.52756 -2.66599e-21)
(0.189056 -0.541443 0)
(0.193491 -0.555007 3.34579e-19)
(0.197874 -0.568249 -6.5528e-19)
(0.202202 -0.581172 3.20833e-19)
(0.206471 -0.593777 0)
(0.210676 -0.606066 3.16888e-19)
(0.214815 -0.618041 -3.07943e-19)
(0.0750694 -0.100388 -3.45338e-19)
(0.0779113 -0.119529 6.78399e-19)
(0.0810565 -0.138731 -3.43786e-19)
(0.0844815 -0.157946 1.14222e-20)
(0.0881595 -0.177136 -3.92477e-19)
(0.0920623 -0.196266 -1.80922e-20)
(0.0961639 -0.215309 7.7717e-19)
(0.10044 -0.234239 -3.90997e-19)
(0.10487 -0.253031 3.97516e-19)
(0.109436 -0.271664 -3.97936e-19)
(0.11412 -0.290118 0)
(0.118906 -0.308375 0)
(0.123777 -0.326417 -6.16446e-21)
(0.12872 -0.344228 4.06299e-19)
(0.13372 -0.361793 -3.8885e-19)
(0.138764 -0.379099 -6.12249e-21)
(0.143839 -0.396133 -3.94888e-19)
(0.148935 -0.412884 3.84111e-19)
(0.154039 -0.429343 -3.77398e-19)
(0.159142 -0.445501 3.84931e-19)
(0.164233 -0.46135 3.88614e-19)
(0.169304 -0.476885 6.415e-21)
(0.174347 -0.492101 -3.68783e-19)
(0.179353 -0.506992 5.74891e-21)
(0.184317 -0.521557 -3.63172e-19)
(0.18923 -0.535793 3.53507e-19)
(0.194088 -0.549699 -2.76473e-21)
(0.198885 -0.563274 0)
(0.203617 -0.57652 -3.4625e-19)
(0.208278 -0.589436 -3.91343e-21)
(0.212866 -0.602026 -6.28856e-21)
(0.217377 -0.61429 3.31312e-19)
(0.0625369 -0.0860085 3.68356e-19)
(0.0660002 -0.105457 -3.3434e-19)
(0.0697659 -0.125033 1.15222e-20)
(0.0738123 -0.144668 1.18462e-20)
(0.0781045 -0.164275 1.21009e-20)
(0.0826091 -0.183784 3.92742e-19)
(0.0873039 -0.203186 -8.15456e-19)
(0.0921679 -0.222477 4.10843e-19)
(0.0971762 -0.241634 1.28635e-20)
(0.102307 -0.260636 0)
(0.107543 -0.279465 -4.35285e-19)
(0.11287 -0.298102 -1.29246e-20)
(0.118274 -0.316528 4.17842e-19)
(0.123741 -0.334726 0)
(0.129258 -0.352681 -4.22138e-19)
(0.134811 -0.370378 4.17198e-19)
(0.140388 -0.387803 1.29406e-20)
(0.145977 -0.404945 4.16473e-19)
(0.151568 -0.421792 1.89009e-21)
(0.15715 -0.438335 -3.96476e-19)
(0.162712 -0.454564 0)
(0.168246 -0.470474 -4.03384e-19)
(0.173743 -0.486058 -6.47185e-21)
(0.179195 -0.501312 3.95006e-19)
(0.184595 -0.51623 -3.84332e-19)
(0.189935 -0.530811 3.83183e-19)
(0.195211 -0.545053 2.95507e-21)
(0.200416 -0.558954 0)
(0.205545 -0.572516 0)
(0.210595 -0.585738 2.8292e-21)
(0.21556 -0.598623 2.78611e-21)
(0.220439 -0.611172 0)
(0.0510618 -0.072838 3.83414e-19)
(0.0551138 -0.0924705 -3.49772e-19)
(0.0594616 -0.112298 3.90717e-19)
(0.0640887 -0.132262 -4.03767e-19)
(0.0689668 -0.152276 -1.14891e-22)
(0.0740614 -0.172242 0)
(0.0793346 -0.192078 0)
(0.0847541 -0.211731 4.38412e-19)
(0.0902975 -0.231192 -8.78875e-19)
(0.0959544 -0.25049 4.28108e-19)
(0.101714 -0.269632 1.37429e-20)
(0.107557 -0.288598 0)
(0.113472 -0.307365 -4.48337e-19)
(0.119443 -0.325915 -1.21869e-20)
(0.125458 -0.34423 8.84401e-19)
(0.131504 -0.362293 -4.42975e-19)
(0.137568 -0.380087 4.45198e-19)
(0.143639 -0.3976 -4.26781e-19)
(0.149705 -0.414819 0)
(0.155755 -0.431733 -1.3542e-20)
(0.161779 -0.448331 6.7147e-21)
(0.167767 -0.464605 4.30401e-19)
(0.17371 -0.480549 -4.12745e-19)
(0.1796 -0.496155 -6.54668e-21)
(0.185429 -0.51142 -1.29412e-20)
(0.19119 -0.52634 -4.12253e-19)
(0.196877 -0.540911 4.01613e-19)
(0.202484 -0.555134 4.01641e-19)
(0.208005 -0.569006 7.88716e-21)
(0.213437 -0.582529 -3.88742e-19)
(0.218775 -0.595704 -3.90258e-19)
(0.224016 -0.608533 -4.06197e-21)
(0.0407476 -0.060923 -2.17179e-19)
(0.0453562 -0.0806036 1.76068e-19)
(0.0502497 -0.100527 2.11284e-19)
(0.055416 -0.12066 -2.0587e-19)
(0.0608314 -0.140924 4.35482e-19)
(0.066464 -0.161222 -4.35365e-19)
(0.0722779 -0.181452 0)
(0.0782379 -0.201529 1.42444e-20)
(0.0843119 -0.221394 4.69116e-19)
(0.0904757 -0.241023 -4.53673e-19)
(0.0967218 -0.260447 0)
(0.103048 -0.279699 1.45619e-20)
(0.109442 -0.298771 1.46207e-20)
(0.115892 -0.317641 0)
(0.122383 -0.336288 0)
(0.128901 -0.354691 7.35362e-21)
(0.135434 -0.372834 -1.46526e-20)
(0.14197 -0.390701 4.65132e-19)
(0.148495 -0.408275 -4.53195e-19)
(0.154999 -0.425546 1.79577e-23)
(0.161472 -0.4425 -1.43628e-20)
(0.167901 -0.459128 0)
(0.17428 -0.475422 4.48912e-19)
(0.180597 -0.491374 -4.4444e-19)
(0.186846 -0.506978 6.93363e-21)
(0.193019 -0.52223 -3.42222e-21)
(0.199108 -0.537126 0)
(0.205109 -0.551664 -3.33893e-21)
(0.211015 -0.565843 -4.86598e-24)
(0.216821 -0.579663 -4.15241e-19)
(0.222525 -0.593124 4.07614e-19)
(0.22812 -0.606228 0)
(0.0317196 -0.0500791 -2.40562e-20)
(0.0368506 -0.0697516 2.11495e-19)
(0.0422471 -0.0896608 -2.19737e-19)
(0.0479105 -0.109836 2.43397e-19)
(0.0538234 -0.130226 -2.09544e-19)
(0.0599563 -0.150732 -2.4228e-19)
(0.0662719 -0.171243 2.34919e-19)
(0.0727313 -0.191653 -2.79103e-19)
(0.0792993 -0.211881 2.70852e-19)
(0.0859474 -0.231872 1.53403e-20)
(0.0926576 -0.251614 1.53988e-20)
(0.0994308 -0.271146 -3.10187e-20)
(0.10627 -0.290503 -1.56144e-20)
(0.113165 -0.309673 -5.07237e-19)
(0.120101 -0.328634 1.00983e-18)
(0.127064 -0.347363 -5.02671e-19)
(0.134041 -0.365841 -4.98484e-19)
(0.141017 -0.384047 -1.10098e-20)
(0.147981 -0.401967 4.84355e-19)
(0.15492 -0.419584 7.74235e-21)
(0.161822 -0.436886 7.69518e-21)
(0.168677 -0.453862 0)
(0.175474 -0.4705 -7.5621e-21)
(0.182205 -0.486792 0)
(0.18886 -0.502731 -7.4208e-21)
(0.195431 -0.518311 4.84665e-19)
(0.201912 -0.533529 -9.29654e-19)
(0.208295 -0.54838 4.56095e-19)
(0.214575 -0.562863 4.5229e-19)
(0.220746 -0.576977 -4.47595e-19)
(0.226804 -0.590722 3.44165e-21)
(0.232746 -0.604099 -3.43256e-21)
(0.0240595 -0.0400806 2.19005e-19)
(0.0296781 -0.0597381 0)
(0.0355332 -0.0795829 -2.30499e-19)