/*--------------------------------*- C++ -*----------------------------------*\
  =========                 |
  \\      /  F ield         | OpenFOAM: The Open Source CFD Toolbox
   \\    /   O peration     | Website:  https://openfoam.org
    \\  /    A nd           | Version:  10
     \\/     M anipulation  |
\*---------------------------------------------------------------------------*/
FoamFile
{
    format      ascii;
    class       volScalarField;
    location    "59000";
    object      yPlus;
}
// * * * * * * * * * * * * * * * * * * * * * * * * * * * * * * * * * * * * * //

dimensions      [0 0 0 0 0 0 0];

internalField   uniform 0;

boundaryField
{
    right
    {
        type            cyclic;
    }
    left
    {
        type            cyclic;
    }
    outerWall
    {
        type            calculated;
        value           nonuniform List<scalar> 0();
    }
    stirrerWall
    {
        type            calculated;
        value           nonuniform List<scalar> 
98
(
2.63027
2.46927
2.31918
2.18317
2.06297
1.95918
1.87178
1.8006
1.74551
1.70665
1.68577
1.72957
1.81324
1.92576
2.07387
2.2665
2.55241
3.09118
4.95077
11.7763
18.5859
11.3703
11.4698
11.751
12.3157
12.5159
12.5269
12.4581
12.3158
12.1293
11.9069
11.6445
11.5715
11.7273
11.598
11.216
11.1005
11.0124
10.9362
10.8738
10.826
10.7924
10.7722
10.7645
10.7788
11.6956
11.0358
10.9036
10.8986
10.9167
10.9435
11.5725
11.6511
11.667
11.6912
11.7218
10.9993
11.5462
11.5961
11.5259
20.2425
20.4964
20.7517
21.0113
21.276
21.5459
21.8215
22.1033
22.3918
22.6872
22.9904
23.3021
23.6226
23.9518
24.2915
24.644
25.0097
25.3877
25.7801
26.1937
26.6345
27.0864
27.5543
28.0269
28.5522
29.1242
29.7473
30.4262
31.1418
31.8561
32.6154
33.4794
34.4951
35.6918
37.0446
38.4245
39.9874
42.0246
)
;
    }
    top
    {
        type            empty;
    }
    bottom
    {
        type            empty;
    }
    procBoundary0to1
    {
        type            processor;
        value           uniform 0;
    }
    procBoundary0to3
    {
        type            processor;
        value           uniform 0;
    }
}


// ************************************************************************* //
