/*--------------------------------*- C++ -*----------------------------------*\
  =========                 |
  \\      /  F ield         | OpenFOAM: The Open Source CFD Toolbox
   \\    /   O peration     | Website:  https://openfoam.org
    \\  /    A nd           | Version:  10
     \\/     M anipulation  |
\*---------------------------------------------------------------------------*/
FoamFile
{
    format      ascii;
    class       volScalarField;
    location    "78000";
    object      k;
}
// * * * * * * * * * * * * * * * * * * * * * * * * * * * * * * * * * * * * * //

dimensions      [0 2 -2 0 0 0 0];

internalField   nonuniform List<scalar> 
17922
(
0.0750237
0.0753332
0.0756514
0.0759788
0.0763155
0.0766619
0.0770184
0.0773853
0.0777629
0.0781518
0.0785523
0.0789649
0.07939
0.0798281
0.0802798
0.0807457
0.0812262
0.0817221
0.082234
0.0827625
0.0833085
0.0838726
0.0844558
0.0850588
0.0856827
0.0863284
0.0869968
0.0876893
0.0884006
0.0891189
0.0898379
0.0905575
0.0912777
0.0919985
0.09272
0.0934423
0.0941655
0.0948898
0.0956154
0.0963426
0.0970717
0.0978033
0.0985375
0.099275
0.100016
0.100762
0.101512
0.102267
0.103028
0.103794
0.104568
0.105347
0.106134
0.106927
0.107727
0.108535
0.109349
0.11017
0.110998
0.111831
0.112671
0.113516
0.114366
0.115219
0.116076
0.116934
0.117793
0.118652
0.119509
0.120364
0.121213
0.122056
0.122892
0.123719
0.124535
0.12534
0.126131
0.126909
0.127672
0.128419
0.12915
0.129865
0.130563
0.131245
0.131911
0.132562
0.133197
0.133818
0.134426
0.135021
0.135605
0.136179
0.136743
0.0750243
0.0753338
0.0756521
0.0759795
0.0763162
0.0766626
0.0770191
0.077386
0.0777637
0.0781526
0.0785531
0.0789656
0.0793908
0.0798289
0.0802806
0.0807465
0.081227
0.0817229
0.0822348
0.0827633
0.0833093
0.0838734
0.0844566
0.0850596
0.0856835
0.0863291
0.0869976
0.08769
0.0884013
0.0891196
0.0898385
0.0905581
0.0912783
0.0919991
0.0927206
0.0934429
0.0941661
0.0948904
0.095616
0.0963433
0.0970726
0.0978042
0.0985386
0.0992762
0.100018
0.100763
0.101514
0.102269
0.10303
0.103797
0.10457
0.10535
0.106137
0.106931
0.107731
0.108539
0.109353
0.110175
0.111003
0.111837
0.112676
0.113521
0.114371
0.115224
0.11608
0.116938
0.117797
0.118655
0.119511
0.120364
0.121213
0.122055
0.122889
0.123714
0.124528
0.125331
0.12612
0.126896
0.127656
0.128401
0.12913
0.129842
0.130539
0.131218
0.131882
0.13253
0.133163
0.133782
0.134387
0.13498
0.135562
0.136133
0.136695
0.075025
0.0753345
0.0756528
0.0759802
0.0763169
0.0766633
0.0770198
0.0773867
0.0777644
0.0781533
0.0785538
0.0789664
0.0793916
0.0798297
0.0802814
0.0807473
0.0812279
0.0817237
0.0822356
0.0827642
0.0833101
0.0838743
0.0844574
0.0850605
0.0856843
0.0863299
0.0869984
0.0876908
0.0884021
0.0891203
0.0898392
0.0905588
0.0912789
0.0919997
0.0927212
0.0934435
0.0941667
0.094891
0.0956167
0.0963441
0.0970734
0.0978051
0.0985397
0.0992775
0.100019
0.100765
0.101515
0.102271
0.103033
0.1038
0.104573
0.105354
0.106141
0.106934
0.107735
0.108543
0.109358
0.11018
0.111008
0.111842
0.112682
0.113526
0.114376
0.115229
0.116085
0.116942
0.1178
0.118658
0.119513
0.120365
0.121212
0.122053
0.122885
0.123709
0.124521
0.125322
0.126109
0.126882
0.12764
0.128383
0.129109
0.12982
0.130513
0.131191
0.131852
0.132498
0.133128
0.133745
0.134348
0.134939
0.135518
0.136087
0.136646
0.0750257
0.0753352
0.0756535
0.0759809
0.0763176
0.0766641
0.0770206
0.0773875
0.0777652
0.0781541
0.0785546
0.0789672
0.0793924
0.0798305
0.0802823
0.0807481
0.0812287
0.0817246
0.0822365
0.082765
0.083311
0.0838751
0.0844583
0.0850613
0.0856851
0.0863307
0.0869991
0.0876915
0.0884028
0.089121
0.0898399
0.0905595
0.0912796
0.0920004
0.0927218
0.0934441
0.0941673
0.0948917
0.0956174
0.0963448
0.0970743
0.0978061
0.0985408
0.0992788
0.100021
0.100767
0.101517
0.102273
0.103035
0.103803
0.104576
0.105357
0.106144
0.106938
0.10774
0.108548
0.109363
0.110184
0.111013
0.111847
0.112687
0.113532
0.114381
0.115234
0.116089
0.116946
0.117804
0.118661
0.119515
0.120366
0.121211
0.12205
0.122881
0.123703
0.124513
0.125312
0.126097
0.126868
0.127624
0.128364
0.129088
0.129796
0.130487
0.131162
0.131821
0.132465
0.133093
0.133707
0.134308
0.134896
0.135473
0.136039
0.136596
0.0750264
0.0753359
0.0756542
0.0759816
0.0763184
0.0766648
0.0770214
0.0773883
0.077766
0.0781549
0.0785555
0.0789681
0.0793932
0.0798314
0.0802831
0.080749
0.0812296
0.0817255
0.0822374
0.0827659
0.0833119
0.083876
0.0844591
0.0850621
0.0856859
0.0863315
0.0869999
0.0876923
0.0884036
0.0891218
0.0898407
0.0905601
0.0912803
0.092001
0.0927225
0.0934447
0.094168
0.0948923
0.0956181
0.0963456
0.0970751
0.0978071
0.0985419
0.0992801
0.100022
0.100768
0.101519
0.102276
0.103037
0.103805
0.10458
0.10536
0.106148
0.106942
0.107744
0.108552
0.109368
0.110189
0.111018
0.111852
0.112692
0.113537
0.114386
0.115239
0.116094
0.116951
0.117807
0.118663
0.119517
0.120366
0.12121
0.122048
0.122877
0.123697
0.124505
0.125301
0.126084
0.126853
0.127607
0.128345
0.129066
0.129772
0.130461
0.131133
0.13179
0.132431
0.133057
0.133669
0.134267
0.134853
0.135427
0.135991
0.136545
0.0750271
0.0753366
0.075655
0.0759824
0.0763191
0.0766656
0.0770221
0.0773891
0.0777668
0.0781557
0.0785563
0.0789689
0.0793941
0.0798323
0.080284
0.0807499
0.0812305
0.0817264
0.0822382
0.0827668
0.0833127
0.0838769
0.08446
0.085063
0.0856868
0.0863324
0.0870008
0.0876931
0.0884043
0.0891225
0.0898414
0.0905608
0.0912809
0.0920017
0.0927231
0.0934454
0.0941686
0.094893
0.0956188
0.0963464
0.097076
0.0978081
0.0985431
0.0992814
0.100024
0.10077
0.101521
0.102278
0.10304
0.103808
0.104583
0.105364
0.106152
0.106946
0.107748
0.108557
0.109372
0.110195
0.111023
0.111858
0.112698
0.113542
0.114391
0.115244
0.116098
0.116954
0.117811
0.118665
0.119518
0.120366
0.121209
0.122045
0.122872
0.12369
0.124497
0.125291
0.126071
0.126838
0.127589
0.128325
0.129044
0.129747
0.130433
0.131104
0.131758
0.132396
0.13302
0.133629
0.134225
0.134809
0.13538
0.135941
0.136492
0.0750278
0.0753374
0.0756557
0.0759831
0.0763199
0.0766664
0.0770229
0.0773899
0.0777676
0.0781566
0.0785571
0.0789698
0.0793949
0.0798331
0.0802849
0.0807508
0.0812314
0.0817273
0.0822392
0.0827677
0.0833137
0.0838778
0.0844609
0.0850639
0.0856877
0.0863332
0.0870016
0.0876939
0.0884051
0.0891233
0.0898421
0.0905616
0.0912816
0.0920023
0.0927237
0.093446
0.0941693
0.0948937
0.0956196
0.0963472
0.0970769
0.0978091
0.0985443
0.0992828
0.100025
0.100772
0.101523
0.10228
0.103043
0.103811
0.104586
0.105367
0.106155
0.106951
0.107753
0.108562
0.109377
0.1102
0.111028
0.111863
0.112703
0.113548
0.114397
0.115249
0.116103
0.116958
0.117814
0.118668
0.119519
0.120366
0.121207
0.122042
0.122867
0.123683
0.124487
0.125279
0.126058
0.126822
0.127571
0.128304
0.129021
0.129721
0.130405
0.131073
0.131725
0.132361
0.132982
0.133589
0.134183
0.134763
0.135332
0.135889
0.136437
0.0750286
0.0753382
0.0756565
0.0759839
0.0763207
0.0766672
0.0770238
0.0773907
0.0777685
0.0781575
0.078558
0.0789707
0.0793958
0.0798341
0.0802858
0.0807517
0.0812323
0.0817282
0.0822401
0.0827686
0.0833146
0.0838787
0.0844618
0.0850648
0.0856886
0.0863341
0.0870024
0.0876947
0.0884059
0.0891241
0.0898429
0.0905623
0.0912823
0.092003
0.0927244
0.0934467
0.0941699
0.0948944
0.0956203
0.096348
0.0970778
0.0978102
0.0985455
0.0992842
0.100027
0.100774
0.101526
0.102283
0.103045
0.103814
0.104589
0.105371
0.106159
0.106955
0.107757
0.108566
0.109382
0.110205
0.111034
0.111868
0.112708
0.113553
0.114402
0.115253
0.116107
0.116962
0.117817
0.11867
0.11952
0.120365
0.121205
0.122038
0.122862
0.123676
0.124478
0.125268
0.126044
0.126806
0.127552
0.128283
0.128997
0.129695
0.130377
0.131042
0.131691
0.132325
0.132944
0.133548
0.134139
0.134716
0.135282
0.135837
0.136381
0.0750294
0.075339
0.0756573
0.0759847
0.0763215
0.0766681
0.0770246
0.0773916
0.0777694
0.0781583
0.0785589
0.0789716
0.0793968
0.079835
0.0802868
0.0807527
0.0812333
0.0817292
0.082241
0.0827696
0.0833155
0.0838796
0.0844627
0.0850657
0.0856895
0.086335
0.0870033
0.0876956
0.0884067
0.0891249
0.0898436
0.090563
0.091283
0.0920037
0.0927251
0.0934473
0.0941706
0.0948951
0.0956211
0.0963488
0.0970788
0.0978112
0.0985467
0.0992856
0.100028
0.100776
0.101528
0.102285
0.103048
0.103817
0.104593
0.105375
0.106163
0.106959
0.107762
0.108571
0.109387
0.11021
0.111039
0.111874
0.112714
0.113558
0.114407
0.115258
0.116112
0.116966
0.11782
0.118672
0.11952
0.120365
0.121203
0.122034
0.122856
0.123668
0.124468
0.125256
0.126029
0.126789
0.127533
0.128261
0.128973
0.129668
0.130347
0.13101
0.131657
0.132288
0.132904
0.133506
0.134094
0.134668
0.135231
0.135782
0.136322
0.0750302
0.0753398
0.0756581
0.0759856
0.0763224
0.0766689
0.0770255
0.0773925
0.0777703
0.0781592
0.0785598
0.0789725
0.0793977
0.0798359
0.0802877
0.0807536
0.0812342
0.0817301
0.082242
0.0827706
0.0833165
0.0838806
0.0844637
0.0850666
0.0856904
0.0863359
0.0870042
0.0876964
0.0884076
0.0891257
0.0898444
0.0905637
0.0912837
0.0920043
0.0927257
0.093448
0.0941712
0.0948958
0.0956218
0.0963497
0.0970797
0.0978123
0.098548
0.0992871
0.10003
0.100778
0.10153
0.102288
0.103051
0.10382
0.104596
0.105378
0.106167
0.106963
0.107766
0.108576
0.109392
0.110215
0.111045
0.111879
0.112719
0.113564
0.114412
0.115263
0.116116
0.116969
0.117822
0.118673
0.119521
0.120364
0.121201
0.12203
0.12285
0.123659
0.124458
0.125243
0.126014
0.126771
0.127513
0.128238
0.128948
0.129641
0.130317
0.130978
0.131622
0.13225
0.132864
0.133462
0.134047
0.134619
0.135178
0.135726
0.136262
0.075031
0.0753406
0.075659
0.0759864
0.0763233
0.0766698
0.0770264
0.0773934
0.0777712
0.0781602
0.0785608
0.0789735
0.0793987
0.0798369
0.0802887
0.0807546
0.0812352
0.0817311
0.082243
0.0827716
0.0833175
0.0838816
0.0844647
0.0850676
0.0856913
0.0863368
0.0870051
0.0876973
0.0884084
0.0891265
0.0898452
0.0905645
0.0912844
0.092005
0.0927264
0.0934486
0.0941719
0.0948965
0.0956226
0.0963505
0.0970807
0.0978134
0.0985492
0.0992885
0.100032
0.10078
0.101532
0.10229
0.103054
0.103823
0.104599
0.105382
0.106171
0.106968
0.107771
0.108581
0.109398
0.110221
0.11105
0.111885
0.112725
0.113569
0.114417
0.115268
0.11612
0.116973
0.117825
0.118675
0.119521
0.120363
0.121198
0.122025
0.122843
0.123651
0.124447
0.12523
0.125999
0.126753
0.127492
0.128215
0.128922
0.129613
0.130287
0.130944
0.131586
0.132211
0.132822
0.133418
0.133999
0.134568
0.135124
0.135667
0.136199
0.0750318
0.0753415
0.0756599
0.0759873
0.0763242
0.0766707
0.0770273
0.0773943
0.0777721
0.0781611
0.0785617
0.0789744
0.0793996
0.0798379
0.0802897
0.0807556
0.0812362
0.0817322
0.082244
0.0827726
0.0833185
0.0838826
0.0844657
0.0850686
0.0856923
0.0863377
0.087006
0.0876982
0.0884092
0.0891273
0.0898459
0.0905652
0.0912851
0.0920057
0.0927271
0.0934493
0.0941726
0.0948972
0.0956233
0.0963514
0.0970816
0.0978146
0.0985505
0.09929
0.100034
0.100782
0.101534
0.102293
0.103057
0.103827
0.104603
0.105386
0.106176
0.106972
0.107776
0.108586
0.109403
0.110226
0.111056
0.111891
0.112731
0.113575
0.114422
0.115273
0.116124
0.116976
0.117827
0.118676
0.119521
0.120361
0.121195
0.12202
0.122836
0.123642
0.124435
0.125216
0.125983
0.126735
0.127471
0.128192
0.128896
0.129584
0.130255
0.13091
0.131549
0.132171
0.132779
0.133372
0.13395
0.134515
0.135067
0.135607
0.136134
0.0750327
0.0753424
0.0756608
0.0759882
0.0763251
0.0766716
0.0770282
0.0773953
0.0777731
0.0781621
0.0785627
0.0789754
0.0794007
0.0798389
0.0802907
0.0807567
0.0812373
0.0817332
0.0822451
0.0827736
0.0833195
0.0838836
0.0844667
0.0850696
0.0856932
0.0863387
0.0870069
0.0876991
0.0884101
0.0891281
0.0898467
0.090566
0.0912858
0.0920064
0.0927277
0.09345
0.0941733
0.0948979
0.0956241
0.0963522
0.0970826
0.0978157
0.0985519
0.0992916
0.100035
0.100784
0.101537
0.102295
0.10306
0.10383
0.104607
0.10539
0.10618
0.106977
0.107781
0.108591
0.109408
0.110232
0.111061
0.111896
0.112736
0.11358
0.114428
0.115277
0.116128
0.116979
0.11783
0.118677
0.119521
0.120359
0.121191
0.122015
0.122829
0.123632
0.124424
0.125202
0.125966
0.126716
0.127449
0.128167
0.128869
0.129554
0.130223
0.130875
0.13151
0.13213
0.132735
0.133324
0.133899
0.134461
0.135008
0.135543
0.136066
0.0750336
0.0753433
0.0756617
0.0759892
0.076326
0.0766726
0.0770292
0.0773962
0.0777741
0.0781631
0.0785637
0.0789765
0.0794017
0.07984
0.0802918
0.0807577
0.0812383
0.0817343
0.0822461
0.0827747
0.0833206
0.0838847
0.0844677
0.0850706
0.0856942
0.0863396
0.0870078
0.0877
0.088411
0.0891289
0.0898475
0.0905667
0.0912866
0.0920071
0.0927284
0.0934506
0.094174
0.0948986
0.0956249
0.0963531
0.0970836
0.0978169
0.0985532
0.0992932
0.100037
0.100786
0.101539
0.102298
0.103063
0.103833
0.10461
0.105394
0.106184
0.106982
0.107786
0.108597
0.109414
0.110238
0.111067
0.111902
0.112742
0.113586
0.114433
0.115282
0.116132
0.116983
0.117832
0.118678
0.11952
0.120357
0.121187
0.122009
0.122821
0.123622
0.124411
0.125187
0.125949
0.126696
0.127427
0.128142
0.128841
0.129524
0.130189
0.130838
0.131471
0.132088
0.132689
0.133275
0.133847
0.134404
0.134947
0.135478
0.135995
0.0750346
0.0753442
0.0756626
0.0759901
0.076327
0.0766736
0.0770302
0.0773973
0.0777751
0.0781641
0.0785648
0.0789775
0.0794028
0.079841
0.0802929
0.0807588
0.0812394
0.0817353
0.0822472
0.0827758
0.0833217
0.0838857
0.0844687
0.0850716
0.0856952
0.0863406
0.0870088
0.0877009
0.0884118
0.0891298
0.0898483
0.0905675
0.0912873
0.0920078
0.0927291
0.0934513
0.0941747
0.0948994
0.0956257
0.096354
0.0970847
0.0978181
0.0985546
0.0992948
0.100039
0.100788
0.101542
0.102301
0.103066
0.103837
0.104614
0.105398
0.106189
0.106987
0.107791
0.108602
0.10942
0.110243
0.111073
0.111908
0.112748
0.113591
0.114438
0.115287
0.116136
0.116986
0.117834
0.118679
0.11952
0.120355
0.121183
0.122003
0.122813
0.123612
0.124399
0.125172
0.125931
0.126676
0.127404
0.128117
0.128813
0.129492
0.130155
0.130801
0.131431
0.132044
0.132642
0.133224
0.133792
0.134345
0.134884
0.135409
0.135921
0.0750355
0.0753452
0.0756636
0.0759911
0.076328
0.0766746
0.0770312
0.0773983
0.0777761
0.0781652
0.0785658
0.0789786
0.0794038
0.0798421
0.080294
0.0807599
0.0812405
0.0817365
0.0822483
0.0827769
0.0833228
0.0838868
0.0844698
0.0850727
0.0856963
0.0863416
0.0870097
0.0877018
0.0884127
0.0891306
0.0898491
0.0905682
0.091288
0.0920085
0.0927298
0.093452
0.0941754
0.0949001
0.0956265
0.096355
0.0970857
0.0978193
0.098556
0.0992964
0.100041
0.10079
0.101544
0.102304
0.103069
0.10384
0.104618
0.105402
0.106194
0.106991
0.107796
0.108608
0.109425
0.110249
0.111079
0.111914
0.112754
0.113597
0.114443
0.115291
0.11614
0.116989
0.117836
0.118679
0.119519
0.120352
0.121179
0.121997
0.122804
0.123601
0.124385
0.125156
0.125913
0.126655
0.127381
0.12809
0.128783
0.12946
0.13012
0.130763
0.131389
0.131999
0.132593
0.133172
0.133735
0.134283
0.134817
0.135337
0.135843
0.073879
0.0741568
0.0744421
0.0747353
0.0750365
0.0753462
0.0756646
0.0759921
0.076329
0.0766756
0.0770323
0.0773993
0.0777772
0.0781663
0.0785669
0.0789797
0.0794049
0.0798432
0.0802951
0.080761
0.0812417
0.0817376
0.0822495
0.082778
0.0833239
0.0838879
0.0844709
0.0850737
0.0856973
0.0863426
0.0870107
0.0877027
0.0884136
0.0891315
0.0898499
0.090569
0.0912887
0.0920092
0.0927304
0.0934527
0.0941761
0.0949009
0.0956274
0.0963559
0.0970868
0.0978205
0.0985575
0.0992981
0.100043
0.100792
0.101547
0.102307
0.103072
0.103844
0.104622
0.105407
0.106198
0.106997
0.107802
0.108613
0.109431
0.110255
0.111085
0.11192
0.11276
0.113603
0.114448
0.115296
0.116144
0.116992
0.117837
0.11868
0.119518
0.12035
0.121174
0.12199
0.122796
0.12359
0.124372
0.12514
0.125894
0.126633
0.127356
0.128063
0.128753
0.129427
0.130083
0.130723
0.131346
0.131952
0.132542
0.133117
0.133675
0.134219
0.134747
0.135261
0.135761
0.07388
0.0741578
0.0744431
0.0747362
0.0750375
0.0753472
0.0756657
0.0759932
0.0763301
0.0766767
0.0770334
0.0774004
0.0777783
0.0781674
0.0785681
0.0789808
0.0794061
0.0798444
0.0802962
0.0807622
0.0812428
0.0817387
0.0822506
0.0827791
0.083325
0.083889
0.084472
0.0850748
0.0856983
0.0863436
0.0870117
0.0877037
0.0884145
0.0891323
0.0898507
0.0905698
0.0912895
0.0920099
0.0927311
0.0934534
0.0941768
0.0949016
0.0956282
0.0963568
0.0970879
0.0978218
0.098559
0.0992999
0.100045
0.100795
0.101549
0.10231
0.103076
0.103848
0.104626
0.105411
0.106203
0.107002
0.107807
0.108619
0.109437
0.110262
0.111092
0.111926
0.112766
0.113608
0.114454
0.115301
0.116148
0.116994
0.117839
0.11868
0.119517
0.120347
0.121169
0.121983
0.122786
0.123578
0.124358
0.125124
0.125875
0.126611
0.127331
0.128035
0.128722
0.129392
0.130045
0.130682
0.131301
0.131903
0.132489
0.133059
0.133613
0.134151
0.134674
0.135182
0.135675
0.073881
0.0741588
0.0744441
0.0747373
0.0750385
0.0753482
0.0756667
0.0759942
0.0763312
0.0766778
0.0770345
0.0774015
0.0777794
0.0781685
0.0785692
0.078982
0.0794073
0.0798456
0.0802974
0.0807634
0.081244
0.0817399
0.0822518
0.0827803
0.0833262
0.0838902
0.0844731
0.0850759
0.0856994
0.0863447
0.0870127
0.0877046
0.0884154
0.0891332
0.0898515
0.0905705
0.0912902
0.0920106
0.0927318
0.0934541
0.0941775
0.0949024
0.0956291
0.0963578
0.0970891
0.0978232
0.0985606
0.0993017
0.100047
0.100797
0.101552
0.102313
0.103079
0.103852
0.104631
0.105416
0.106208
0.107007
0.107813
0.108625
0.109444
0.110268
0.111098
0.111933
0.112772
0.113614
0.114459
0.115305
0.116152
0.116997
0.117841
0.11868
0.119515
0.120343
0.121164
0.121976
0.122777
0.123566
0.124343
0.125106
0.125855
0.126588
0.127305
0.128006
0.12869
0.129357
0.130006
0.130639
0.131254
0.131852
0.132434
0.132999
0.133548
0.13408
0.134597
0.135098
0.135583
0.0730917
0.0733482
0.0736116
0.073882
0.0741598
0.0744451
0.0747383
0.0750396
0.0753493
0.0756678
0.0759953
0.0763323
0.0766789
0.0770356
0.0774027
0.0777806
0.0781697
0.0785704
0.0789831
0.0794084
0.0798468
0.0802986
0.0807646
0.0812452
0.0817411
0.082253
0.0827815
0.0833274
0.0838913
0.0844743
0.085077
0.0857005
0.0863457
0.0870137
0.0877056
0.0884164
0.089134
0.0898524
0.0905713
0.0912909
0.0920113
0.0927325
0.0934548
0.0941782
0.0949032
0.09563
0.0963589
0.0970902
0.0978245
0.0985622
0.0993036
0.100049
0.1008
0.101555
0.102316
0.103083
0.103856
0.104635
0.105421
0.106214
0.107013
0.107819
0.108631
0.10945
0.110275
0.111105
0.111939
0.112778
0.11362
0.114464
0.11531
0.116156
0.117
0.117842
0.11868
0.119513
0.12034
0.121159
0.121968
0.122767
0.123554
0.124328
0.125088
0.125834
0.126564
0.127278
0.127976
0.128656
0.12932
0.129966
0.130594
0.131205
0.131799
0.132376
0.132936
0.133479
0.134006
0.134516
0.135009
0.135487
0.0730928
0.0733493
0.0736127
0.0738831
0.0741609
0.0744462
0.0747394
0.0750407
0.0753504
0.0756689
0.0759965
0.0763334
0.0766801
0.0770368
0.0774039
0.0777818
0.0781709
0.0785716
0.0789844
0.0794097
0.079848
0.0802999
0.0807658
0.0812465
0.0817424
0.0822542
0.0827827
0.0833286
0.0838925
0.0844754
0.0850782
0.0857016
0.0863468
0.0870147
0.0877066
0.0884173
0.0891349
0.0898532
0.0905721
0.0912917
0.092012
0.0927332
0.0934555
0.094179
0.094904
0.0956309
0.0963599
0.0970915
0.097826
0.0985639
0.0993056
0.100052
0.100802
0.101558
0.102319
0.103087
0.10386
0.10464
0.105426
0.106219
0.107019
0.107825
0.108638
0.109457
0.110281
0.111111
0.111946
0.112784
0.113626
0.11447
0.115315
0.116159
0.117003
0.117844
0.11868
0.119512
0.120336
0.121153
0.12196
0.122756
0.123541
0.124312
0.12507
0.125813
0.12654
0.127251
0.127945
0.128622
0.129281
0.129923
0.130548
0.131155
0.131744
0.132315
0.13287
0.133407
0.133927
0.13443
0.134916
0.135385
0.0730939
0.0733504
0.0736137
0.0738842
0.0741619
0.0744473
0.0747405
0.0750418
0.0753516
0.0756701
0.0759976
0.0763346
0.0766812
0.0770379
0.0774051
0.077783
0.0781721
0.0785728
0.0789856
0.0794109
0.0798492
0.0803011
0.0807671
0.0812477
0.0817436
0.0822555
0.082784
0.0833298
0.0838937
0.0844766
0.0850793
0.0857027
0.0863479
0.0870158
0.0877076
0.0884182
0.0891358
0.089854
0.0905729
0.0912924
0.0920127
0.092734
0.0934562
0.0941798
0.0949049
0.0956319
0.096361
0.0970927
0.0978275
0.0985656
0.0993076
0.100054
0.100805
0.101561
0.102323
0.103091
0.103864
0.104644
0.105431
0.106225
0.107025
0.107831
0.108644
0.109463
0.110288
0.111118
0.111953
0.112791
0.113632
0.114475
0.11532
0.116163
0.117006
0.117845
0.11868
0.11951
0.120332
0.121147
0.121952
0.122746
0.123528
0.124296
0.125051
0.125791
0.126514
0.127222
0.127912
0.128586
0.129241
0.129879
0.130499
0.131101
0.131685
0.132252
0.1328
0.133331
0.133844
0.134339
0.134817
0.135278
0.073095
0.0733515
0.0736148
0.0738852
0.074163
0.0744484
0.0747416
0.0750429
0.0753527
0.0756712
0.0759988
0.0763358
0.0766824
0.0770392
0.0774063
0.0777842
0.0781733
0.0785741
0.0789869
0.0794122
0.0798505
0.0803024
0.0807684
0.081249
0.0817449
0.0822568
0.0827852
0.0833311
0.083895
0.0844778
0.0850805
0.0857039
0.086349
0.0870168
0.0877086
0.0884192
0.0891367
0.0898549
0.0905737
0.0912932
0.0920135
0.0927347
0.093457
0.0941806
0.0949058
0.0956329
0.0963622
0.0970941
0.0978291
0.0985675
0.0993098
0.100056
0.100808
0.101564
0.102327
0.103095
0.103869
0.104649
0.105437
0.106231
0.107031
0.107838
0.108651
0.109471
0.110295
0.111125
0.11196
0.112798
0.113639
0.114481
0.115324
0.116167
0.117008
0.117846
0.11868
0.119508
0.120328
0.121141
0.121943
0.122734
0.123514
0.12428
0.125031
0.125768
0.126488
0.127192
0.127879
0.128548
0.1292
0.129833
0.130448
0.131045
0.131624
0.132184
0.132726
0.13325
0.133756
0.134243
0.134712
0.135164
0.0730961
0.0733526
0.0736159
0.0738864
0.0741641
0.0744495
0.0747427
0.0750441
0.0753539
0.0756724
0.076
0.076337
0.0766837
0.0770404
0.0774076
0.0777855
0.0781746
0.0785754
0.0789882
0.0794135
0.0798519
0.0803037
0.0807697
0.0812503
0.0817462
0.0822581
0.0827865
0.0833323
0.0838962
0.0844791
0.0850817
0.0857051
0.0863501
0.0870179
0.0877096
0.0884202
0.0891376
0.0898557
0.0905745
0.091294
0.0920143
0.0927355
0.0934578
0.0941814
0.0949067
0.0956339
0.0963634
0.0970955
0.0978307
0.0985694
0.099312
0.100059
0.100811
0.101568
0.10233
0.103099
0.103874
0.104655
0.105442
0.106237
0.107037
0.107845
0.108658
0.109478
0.110303
0.111133
0.111967
0.112805
0.113645
0.114487
0.115329
0.116171
0.117011
0.117848
0.11868
0.119506
0.120324
0.121134
0.121934
0.122723
0.123499
0.124262
0.125011
0.125744
0.126461
0.127161
0.127844
0.128509
0.129156
0.129785
0.130395
0.130986
0.131559
0.132113
0.132648
0.133165
0.133663
0.134141
0.134602
0.135043
0.0730972
0.0733537
0.073617
0.0738875
0.0741653
0.0744507
0.0747439
0.0750453
0.0753551
0.0756737
0.0760013
0.0763383
0.0766849
0.0770417
0.0774088
0.0777868
0.0781759
0.0785767
0.0789895
0.0794148
0.0798532
0.0803051
0.0807711
0.0812517
0.0817476
0.0822594
0.0827879
0.0833336
0.0838975
0.0844803
0.0850829
0.0857062
0.0863512
0.087019
0.0877107
0.0884211
0.0891386
0.0898566
0.0905754
0.0912948
0.092015
0.0927362
0.0934586
0.0941823
0.0949077
0.095635
0.0963647
0.097097
0.0978325
0.0985715
0.0993144
0.100062
0.100814
0.101571
0.102335
0.103104
0.103879
0.10466
0.105448
0.106243
0.107044
0.107852
0.108666
0.109486
0.110311
0.111141
0.111975
0.112812
0.113652
0.114493
0.115335
0.116175
0.117014
0.117849
0.118679
0.119503
0.12032
0.121127
0.121925
0.122711
0.123484
0.124244
0.124989
0.125719
0.126432
0.127128
0.127807
0.128468
0.12911
0.129734
0.130339
0.130924
0.131491
0.132038
0.132566
0.133075
0.133564
0.134034
0.134484
0.134914
0.0730984
0.0733548
0.0736182
0.0738886
0.0741664
0.0744518
0.0747451
0.0750465
0.0753563
0.0756749
0.0760025
0.0763395
0.0766862
0.077043
0.0774102
0.0777881
0.0781773
0.0785781
0.0789909
0.0794162
0.0798546
0.0803065
0.0807724
0.0812531
0.081749
0.0822608
0.0827892
0.083335
0.0838988
0.0844816
0.0850842
0.0857074
0.0863524
0.0870201
0.0877117
0.0884221
0.0891395
0.0898575
0.0905762
0.0912956
0.0920159
0.0927371
0.0934595
0.0941832
0.0949087
0.0956362
0.096366
0.0970986
0.0978343
0.0985737
0.099317
0.100065
0.100817
0.101575
0.102339
0.103108
0.103884
0.104666
0.105455
0.10625
0.107051
0.107859
0.108674
0.109493
0.110319
0.111149
0.111982
0.112819
0.113659
0.114499
0.11534
0.11618
0.117017
0.11785
0.118679
0.119501
0.120315
0.12112
0.121915
0.122698
0.123469
0.124225
0.124967
0.125693
0.126402
0.127094
0.127769
0.128425
0.129062
0.12968
0.130279
0.130859
0.131419
0.131959
0.132479
0.132979
0.133459
0.133919
0.134359
0.134779
0.0730995
0.073356
0.0736193
0.0738898
0.0741676
0.074453
0.0747463
0.0750477
0.0753576
0.0756762
0.0760038
0.0763408
0.0766876
0.0770443
0.0774115
0.0777895
0.0781787
0.0785794
0.0789923
0.0794176
0.079856
0.0803079
0.0807738
0.0812545
0.0817504
0.0822622
0.0827906
0.0833363
0.0839002
0.0844829
0.0850854
0.0857087
0.0863536
0.0870213
0.0877128
0.0884232
0.0891405
0.0898584
0.0905771
0.0912965
0.0920167
0.0927379
0.0934604
0.0941842
0.0949098
0.0956375
0.0963675
0.0971003
0.0978363
0.098576
0.0993197
0.100068
0.100821
0.101579
0.102343
0.103113
0.10389
0.104672
0.105461
0.106257
0.107059
0.107867
0.108682
0.109502
0.110327
0.111157
0.111991
0.112827
0.113666
0.114506
0.115346
0.116184
0.11702
0.117852
0.118678
0.119498
0.12031
0.121113
0.121905
0.122685
0.123453
0.124206
0.124944
0.125666
0.126371
0.127059
0.127728
0.128379
0.129011
0.129624
0.130217
0.130789
0.131342
0.131874
0.132386
0.132878
0.133348
0.133798
0.134227
0.134635
0.0731007
0.0733571
0.0736205
0.073891
0.0741688
0.0744542
0.0747475
0.075049
0.0753589
0.0756775
0.0760051
0.0763422
0.0766889
0.0770457
0.0774129
0.0777909
0.0781801
0.0785808
0.0789937
0.0794191
0.0798574
0.0803093
0.0807753
0.0812559
0.0817518
0.0822636
0.082792
0.0833377
0.0839015
0.0844843
0.0850867
0.0857099
0.0863548
0.0870224
0.0877139
0.0884242
0.0891415
0.0898594
0.090578
0.0912974
0.0920176
0.0927388
0.0934613
0.0941853
0.094911
0.0956388
0.0963691
0.0971022
0.0978385
0.0985785
0.0993226
0.100071
0.100825
0.101584
0.102348
0.103119
0.103895
0.104679
0.105468
0.106264
0.107067
0.107876
0.10869
0.109511
0.110336
0.111166
0.111999
0.112835
0.113674
0.114513
0.115351
0.116188
0.117023
0.117853
0.118678
0.119496
0.120305
0.121105
0.121895
0.122672
0.123436
0.124185
0.124919
0.125637
0.126338
0.127021
0.127686
0.128332
0.128958
0.129564
0.13015
0.130716
0.131261
0.131785
0.132288
0.13277
0.133231
0.13367
0.134087
0.134483
0.0731018
0.0733583
0.0736216
0.0738921
0.07417
0.0744555
0.0747488
0.0750503
0.0753602
0.0756788
0.0760065
0.0763435
0.0766903
0.0770471
0.0774143
0.0777923
0.0781815
0.0785823
0.0789951
0.0794205
0.0798589
0.0803108
0.0807768
0.0812574
0.0817533
0.0822651
0.0827934
0.0833391
0.0839029
0.0844856
0.0850881
0.0857112
0.086356
0.0870236
0.087715
0.0884253
0.0891425
0.0898604
0.0905789
0.0912983
0.0920185
0.0927398
0.0934624
0.0941864
0.0949123
0.0956403
0.0963708
0.0971041
0.0978408
0.0985812
0.0993257
0.100075
0.100829
0.101588
0.102353
0.103124
0.103902
0.104685
0.105476
0.106272
0.107075
0.107884
0.108699
0.10952
0.110345
0.111175
0.112008
0.112844
0.113681
0.11452
0.115357
0.116193
0.117026
0.117855
0.118677
0.119493
0.1203
0.121097
0.121884
0.122658
0.123418
0.124164
0.124894
0.125608
0.126304
0.126982
0.127641
0.128281
0.128901
0.129501
0.13008
0.130638
0.131175
0.131691
0.132184
0.132656
0.133106
0.133534
0.133939
0.134322
0.073103
0.0733595
0.0736228
0.0738933
0.0741712
0.0744567
0.0747501
0.0750516
0.0753615
0.0756802
0.0760079
0.0763449
0.0766917
0.0770485
0.0774157
0.0777937
0.078183
0.0785838
0.0789966
0.079422
0.0798604
0.0803123
0.0807783
0.0812589
0.0817548
0.0822666
0.0827949
0.0833406
0.0839044
0.084487
0.0850894
0.0857125
0.0863573
0.0870248
0.0877162
0.0884264
0.0891435
0.0898614
0.0905799
0.0912993
0.0920195
0.0927408
0.0934635
0.0941877
0.0949137
0.0956419
0.0963726
0.0971063
0.0978433
0.0985841
0.0993291
0.100079
0.100833
0.101593
0.102359
0.103131
0.103908
0.104693
0.105483
0.106281
0.107084
0.107893
0.108709
0.109529
0.110355
0.111184
0.112017
0.112853
0.11369
0.114527
0.115364
0.116198
0.11703
0.117856
0.118677
0.11949
0.120295
0.121089
0.121872
0.122643
0.1234
0.124141
0.124867
0.125576
0.126268
0.12694
0.127594
0.128228
0.128841
0.129434
0.130006
0.130556
0.131084
0.13159
0.132074
0.132536
0.132974
0.13339
0.133782
0.134152
0.0731042
0.0733606
0.073624
0.0738946
0.0741725
0.074458
0.0747514
0.0750529
0.0753628
0.0756815
0.0760092
0.0763463
0.0766931
0.07705
0.0774172
0.0777952
0.0781845
0.0785853
0.0789982
0.0794235
0.0798619
0.0803138
0.0807798
0.0812604
0.0817563
0.0822681
0.0827964
0.0833421
0.0839058
0.0844884
0.0850908
0.0857139
0.0863586
0.0870261
0.0877174
0.0884275
0.0891446
0.0898624
0.090581
0.0913003
0.0920206
0.092742
0.0934647
0.094189
0.0949152
0.0956436
0.0963746
0.0971086
0.097846
0.0985872
0.0993327
0.100083
0.100838
0.101598
0.102365
0.103137
0.103916
0.1047
0.105492
0.106289
0.107093
0.107903
0.108719
0.10954
0.110365
0.111195
0.112027
0.112862
0.113699
0.114535
0.11537
0.116204
0.117033
0.117858
0.118677
0.119487
0.120289
0.121081
0.121861
0.122628
0.12338
0.124118
0.124839
0.125543
0.126229
0.126897
0.127544
0.128171
0.128778
0.129363
0.129927
0.130468
0.130987
0.131484
0.131957
0.132408
0.132835
0.133238
0.133617
0.133972
0.0731054
0.0733618
0.0736252
0.0738958
0.0741737
0.0744593
0.0747527
0.0750542
0.0753642
0.0756829
0.0760107
0.0763478
0.0766946
0.0770514
0.0774187
0.0777967
0.078186
0.0785868
0.0789997
0.0794251
0.0798635
0.0803154
0.0807814
0.081262
0.0817579
0.0822696
0.082798
0.0833436
0.0839073
0.0844899
0.0850922
0.0857153
0.0863599
0.0870273
0.0877186
0.0884287
0.0891458
0.0898636
0.0905821
0.0913014
0.0920217
0.0927432
0.093466
0.0941905
0.0949168
0.0956455
0.0963768
0.0971112
0.097849
0.0985906
0.0993366
0.100087
0.100843
0.101604
0.102371
0.103144
0.103923
0.104709
0.105501
0.106299
0.107103
0.107913
0.108729
0.10955
0.110376
0.111205
0.112038
0.112872
0.113708
0.114543
0.115378
0.116209
0.117037
0.11786
0.118676
0.119485
0.120284
0.121072
0.121848
0.122611
0.12336
0.124093
0.12481
0.125509
0.126189
0.12685
0.127491
0.128112
0.128711
0.129288
0.129843
0.130376
0.130885
0.131371
0.131834
0.132272
0.132687
0.133077
0.133442
0.133783
0.0731065
0.073363
0.0736265
0.073897
0.074175
0.0744605
0.074754
0.0750556
0.0753656
0.0756843
0.0760121
0.0763492
0.0766961
0.0770529
0.0774202
0.0777983
0.0781875
0.0785884
0.0790013
0.0794267
0.0798651
0.080317
0.080783
0.0812636
0.0817595
0.0822712
0.0827996
0.0833452
0.0839088
0.0844914
0.0850937
0.0857167
0.0863613
0.0870287
0.0877199
0.08843
0.089147
0.0898647
0.0905832
0.0913026
0.092023
0.0927445