/*--------------------------------*- C++ -*----------------------------------*\
  =========                 |
  \\      /  F ield         | OpenFOAM: The Open Source CFD Toolbox
   \\    /   O peration     | Website:  https://openfoam.org
    \\  /    A nd           | Version:  10
     \\/     M anipulation  |
\*---------------------------------------------------------------------------*/
FoamFile
{
    format      ascii;
    class       volScalarField;
    location    "42000";
    object      k;
}
// * * * * * * * * * * * * * * * * * * * * * * * * * * * * * * * * * * * * * //

dimensions      [0 2 -2 0 0 0 0];

internalField   nonuniform List<scalar> 
17981
(
0.0386399
0.0397635
0.0410044
0.0423583
0.0438185
0.0453762
0.0470208
0.0487405
0.0505228
0.0523547
0.0542232
0.0561161
0.0580215
0.0599285
0.0618274
0.0637093
0.0655667
0.0673929
0.0691824
0.0709307
0.0726339
0.0742892
0.0758945
0.0774481
0.0789491
0.080397
0.0817918
0.0831337
0.0844234
0.0856617
0.0868498
0.087989
0.0890809
0.090127
0.0911282
0.0920852
0.0929992
0.0938719
0.0947049
0.0954997
0.096258
0.0969813
0.0976711
0.0983289
0.0989562
0.0995544
0.100125
0.100669
0.0382842
0.0394674
0.0407758
0.042205
0.0437476
0.0453941
0.0471329
0.0489512
0.0508352
0.0527708
0.054744
0.0567412
0.0587499
0.0607582
0.0627558
0.0647333
0.0666825
0.0685966
0.0704698
0.0722973
0.0740753
0.0758008
0.0774718
0.0790866
0.0806444
0.0821448
0.0835879
0.0849742
0.0863043
0.0875794
0.0888007
0.0899698
0.0910884
0.0921582
0.0931802
0.0941552
0.0950848
0.0959708
0.0968148
0.0976187
0.0983841
0.0991129
0.0998065
0.100467
0.101095
0.101693
0.102262
0.102804
0.0379931
0.0392474
0.0406352
0.0421514
0.043788
0.0455346
0.0473785
0.0493054
0.0513003
0.0533478
0.0554327
0.0575405
0.0596575
0.0617712
0.0638705
0.0659457
0.0679881
0.0699906
0.0719472
0.073853
0.0757043
0.0774982
0.0792324
0.0809056
0.0825171
0.0840665
0.0855543
0.0869809
0.0883474
0.089655
0.0909052
0.0920997
0.0932405
0.0943294
0.0953674
0.0963556
0.097296
0.0981903
0.0990406
0.0998487
0.100617
0.101346
0.102039
0.102697
0.103321
0.103915
0.104478
0.105013
0.043947
0.0458057
0.0477657
0.0498114
0.0519263
0.0540935
0.0562967
0.0585203
0.0607498
0.0629718
0.0651748
0.0673484
0.0694839
0.0715739
0.0736124
0.0755944
0.0775162
0.0793749
0.0811686
0.0828961
0.0845568
0.0861507
0.0876781
0.0891401
0.0905377
0.0918725
0.0931462
0.0943607
0.0955183
0.0966206
0.097669
0.0986648
0.0996103
0.100507
0.101359
0.102165
0.10293
0.103655
0.104342
0.104992
0.105609
0.106192
0.106745
0.107268
0.0442339
0.0462168
0.0483041
0.0504784
0.0527217
0.0550158
0.0573429
0.0596865
0.0620312
0.0643631
0.06667
0.0689415
0.0711685
0.0733436
0.0754607
0.0775151
0.079503
0.0814219
0.08327
0.0850462
0.0867503
0.0883826
0.0899436
0.0914346
0.0928571
0.0942127
0.0955035
0.0967317
0.0978997
0.0990091
0.100061
0.101058
0.102003
0.102897
0.103742
0.104542
0.105298
0.106012
0.106687
0.107325
0.107927
0.108495
0.109032
0.109538
0.0446583
0.0467777
0.0490029
0.051315
0.0536941
0.0561206
0.0585757
0.0610418
0.0635027
0.0659442
0.0683536
0.0707204
0.0730354
0.0752913
0.0774822
0.0796034
0.0816514
0.0836241
0.0855198
0.0873378
0.0890782
0.0907415
0.0923288
0.0938415
0.0952813
0.0966504
0.0979511
0.099186
0.100357
0.101466
0.102515
0.103507
0.104443
0.105327
0.10616
0.106946
0.107687
0.108385
0.109042
0.10966
0.110242
0.11079
0.111305
0.111789
0.0474978
0.0498705
0.0523277
0.0548482
0.0574108
0.0599957
0.0625844
0.0651603
0.0677087
0.070217
0.0726743
0.0750718
0.0774023
0.07966
0.0818407
0.0839412
0.0859596
0.0878947
0.0897463
0.0915146
0.0932005
0.0948056
0.0963316
0.0977807
0.0991553
0.100458
0.101692
0.102858
0.103959
0.104997
0.105975
0.106896
0.107762
0.108577
0.109342
0.110061
0.110735
0.111368
0.111961
0.112517
0.113038
0.113526
0.113982
0.0535171
0.0561818
0.0588814
0.0615951
0.064304
0.0669909
0.0696412
0.0722422
0.0747831
0.0772555
0.0796523
0.0819684
0.0841996
0.0863435
0.0883983
0.0903634
0.092239
0.0940257
0.095725
0.0973387
0.098869
0.100318
0.10169
0.102987
0.10421
0.105362
0.106447
0.107465
0.108422
0.10932
0.110161
0.110949
0.111686
0.112376
0.11302
0.113622
0.114183
0.114707
0.115195
0.11565
0.116073
0.0576819
0.0605162
0.063355
0.0661788
0.0689704
0.071715
0.0744004
0.077016
0.0795538
0.0820072
0.0843713
0.0866428
0.0888196
0.0909004
0.0928851
0.0947743
0.0965693
0.0982718
0.0998843
0.101409
0.10285
0.104209
0.10549
0.106693
0.107823
0.108882
0.109873
0.1108
0.111667
0.112475
0.113229
0.113931
0.114585
0.115192
0.115757
0.11628
0.116766
0.117216
0.117632
0.118017
0.0652436
0.0681745
0.0710619
0.0738914
0.0766508
0.0793305
0.0819226
0.0844213
0.0868223
0.0891228
0.0913211
0.0934167
0.0954101
0.0973022
0.0990949
0.100791
0.102392
0.103902
0.105325
0.106662
0.107916
0.109091
0.110189
0.111214
0.112169
0.113059
0.113887
0.114655
0.115368
0.116029
0.11664
0.117204
0.117725
0.118205
0.118647
0.119053
0.119425
0.119767
0.0789441
0.0816758
0.0843103
0.0868422
0.0892679
0.0915854
0.0937936
0.0958926
0.0978834
0.0997676
0.101548
0.103226
0.104807
0.106293
0.107688
0.108993
0.110212
0.111349
0.112407
0.11339
0.114303
0.115148
0.11593
0.116652
0.117317
0.11793
0.118492
0.119008
0.11948
0.119912
0.120305
0.120662
0.120987
0.121281
0.0812261
0.0839964
0.0866597
0.0892118
0.0916495
0.0939716
0.0961778
0.0982686
0.100246
0.102112
0.103869
0.105521
0.107072
0.108525
0.109882
0.111146
0.112322
0.113413
0.114424
0.115359
0.116221
0.117016
0.117746
0.118416
0.119028
0.119588
0.120097
0.12056
0.120979
0.121357
0.121698
0.122003
0.122276
0.122519
0.0834321
0.086227
0.0889057
0.0914647
0.0939019
0.0962166
0.0984093
0.100481
0.102435
0.104272
0.105998
0.107615
0.109128
0.110538
0.111849
0.113065
0.11419
0.11523
0.116188
0.117068
0.117876
0.118614
0.119288
0.119901
0.120457
0.120959
0.121412
0.121818
0.122181
0.122504
0.122789
0.123041
0.12326
0.12345
0.0854938
0.088299
0.0909798
0.0935331
0.0959579
0.098254
0.100423
0.102466
0.104386
0.106188
0.107874
0.109449
0.110915
0.112276
0.113535
0.114697
0.115767
0.11675
0.117651
0.118473
0.119221
0.119901
0.120515
0.121069
0.121565
0.122008
0.122402
0.12275
0.123055
0.123321
0.123551
0.123746
0.123911
0.124047
0.0901423
0.092813
0.0953496
0.0977517
0.10002
0.102156
0.104163
0.106043
0.107802
0.109444
0.11097
0.112383
0.113689
0.114891
0.115996
0.117008
0.117931
0.118771
0.119533
0.120221
0.12084
0.121393
0.121886
0.122323
0.122706
0.123041
0.12333
0.123578
0.123787
0.12396
0.124101
0.124211
0.124295
0.0916898
0.0943404
0.0968513
0.0992225
0.101455
0.103553
0.105517
0.107354
0.109066
0.110657
0.112129
0.113487
0.114735
0.115879
0.116925
0.117876
0.11874
0.119519
0.12022
0.120848
0.121406
0.121899
0.122332
0.12271
0.123035
0.123312
0.123545
0.123736
0.12389
0.124009
0.124097
0.124155
0.124188
0.0928784
0.0955022
0.0979817
0.100318
0.102512
0.104567
0.106487
0.108277
0.10994
0.111477
0.112894
0.114195
0.115385
0.116471
0.117458
0.118351
0.119155
0.119876
0.120518
0.121087
0.121587
0.122023
0.122399
0.12272
0.12299
0.123213
0.123392
0.123531
0.123633
0.123701
0.123739
0.123749
0.123734
0.0962453
0.0986929
0.100994
0.10315
0.105165
0.107043
0.108787
0.1104
0.111884
0.113247
0.114492
0.115627
0.116657
0.117587
0.118424
0.119172
0.119836
0.120424
0.120938
0.121384
0.121767
0.122091
0.12236
0.122579
0.122752
0.122882
0.122973
0.123028
0.123051
0.123044
0.12301
0.122953
0.0965129
0.0989377
0.101216
0.103347
0.105331
0.107172
0.108872
0.110435
0.11187
0.113182
0.114375
0.115457
0.116434
0.117312
0.118096
0.118792
0.119406
0.119943
0.120408
0.120806
0.121141
0.121419
0.121642
0.121817
0.121946
0.122033
0.122082
0.122097
0.12208
0.122034
0.121963
0.121869
0.0962907
0.0986835
0.100933
0.103039
0.105001
0.10682
0.108495
0.11003
0.111429
0.112698
0.113845
0.114876
0.115803
0.116631
0.117368
0.118019
0.118588
0.119081
0.119504
0.119861
0.120157
0.120396
0.120582
0.12072
0.120813
0.120866
0.120881
0.120863
0.120814
0.120738
0.120636
0.120513
0.0956208
0.0979739
0.100189
0.102263
0.104196
0.105988
0.107637
0.109144
0.110514
0.111755
0.112872
0.113873
0.114764
0.115554
0.11625
0.116861
0.117393
0.117852
0.118241
0.118567
0.118833
0.119043
0.119202
0.119313
0.119381
0.119408
0.119399
0.119357
0.119285
0.119186
0.119063
0.118918
0.0945291
0.0968346
0.0990099
0.101051
0.102956
0.104723
0.106349
0.107833
0.10918
0.110396
0.111488
0.112464
0.113331
0.114096
0.114768
0.115354
0.115861
0.116294
0.116661
0.116966
0.117212
0.117404
0.117546
0.117641
0.117693
0.117705
0.117681
0.117625
0.117539
0.117426
0.117289
0.117132
0.0930583
0.0953086
0.0974395
0.0994459
0.101323
0.103069
0.104678
0.106145
0.107476
0.108676
0.109752
0.110712
0.111564
0.112315
0.112974
0.113546
0.11404
0.114462
0.114818
0.115113
0.11535
0.115534
0.115669
0.115757
0.115803
0.11581
0.115781
0.115719
0.115627
0.115509
0.115367
0.115204
0.0912568
0.0934443
0.0955255
0.0974945
0.099345
0.101071
0.102665
0.104123
0.105447
0.106641
0.107712
0.108668
0.109516
0.110264
0.110919
0.11149
0.111983
0.112405
0.112761
0.113057
0.113297
0.113484
0.113622
0.113714
0.113763
0.113773
0.113747
0.113688
0.113599
0.113483
0.113343
0.113182
0.0891769
0.09129
0.0933133
0.0952402
0.0970614
0.0987682
0.100354
0.10181
0.103136
0.104334
0.105411
0.106373
0.107228
0.107984
0.108648
0.109229
0.109732
0.110165
0.110534
0.110842
0.111095
0.111295
0.111446
0.111551
0.111612
0.111634
0.11162
0.111572
0.111493
0.111387
0.111257
0.111104
0.0868694
0.0888981
0.0908519
0.0927275
0.094514
0.0962014
0.097781
0.0992422
0.100578
0.101791
0.102884
0.103863
0.104736
0.105511
0.106195
0.106797
0.107322
0.107778
0.108169
0.108501
0.108777
0.109001
0.109174
0.109301
0.109384
0.109427
0.109432
0.109403
0.109342
0.109252
0.109138
0.109
0.0843591
0.0863127
0.0881905
0.090004
0.0917482
0.0934126
0.0949852
0.0964541
0.0978083
0.0990439
0.100163
0.10117
0.102072
0.102877
0.103591
0.104224
0.104782
0.10527
0.105695
0.106061
0.106372
0.106628
0.106834
0.106992
0.107105
0.107176
0.107208
0.107205
0.107169
0.107103
0.10701
0.106893
0.0816573
0.0835527
0.0853673
0.087115
0.0888085
0.0904425
0.0920041
0.0934804
0.0948567
0.0961223
0.0972761
0.0983206
0.0992615
0.100106
0.100862
0.101536
0.102136
0.102668
0.103137
0.103547
0.103901
0.1042
0.104447
0.104645
0.104796
0.104903
0.10497
0.105
0.104994
0.104958
0.104893
0.104803
0.078797
0.0806359
0.0824016
0.0840974
0.0857371
0.0873328
0.0888769
0.090355
0.0917519
0.0930526
0.0942485
0.095339
0.0963281
0.0972218
0.0980276
0.098753
0.0994051
0.0999903
0.100514
0.100978
0.101384
0.101734
0.102031
0.102276
0.102474
0.102625
0.102734
0.102803
0.102835
0.102834
0.102802
0.102743
0.0775925
0.0793112
0.080968
0.0825664
0.0841205
0.0856394
0.0871132
0.0885256
0.0898605
0.0911032
0.0922467
0.0932919
0.0942435
0.0951082
0.0958934
0.0966065
0.0972541
0.0978405
0.098367
0.0988346
0.0992449
0.0995997
0.0999012
0.100152
0.100354
0.100512
0.100627
0.100703
0.100743
0.100749
0.100726
0.0744592
0.0761286
0.0777469
0.0793146
0.0808365
0.082326
0.0837877
0.085209
0.0865726
0.0878617
0.0890628
0.0901706
0.0911873
0.0921185
0.0929715
0.093754
0.0944725
0.0951304
0.0957277
0.0962649
0.0967432
0.0971639
0.097529
0.0978406
0.0981013
0.0983138
0.0984811
0.0986062
0.0986924
0.0987428
0.0987606
0.0712676
0.072885
0.0744627
0.0760009
0.0774994
0.0789649
0.0804092
0.0818318
0.0832172
0.0845471
0.0858055
0.0869804
0.088068
0.0890722
0.0899998
0.090859
0.0916563
0.0923931
0.0930688
0.0936834
0.0942372
0.0947314
0.0951672
0.0955467
0.0958722
0.0961462
0.0963716
0.0965515
0.096689
0.0967876
0.0968505
0.0680479
0.0696102
0.0711441
0.0726501
0.0741279
0.0755762
0.0770034
0.0784207
0.0798206
0.0811849
0.0824948
0.0837362
0.084899
0.0859815
0.0869894
0.0879316
0.088814
0.0896366
0.0903978
0.0910968
0.0917334
0.0923079
0.0928215
0.0932756
0.0936722
0.0940137
0.0943029
0.0945428
0.0947366
0.0948878
0.0949999
0.0692881
0.0707414
0.0721772
0.0735936
0.0749998
0.0764056
0.0777969
0.0791527
0.080455
0.081692
0.0828566
0.0839495
0.0849795
0.0859526
0.0868668
0.0877197
0.0885096
0.0892356
0.0898973
0.0904951
0.0910301
0.091504
0.0919188
0.0922772
0.0925821
0.0928369
0.093045
0.09321
0.0659386
0.0673615
0.0687793
0.07019
0.0715928
0.072996
0.0744028
0.0757967
0.0771551
0.0784608
0.0797057
0.0808867
0.0820085
0.0830763
0.0840871
0.0850372
0.085924
0.0867454
0.0875004
0.0881887
0.0888107
0.0893676
0.0898613
0.0902941
0.090669
0.0909891
0.091258
0.0914795
0.0626243
0.06401
0.0654033
0.0668024
0.0682045
0.0696096
0.071024
0.0724437
0.0738497
0.0752209
0.0765413
0.0778069
0.0790216
0.0801875
0.0812988
0.0823509
0.0833396
0.0842621
0.0851162
0.0859008
0.0866155
0.0872612
0.087839
0.0883513
0.0888006
0.0891903
0.0895239
0.0898053
0.0593673
0.0607073
0.062068
0.0634477
0.0648437
0.0662522
0.0676735
0.0691106
0.0705533
0.0719805
0.0733733
0.0747212
0.0760251
0.0772879
0.0785023
0.0796599
0.0807551
0.0817836
0.0827421
0.0836284
0.0844414
0.0851811
0.0858484
0.0864449
0.0869733
0.0874366
0.0878385
0.088183
0.0561863
0.0574715
0.0587899
0.0601407
0.0615215
0.0629289
0.0643577
0.0658075
0.0672769
0.0687506
0.0702078
0.0716338
0.0730261
0.0743834
0.0756981
0.0769626
0.0781679
0.0793068
0.0803745
0.0813677
0.0822843
0.0831233
0.0838849
0.0845705
0.0851822
0.0857231
0.0861968
0.0866076
0.0530988
0.0543199
0.0555858
0.0568967
0.0582513
0.0596468
0.0610785
0.0625403
0.0640289
0.0655381
0.0670503
0.0685485
0.0700251
0.0714756
0.0728906
0.0742597
0.0755754
0.0768282
0.0780094
0.0791143
0.0801393
0.0810825
0.0819434
0.0827226
0.083422
0.0840444
0.0845933
0.0850733
0.0501235
0.0512706
0.0524731
0.0537323
0.0550481
0.0564189
0.0578408
0.0593084
0.0608143
0.0623507
0.0639068
0.0654686
0.0670248
0.068565
0.0700776
0.071552
0.0729769
0.0743438
0.0756422
0.0768629
0.0780011
0.0790534
0.0800183
0.0808956
0.0816869
0.0823945
0.0830222
0.0835743
0.0472744
0.0483392
0.0494681
0.0506639
0.0519281
0.0532602
0.0546579
0.0561167
0.0576298
0.0591887
0.0607827
0.0624
0.0640274
0.0656517
0.0672592
0.0688365
0.0703711
0.0718516
0.0732675
0.0746081
0.0758638
0.0770298
0.0781033
0.0790834
0.0799708
0.0807677
0.0814775
0.0821047
0.0445628
0.0455392
0.0465861
0.0477082
0.0489087
0.050189
0.0515485
0.0529841
0.0544904
0.0560598
0.057682
0.0593448
0.0610345
0.0627361
0.0644337
0.0661117
0.0677547
0.0693491
0.070883
0.0723443
0.0737216
0.0750059
0.0761928
0.0772803
0.0782682
0.0791582
0.0799537
0.0806593
0.0420009
0.0428835
0.0438411
0.0448801
0.0460059
0.0472217
0.0485291
0.049927
0.0514117
0.052977
0.0546136
0.0563095
0.0580505
0.0598203
0.0616015
0.0633759
0.0651256
0.0668339
0.0684856
0.0700687
0.0715698
0.0729768
0.0742818
0.0754812
0.0765741
0.0775615
0.0784464
0.0792334
0.039595
0.0403809
0.0412439
0.0421923
0.0432335
0.044373
0.0456146
0.0469599
0.0484073
0.0499525
0.0515878
0.053302
0.0550811
0.0569081
0.058764
0.0606287
0.0624815
0.0643025
0.0660733
0.0677779
0.0694045
0.0709378
0.0723655
0.0736817
0.0748842
0.0759732
0.0769514
0.0778232
0.0373473
0.0380363
0.0388019
0.0396543
0.0406028
0.0416555
0.0428187
0.0440966
0.0454904
0.0469985
0.0486153
0.0503312
0.0521331
0.0540039
0.0559237
0.0578704
0.0598209
0.0617521
0.0636418
0.0654705
0.067222
0.0688834
0.0704387
0.0718768
0.0731938
0.0743891
0.0754646
0.0764247
0.0352585
0.0358524
0.03652
0.0372732
0.0381232
0.0390804
0.0401537
0.0413502
0.0426745
0.0441279
0.0457078
0.0474072
0.0492144
0.0511133
0.0530837
0.0551019
0.0571427
0.0591795
0.0611867
0.0631405
0.0650203
0.0668106
0.0684966
0.0700618
0.0714985
0.0728049
0.0739821
0.0750343
0.0333273
0.033829
0.0344001
0.0350531
0.035801
0.0366561
0.0376301
0.0387329
0.0399726
0.0413539
0.0428781
0.0445413
0.0463347
0.0482438
0.0502489
0.0523258
0.054447
0.0565832
0.0587047
0.0607834
0.0627941
0.0647162
0.0665344
0.068232
0.069794
0.0712166
0.0725003
0.0736488
0.0315465
0.0319609
0.0324393
0.0329941
0.0336391
0.0343885
0.0352563
0.0362553
0.0373969
0.0386899
0.0401396
0.0417465
0.0435053
0.0454045
0.0474261
0.0495461
0.0517356
0.0539625
0.0561934
0.0583955
0.0605385
0.0625964
0.0645505
0.0663827
0.0680758
0.0696205
0.0710158
0.072265
0.0299083
0.0302405
0.0306318
0.0310928
0.0316371
0.0322802
0.033038
0.0339259
0.0349585
0.0361488
0.0375064
0.0390367
0.0407393
0.0426069
0.0446243
0.046769
0.0490118
0.0513184
0.0536517
0.055974
0.0582496
0.0604467
0.0625403
0.0645112
0.0663403
0.0680131
0.0695256
0.0708803
0.028405
0.0286603
0.0289704
0.0293434
0.0297918
0.0303309
0.030978
0.0317508
0.0326667
0.0337423
0.034992
0.0364266
0.0380513
0.0398641
0.0418545
0.0440029
0.046281
0.0486533
0.0510794
0.0535168
0.0559237
0.058262
0.0604998
0.062615
0.064585
0.0663916
0.0680272
0.0694924
0.0270303
0.0272118
0.0274459
0.0277373
0.0280963
0.0285367
0.0290758
0.0297329
0.0305278
0.0314804
0.0326093
0.0339309
0.0354566
0.0371912
0.0391301
0.0412586
0.043551
0.0459718
0.0484783
0.0510234
0.053559
0.0560399
0.0584268
0.0606902
0.0628059
0.0647521
0.0665175
0.0680991
0.0257785
0.025888
0.0260487
0.0262645
0.0265413
0.0268904
0.0273274
0.0278718
0.0285453
0.0293702
0.0303692
0.0315635
0.0329712
0.0346045
0.0364665
0.0385492
0.0408317
0.0432805
0.0458517
0.048494
0.0511532
0.0537764
0.0563159
0.0587335
0.0610015
0.0630942
0.0649946
0.0666986
0.0246373
0.0246826
0.024772
0.0249149
0.0251163
0.0253822
0.0257254
0.0261636
0.026719
0.0274159
0.0282798
0.0293364
0.0306101
0.0321209
0.0338807
0.0358902
0.0381358
0.0405883
0.0432047
0.0459306
0.0487059
0.0514693
0.0541636
0.0567412
0.0591686
0.0614149
0.063457
0.0652895
0.0235827
0.0236096
0.0236823
0.023811
0.0240012
0.0242596
0.0246008
0.0250451
0.0256177
0.026346
0.0272592
0.0283871
0.0297571
0.0313908
0.0332993
0.0354787
0.0379072
0.0405452
0.0433373
0.0462179
0.0491173
0.0519681
0.0547115
0.0573043
0.0597109
0.0619029
0.0638695
0.0225728
0.0225482
0.0225599
0.022619
0.0227366
0.0229188
0.0231731
0.0235163
0.023972
0.0245687
0.0253378
0.026313
0.0275284
0.029015
0.0307955
0.032878
0.0352517
0.0378834
0.0407198
0.0436912
0.0467196
0.0497265
0.0526405
0.0554055
0.0579803
0.0603306
0.0624385
0.0215344
0.0215338
0.0215822
0.0216915
0.0218686
0.0221221
0.0224718
0.0229449
0.0235738
0.0243949
0.0254474
0.0267704
0.0283984
0.0303536
0.032639
0.0352326
0.0380863
0.0411292
0.0442759
0.0474359
0.0505239
0.0534691
0.0562212
0.0587385
0.0609955
0.0205906
0.0205418
0.0205314
0.0205715
0.0206752
0.02085
0.0211063
0.0214674
0.0219647
0.0226357
0.0235228
0.0246715
0.026127
0.0279262
0.030089
0.0326088
0.0354477
0.0385376
0.0417875
0.0450948
0.0483587
0.0514912
0.0544301
0.0571238
0.0595381
0.0196277
0.0195702
0.0195522
0.0195865
0.0196871
0.0198625
0.0201255
0.0205036
0.0210335
0.0217587
0.0227291
0.0239981
0.0256167
0.0276233
0.030031
0.032818
0.0359244
0.0392568
0.0427019
0.0461414
0.0494681
0.0526029
0.0554825
0.0580634
0.0187791
0.0186838
0.0186195
0.0185958
0.0186264
0.0187265
0.0189055
0.0191796
0.0195815
0.0201542
0.020949
0.0220248
0.0234444
0.0252643
0.0275208
0.0302143
0.0332999
0.0366879
0.040256
0.0438684
0.0473956
0.0507346
0.0538098
0.0565678
0.0179853
0.0178596
0.0177586
0.0176892
0.0176616
0.0176907
0.0177929
0.0179788
0.0182691
0.0187031
0.0193315
0.0202154
0.0214254
0.0230341
0.0251019
0.0276573
0.0306784
0.034087
0.0377568
0.0415345
0.0452656
0.0488197
0.0521029
0.0550487
0.0170872
0.0169568
0.0168514
0.0167783
0.0167486
0.0167784
0.0168854
0.017082
0.0173949
0.0178715
0.0185722
0.019571
0.0209524
0.0227991
0.025171
0.0280784
0.0314644
0.0352064
0.0391362
0.0430722
0.0468516
0.0503564
0.053502
0.016358
0.0162041
0.01607
0.0159614
0.0158861
0.0158557
0.0158885
0.0160033
0.016215
0.0165587
0.0170914
0.0178866
0.0190347
0.0206362
0.0227825
0.0255231
0.028835
0.0326103
0.0366718
0.0408097
0.0448238
0.0485645
0.0519231
0.0154915
0.0153348
0.0151982
0.0150875
0.015011
0.0149817
0.0150198
0.0151459
0.0153784
0.0157634
0.0163704
0.0172901
0.0186337
0.0205196
0.0230403
0.0262191
0.0299782
0.0341415
0.0384728
0.0427294
0.0467208
0.0503069
0.0148116
0.0146368
0.0144782
0.0143399
0.014228
0.0141516
0.014125
0.0141711
0.0143125
0.0145734
0.0150139
0.0157202
0.016806
0.0184083
0.0206608
0.0236427
0.0273247
0.0315484
0.0360569
0.0405607
0.0448176
0.048647
0.0141576
0.0139686
0.0137925
0.0136326
0.0134934
0.0133812
0.0133061
0.013284
0.0133414
0.0135029
0.0138028
0.0143186
0.0151594
0.0164697
0.0184158
0.0211368
0.0246704
0.0288988
0.0335582
0.0383109
0.0428461
0.0469344
0.0133229
0.0131333
0.0129566
0.0127961
0.0126565
0.012545
0.0124724
0.0124573
0.0125296
0.012718
0.0130716
0.0136909
0.0147169
0.0163343
0.0187365
0.0220428
0.0262039
0.0309721
0.0359661
0.0407953
0.0451635
0.0126935
0.0124933
0.0123035
0.0121266
0.0119661
0.0118269
0.0117168
0.0116484
0.0116434
0.0117358
0.0119603
0.0123891
0.0131532
0.0144391
0.016479
0.0194775
0.0234837
0.0282999
0.0335159
0.0386527
0.0433239
0.0120737
0.0118655
0.0116658
0.0114764
0.0112998
0.0111398
0.0110017
0.0108942
0.0108319
0.0108411
0.0109603
0.0112353
0.0117709
0.0127425
0.0143984
0.0170172
0.0207684
0.0255497
0.030952
0.0364043
0.0414036
0.0112427
0.0110357
0.0108371
0.0106486
0.0104729
0.010314
0.0101779
0.0100744
0.0100206
0.0100491
0.0102048
0.0105527
0.0112443
0.0125208
0.0147076
0.0181001
0.0227396
0.0282689
0.0340352
0.0393884
0.0106173
0.0104053
0.0102001
0.0100031
0.00981613
0.00964213
0.00948534
0.00935245
0.00925472
0.0092126
0.00926692
0.00947278
0.00993067
0.010858
0.0125912
0.0155309
0.0199009
0.0254671
0.031529
0.0372611
0.0099804
0.00976544
0.00955615
0.00935352
0.00915898
0.00897457
0.00880333
0.00864993
0.00852192
0.00843255
0.00840748
0.00849815
0.0087769
0.00940525
0.0106989
0.0131184
0.0170804
0.0225573
0.02887
0.0350012
0.00932157
0.00910547
0.00889428
0.00868874
0.00848986
0.00829914
0.00811872
0.00795187
0.00780376
0.00768313
0.00760628
0.00760753
0.00775047
0.00814213
0.00904305
0.0109173
0.0143411
0.0195662
0.0260464
0.0325859
0.00862781
0.00841226
0.00820121
0.00799523
0.0077951
0.00760187
0.00741707
0.00724298
0.00708312
0.0069433
0.00683386
0.00677532
0.00681414
0.00703436
0.00761305
0.00896679
0.0117571
0.0165432
0.0230578
0.0299938
0.00788212
0.00766875
0.00745983
0.00725589
0.00705753
0.00686556
0.00668109
0.00650565
0.00634163
0.00619282
0.00606579
0.00597294
0.00594086
0.00603412
0.00637653
0.00727963
0.00940019
0.0135615
0.0199246
0.0272129
0.00706087
0.00685152
0.00664697
0.00644776
0.00625449
0.00606784
0.00588865
0.00571799
0.00555736
0.00540914
0.00527732
0.00516933
0.00510066
0.00510926
0.00528617
0.00583823
0.0073224
0.0107089
0.0166799
0.0242454
0.00612896
0.00592626
0.00572917
0.00553835
0.00535447
0.0051782
0.00501025
0.00485138
0.00470255
0.00456507
0.00444106
0.0043345
0.00425388
0.00421955
0.00428832
0.00459832
0.0055424
0.00807875
0.0133836
0.0211051
0.00503006
0.00483899
0.00465505
0.00447901
0.00431156
0.00415339
0.00400511
0.00386733
0.00374064
0.00362566
0.00352313
0.00343442
0.00336295
0.00331821
0.00332729
0.0034768
0.00402343
0.00573309
0.0100753
0.0177298
0.00367059
0.00350295
0.00334475
0.0031966
0.00305904
0.0029325
0.00281738
0.00271406
0.00262293
0.00254412
0.00247718
0.00242118
0.00237355
0.00233513
0.0023225
0.0023837
0.00266042
0.00367731
0.00690401
0.0141882
0.00194542
0.00183216
0.00172892
0.00163555
0.00155196
0.00147811
0.00141411
0.00136021
0.00131672
0.00128312
0.00125237
0.00122466
0.00120555
0.00120242
0.00121794
0.0012692
0.00143206
0.00199125
0.00413498
0.0108185
0.000206668
0.000185718
0.000167837
0.000152705
0.000140028
0.000129562
0.000121114
0.000114558
0.000109839
0.000107118
0.000112145
0.000121621
0.000135088
0.000154167
0.000180793
0.000218571
0.00028522
0.000444427
0.00127692
0.0062828
0.102514
0.102723
0.102932
0.10314
0.103348
0.103556
0.103763
0.10397
0.104176
0.104381
0.104584
0.104784
0.104981
0.105175
0.105363
0.105545
0.105719
0.105884
0.106039
0.10618
0.106307
0.106416
0.106504
0.10657
0.106609
0.106617
0.10659
0.106523
0.106411
0.106247
0.106024
0.105734
0.105368
0.104914
0.104362
0.103697
0.102903
0.101963
0.100855
0.099556
0.0980385
0.0962719
0.0942213
0.0918477
0.0891072
0.0859511
0.0823242
0.0781628
0.0733883
0.0678951
0.0615248
0.0540162
0.0449384
0.0340378
0.0238497
0.102475
0.102681
0.102887
0.103092
0.103296
0.103499
0.103702
0.103903
0.104104
0.104302
0.104498
0.10469
0.104879
0.105064
0.105242
0.105413
0.105576
0.105729
0.10587
0.105998
0.106109
0.106202
0.106274
0.106321
0.106341
0.106329
0.106281
0.106192
0.106056
0.105866
0.105617
0.105299
0.104903
0.104419
0.103834
0.103135
0.102306
0.101328
0.10018
0.09884
0.0972799
0.0954696
0.0933746
0.0909565
0.0881722
0.0849736
0.0813061
0.0771058
0.072293
0.0667592
0.0603428
0.0527869
0.0437243
0.0330938
0.0223393
0.102435
0.102639
0.102841
0.103042
0.103242
0.103441
0.103638
0.103834
0.104028
0.10422
0.104408
0.104593
0.104773
0.104948
0.105116
0.105277
0.105428
0.105568
0.105696
0.105808
0.105904
0.105981
0.106035
0.106065
0.106065
0.106032
0.105962
0.10585
0.10569
0.105475
0.105198
0.104852
0.104426
0.103911
0.103293
0.102558
0.101692
0.100676
0.0994883
0.0981064
0.0965035
0.0946493
0.0925103
0.0900485
0.0872219
0.0839835
0.0802797
0.0760476
0.0712087
0.0656578
0.0592434
0.0517448
0.0429038
0.033034
0.0233225
0.102395
0.102595
0.102793
0.10299
0.103186
0.10338
0.103572
0.103762
0.10395
0.104134
0.104315
0.104492
0.104663
0.104828
0.104986
0.105135
0.105274
0.105401
0.105514
0.105612
0.105693
0.105753
0.105789
0.105799
0.10578
0.105726
0.105634
0.105498
0.105313
0.105072
0.104768
0.104393
0.103936
0.103388
0.102736
0.101967
0.101063
0.100008
0.09878
0.0973564
0.0957107
0.0938134
0.0916315
0.0891281
0.0862626
0.0829893
0.0792569
0.0750052
0.0701604
0.0646272
0.0582784
0.0509544
0.0425638
0.0338042
0.0255463
0.102352
0.102549
0.102744
0.102937
0.103128
0.103317
0.103504
0.103688
0.103868
0.104046
0.104218
0.104386
0.104548
0.104703
0.10485
0.104987
0.105113
0.105227
0.105326
0.105409
0.105473
0.105516
0.105534
0.105525
0.105485
0.10541
0.105295
0.105135
0.104925
0.104657
0.104325
0.10392
0.103433
0.102852
0.102166
0.10136
0.100419
0.0993244
0.0980561
0.0965911
0.0949034
0.0929642
0.0907416
0.0881999
0.0853003
0.0819994
0.0782491
0.0739941
0.0691693
0.0636956
0.0574797
0.0504343
0.0427356
0.0352345
0.0282554
0.102309
0.102502
0.102693
0.102881
0.103068
0.103251
0.103432
0.103609
0.103783
0.103953
0.104117
0.104276
0.104428
0.104573
0.104708
0.104833
0.104947
0.105047
0.105131
0.105199
0.105246
0.105271
0.105271
0.105242
0.105181
0.105084
0.104946
0.104761
0.104525
0.10423
0.10387
0.103435
0.102916
0.102302
0.101581
0.100739
0.0997596
0.098626
0.0973176
0.0958117
0.0940833
0.0921044
0.0898441
0.0872687
0.0843414
0.0810222
0.0772677
0.0730296
0.0682549
0.0628858
0.056868
0.0502283
0.043384
0.0370472
0.0310112
0.102263
0.102453
0.102639
0.102823
0.103004
0.103182
0.103357
0.103528
0.103694
0.103856
0.104012
0.104161
0.104303
0.104437
0.104561
0.104674
0.104774
0.104859
0.104929
0.10498
0.10501
0.105018
0.104998
0.104949
0.104867
0.104747
0.104585
0.104376
0.104114
0.103791
0.103401
0.102936
0.102384
0.101737
0.100981
0.100102
0.0990856
0.0979132
0.0965653
0.09502
0.0932528
0.0912369
0.088943
0.0863396
0.0833929
0.0800671
0.0763246
0.0721267
0.0674347
0.0622148
0.0564631
0.0503646
0.044415
0.039007
0.0336146
0.102216
0.102402
0.102584
0.102763
0.102939
0.103111
0.103279
0.103443
0.103602
0.103755
0.103902
0.104041
0.104173
0.104295
0.104407
0.104507
0.104593
0.104665
0.104719
0.104753
0.104766
0.104755
0.104716
0.104646
0.104542
0.1044
0.104214
0.103979
0.10369
0.103339
0.10292
0.102423
0.101839
0.101158
0.100367
0.0994518
0.0983977
0.0971871
0.0958009
0.0942177
0.0924143
0.0903652
0.088043
0.0854189
0.0824628
0.079144
0.0754322
0.0712993
0.0667224
0.0616947
0.0562972
0.050828
0.0456881
0.040969
0.036021
0.102167
0.102348
0.102526
0.1027
0.10287
0.103036
0.103197
0.103354
0.103504
0.103649
0.103786
0.103916
0.104037
0.104148
0.104247
0.104333
0.104406
0.104462
0.1045
0.104518
0.104513
0.104482
0.104424
0.104333
0.104207
0.104041
0.10383
0.10357
0.103253
0.102874
0.102425
0.101897
0.10128
0.100565
0.0997387
0.0987876
0.0976966
0.0964489
0.095026
0.0934075
0.0915712
0.0894936
0.0871497
0.0845136
0.0815597
0.0782632
0.0746019
0.0705587
0.0661277
0.0613464
0.0563872
0.0515543
0.0470817
0.042859
0.0382392
0.102116
0.102293
0.102465
0.102634
0.102798
0.102957
0.103111
0.10326
0.103403
0.103538
0.103666
0.103785
0.103895
0.103993
0.10408
0.104153
0.10421
0.104251
0.104273
0.104273
0.10425
0.1042
0.104121
0.104009
0.10386
0.10367
0.103435
0.103148
0.102804
0.102396
0.101916
0.101357
0.100708
0.0999585
0.0990972
0.0981105
0.0969836
0.0957004
0.094243
0.0925923
0.0907276
0.0886273
0.0862693
0.0836314
0.0806927
0.0774347
0.0738437
0.0699138
0.0656641
0.0611941
0.056717
0.0524611
0.0485138
0.0446514
0.0402976
0.102063
0.102234
0.102402
0.102564
0.102722
0.102875
0.103021
0.103162
0.103296
0.103422
0.10354
0.103648
0.103746
0.103832
0.103905
0.103964
0.104007
0.104032
0.104037
0.104019
0.103977
0.103908
0.103808
0.103674
0.103502
0.103288
0.103027
0.102713
0.102341
0.101904
0.101394
0.100803
0.100121
0.0993386
0.098443
0.0974217
0.0962605
0.0949438
0.0934549
0.0917759
0.0898879
0.0877719
0.0854086
0.08278
0.0798702
0.0766672
0.0731653
0.0693743
0.0653527
0.0612455
0.0572421
0.053478
0.0499365
0.0463455
0.0422238
0.102007
0.102173
0.102335
0.102491
0.102643
0.102788
0.102927
0.103059
0.103184
0.1033
0.103407
0.103504
0.10359
0.103664
0.103723
0.103767
0.103795
0.103803
0.103791
0.103756
0.103695
0.103605
0.103484
0.103327
0.103132
0.102893
0.102606
0.102266
0.101866
0.101399
0.100859
0.100236
0.0995223
0.0987064
0.0977775
0.096723
0.0955293
0.0941819
0.0926651
0.0909626
0.0890576
0.0869336
0.0845748
0.0819672
0.0791002
0.0759678
0.0725747
0.0689562
0.0652097
0.0614833
0.0579116
0.054554
0.0513265
0.0479511
0.0440415
0.101948
0.102109
0.102265
0.102415
0.102559
0.102697
0.102828
0.102951
0.103066
0.103172
0.103269
0.103354
0.103427
0.103487
0.103533
0.103562
0.103574
0.103566
0.103536
0.103482
0.103401
0.103291
0.103148
0.102969
0.10275
0.102486
0.102173
0.101806
0.101377
0.100881
0.100311
0.0996569
0.0989111
0.0980632
0.0971023
0.0960164
0.0947929
0.093418
0.0918776
0.0901572
0.0882421
0.0861187
0.0837746
0.0812
0.078389
0.0753432
0.072084
0.068677
0.0652344
0.0618754
0.0586813
0.0556551
0.0526747
0.0494805
0.0457699
0.101886
0.102041
0.102191
0.102334
0.102471
0.102601
0.102723
0.102838
0.102943
0.103038