/*--------------------------------*- C++ -*----------------------------------*\
  =========                 |
  \\      /  F ield         | OpenFOAM: The Open Source CFD Toolbox
   \\    /   O peration     | Website:  https://openfoam.org
    \\  /    A nd           | Version:  10
     \\/     M anipulation  |
\*---------------------------------------------------------------------------*/
FoamFile
{
    format      ascii;
    class       volScalarField;
    location    "42000";
    object      p;
}
// * * * * * * * * * * * * * * * * * * * * * * * * * * * * * * * * * * * * * //

dimensions      [0 2 -2 0 0 0 0];

internalField   nonuniform List<scalar> 
17981
(
2.62035e-05
0.0582077
0.1147
0.169559
0.222832
0.274557
0.324775
0.373524
0.420844
0.466771
0.511345
0.554601
0.596577
0.637308
0.67683
0.715176
0.752381
0.788477
0.823498
0.857473
0.890435
0.922412
0.953435
0.98353
1.01273
1.04105
1.06853
1.09519
1.12105
1.14614
1.17048
1.1941
1.21701
1.23924
1.26081
1.28174
1.30204
1.32175
1.34086
1.35941
1.37741
1.39488
1.41183
1.42827
1.44424
1.45973
1.47476
1.48935
-0.011775
0.0468585
0.103811
0.159123
0.212837
0.264991
0.315625
0.364779
0.41249
0.458797
0.503738
0.54735
0.589669
0.630732
0.670573
0.709228
0.74673
0.783113
0.818409
0.852649
0.885865
0.918087
0.949344
0.979665
1.00908
1.03761
1.06529
1.09214
1.11818
1.14345
1.16796
1.19173
1.2148
1.23718
1.25888
1.27995
1.30038
1.3202
1.33944
1.3581
1.37621
1.39378
1.41082
1.42737
1.44342
1.45899
1.47411
1.48878
-0.0242903
0.0348631
0.0923228
0.14813
0.202324
0.254946
0.306035
0.355628
0.403766
0.450486
0.495827
0.539824
0.582516
0.623939
0.664127
0.703116
0.74094
0.777632
0.813226
0.847753
0.881244
0.91373
0.94524
0.975804
1.00545
1.03421
1.0621
1.08915
1.11539
1.14084
1.16553
1.18948
1.21271
1.23525
1.25711
1.27831
1.29888
1.31884
1.3382
1.35698
1.3752
1.39288
1.41003
1.42667
1.44282
1.45849
1.47369
1.48844
0.191288
0.24441
0.295984
0.346048
0.39464
0.4418
0.487565
0.531972
0.57506
0.616863
0.657418
0.696761
0.734924
0.771943
0.807851
0.842679
0.876459
0.909222
0.940998
0.971817
1.00171
1.0307
1.05881
1.08608
1.11252
1.13817
1.16305
1.18717
1.21057
1.23327
1.25528
1.27664
1.29735
1.31744
1.33693
1.35583
1.37417
1.39196
1.40922
1.42597
1.44221
1.45797
1.47327
1.4881
0.179794
0.233454
0.285548
0.336115
0.385194
0.432824
0.479043
0.523889
0.567398
0.609608
0.650555
0.690274
0.728799
0.766166
0.802407
0.837555
0.871641
0.904698
0.936756
0.967844
0.997992
1.02723
1.05558
1.08307
1.10973
1.13558
1.16066
1.18497
1.20855
1.23141
1.25359
1.2751
1.29596
1.31619
1.33581
1.35485
1.37331
1.39122
1.40859
1.42544
1.44178
1.45764
1.47303
1.48795
0.167862
0.222091
0.274737
0.325837
0.375432
0.423559
0.470258
0.515566
0.559521
0.602159
0.643518
0.683632
0.722538
0.760269
0.796859
0.832342
0.866749
0.900113
0.932464
0.963833
0.994249
1.02374
1.05233
1.08006
1.10694
1.13301
1.15828
1.18279
1.20655
1.2296
1.25194
1.27361
1.29462
1.31499
1.33475
1.35392
1.3725
1.39053
1.40801
1.42497
1.44142
1.45738
1.47285
1.48787
0.210363
0.263592
0.315257
0.365397
0.41405
0.461256
0.507052
0.551477
0.594567
0.63636
0.676891
0.716196
0.754311
0.791268
0.827102
0.861846
0.895531
0.928189
0.959851
0.990547
1.02031
1.04915
1.07712
1.10424
1.13052
1.15601
1.18072
1.20467
1.22789
1.25041
1.27224
1.29341
1.31393
1.33383
1.35313
1.37184
1.38999
1.40759
1.42466
1.44121
1.45726
1.47284
1.48794
0.30438
0.355093
0.4043
0.452039
0.498348
0.543266
0.58683
0.629078
0.670045
0.709768
0.748282
0.785622
0.821822
0.856915
0.890934
0.92391
0.955875
0.98686
1.0169
1.04601
1.07422
1.10158
1.12809
1.15379
1.1787
1.20284
1.22625
1.24894
1.27094
1.29226
1.31294
1.33298
1.35241
1.37126
1.38953
1.40724
1.42442
1.44108
1.45723
1.4729
1.48809
0.344528
0.394316
0.442615
0.489462
0.534897
0.578958
0.621681
0.663103
0.703262
0.742193
0.779931
0.816511
0.851966
0.88633
0.919635
0.951914
0.983194
1.01351
1.04289
1.07137
1.09897
1.12573
1.15166
1.17678
1.20112
1.22472
1.24759
1.26975
1.29124
1.31206
1.33225
1.35182
1.37079
1.38919
1.40702
1.4243
1.44107
1.45732
1.47308
1.48836
0.432983
0.480397
0.526375
0.570956
0.614177
0.656077
0.696692
0.736059
0.774212
0.811189
0.847022
0.881746
0.915394
0.947999
0.979593
1.0102
1.03986
1.06858
1.09641
1.12338
1.14952
1.17485
1.1994
1.22319
1.24624
1.26858
1.29023
1.31121
1.33154
1.35125
1.37035
1.38887
1.40682
1.42422
1.44108
1.45743
1.47329
1.48866
0.606543
0.648936
0.690022
0.729837
0.768417
0.805799
0.842018
0.877109
0.911105
0.944039
0.975944
1.00685
1.0368
1.06582
1.09393
1.12115
1.14752
1.17307
1.19782
1.2218
1.24503
1.26754
1.28935
1.31048
1.33095
1.3508
1.37003
1.38866
1.40673
1.42423
1.4412
1.45765
1.47359
1.48905
0.598815
0.641721
0.683295
0.723574
0.762596
0.800398
0.837015
0.872484
0.906838
0.940112
0.972339
1.00355
1.03378
1.06306
1.09142
1.11888
1.14548
1.17124
1.1962
1.22037
1.24379
1.26647
1.28844
1.30972
1.33034
1.35032
1.36968
1.38844
1.40661
1.42422
1.44129
1.45783
1.47387
1.48941
0.590997
0.63443
0.676505
0.717261
0.756736
0.794967
0.831992
0.867846
0.902566
0.936186
0.968741
1.00026
1.03079
1.06034
1.08896
1.11667
1.1435
1.16948
1.19464
1.219
1.2426
1.26545
1.28758
1.30902
1.32978
1.34989
1.36937
1.38825
1.40653
1.42425
1.44141
1.45804
1.47416
1.48978
0.583115
0.627087
0.669675
0.710917
0.750852
0.78952
0.826958
0.863203
0.898292
0.932261
0.965145
0.996978
1.02779
1.05762
1.0865
1.11445
1.14151
1.16771
1.19308
1.21763
1.2414
1.26442
1.28671
1.3083
1.3292
1.34944
1.36904
1.38803
1.40642
1.42424
1.44149
1.45821
1.47441
1.49011
0.619719
0.662827
0.704563
0.744966
0.784076
0.821932
0.858573
0.894035
0.928357
0.961572
0.993718
1.02483
1.05493
1.08407
1.11227
1.13956
1.16597
1.19154
1.21628
1.24023
1.26342
1.28586
1.30759
1.32863
1.34899
1.36872
1.38781
1.40631
1.42422
1.44157
1.45837
1.47464
1.49041
0.612354
0.655988
0.698223
0.739099
0.778656
0.816933
0.853971
0.889807
0.92448
0.958026
0.990481
1.02188
1.05226
1.08165
1.11009
1.13761
1.16423
1.19
1.21492
1.23905
1.2624
1.28499
1.30686
1.32803
1.34852
1.36836
1.38756
1.40615
1.42416
1.44159
1.45847
1.47482
1.49066
0.605023
0.64919
0.691928
0.73328
0.773285
0.811986
0.849421
0.885632
0.920657
0.954533
0.987298
1.01899
1.04964
1.07928
1.10796
1.1357
1.16253
1.18848
1.21359
1.23788
1.26139
1.28413
1.30613
1.32743
1.34804
1.36798
1.38729
1.40598
1.42407
1.44158
1.45854
1.47496
1.49086
0.642418
0.685695
0.727565
0.768061
0.807212
0.845048
0.881614
0.916964
0.951148
0.984202
1.01616
1.04707
1.07695
1.10585
1.1338
1.16083
1.18696
1.21224
1.2367
1.26035
1.28323
1.30536
1.32678
1.3475
1.36755
1.38695
1.40573
1.4239
1.44149
1.45852
1.475
1.49096
0.635649
0.679451
0.721818
0.762781
0.802376
0.840646
0.877648
0.913421
0.947986
0.981368
1.0136
1.04473
1.07482
1.10391
1.13204
1.15923
1.18553
1.21096
1.23556
1.25934
1.28235
1.3046
1.32612
1.34694
1.36709
1.38658
1.40543
1.42368
1.44134
1.45843
1.47497
1.49099
0.628943
0.673183
0.715973
0.757351
0.79736
0.836042
0.873435
0.909564
0.944459
0.978156
1.0107
1.04214
1.07252
1.10185
1.13017
1.15754
1.18399
1.20957
1.2343
1.25821
1.28134
1.3037
1.32533
1.34625
1.36648
1.38606
1.40499
1.42331
1.44104
1.45819
1.47479
1.49085
0.622499
0.66714
0.71031
0.752044
0.792382
0.831366
0.869038
0.905441
0.940616
0.974602
1.00744
1.03917
1.06982
1.09939
1.12795
1.15554
1.18218
1.20792
1.23279
1.25684
1.28009
1.30257
1.32431
1.34533
1.36566
1.38532
1.40433
1.42273
1.44052
1.45774
1.47439
1.49051
0.616337
0.66135
0.704879
0.74696
0.78763
0.826927
0.86489
0.901561
0.936981
0.97119
1.00423
1.03615
1.06698
1.09676
1.12554
1.15332
1.18015
1.20605
1.23108
1.25527
1.27864
1.30124
1.32309
1.34421
1.36463
1.38438
1.40347
1.42194
1.4398
1.45708
1.47379
1.48996
0.610462
0.655801
0.699647
0.742035
0.783001
0.822582
0.860816
0.897745
0.933408
0.967847
1.0011
1.03321
1.06421
1.09416
1.12307
1.15101
1.17799
1.20405
1.22922
1.25354
1.27704
1.29975
1.3217
1.34292
1.36344
1.38327
1.40244
1.42098
1.4389
1.45624
1.473
1.48922
0.60488
0.650499
0.694623
0.737287
0.778523
0.818365
0.856852
0.89402
0.929908
0.964556
0.998005
1.0303
1.06147
1.09157
1.12063
1.14869
1.1758
1.20198
1.22728
1.25172
1.27534
1.29816
1.32021
1.34153
1.36212
1.38203
1.40128
1.41988
1.43787
1.45526
1.47208
1.48834
0.599588
0.645449
0.689804
0.732701
0.774173
0.814251
0.852968
0.890358
0.926457
0.961305
0.99494
1.0274
1.05874
1.08898
1.11818
1.14637
1.17359
1.19989
1.2253
1.24985
1.27358
1.2965
1.31865
1.34005
1.36073
1.38072
1.40003
1.4187
1.43674
1.45419
1.47105
1.48736
0.594526
0.640644
0.685209
0.728302
0.769973
0.810255
0.849176
0.886768
0.923063
0.958096
0.991907
1.02453
1.05602
1.0864
1.11573
1.14404
1.17138
1.19779
1.2233
1.24797
1.27181
1.29483
1.31707
1.33855
1.3593
1.37936
1.39873
1.41746
1.43556
1.45305
1.46996
1.4863
0.589605
0.636009
0.680813
0.72409
0.76593
0.806383
0.845482
0.883254
0.919728
0.954936
0.988912
1.0217
1.05333
1.08385
1.1133
1.14173
1.16918
1.19569
1.22133
1.24611
1.27004
1.29315
1.31548
1.33704
1.35786
1.37798
1.39742
1.4162
1.43435
1.45188
1.46883
1.48521
0.584826
0.631478
0.676547
0.720045
0.762048
0.802649
0.841899
0.879829
0.916464
0.951833
0.985966
1.0189
1.05067
1.08132
1.1109
1.13944
1.167
1.19364
1.21939
1.24428
1.26831
1.2915
1.31391
1.33554
1.35644
1.37662
1.39611
1.41494
1.43314
1.45072
1.4677
1.48412
0.580235
0.627068
0.672355
0.716098
0.758303
0.799052
0.838435
0.876502
0.913282
0.948799
0.98308
1.01616
1.04806
1.07884
1.10854
1.1372
1.16488
1.19164
1.21752
1.2425
1.26662
1.2899
1.31238
1.33409
1.35505
1.37529
1.39484
1.41372
1.43196
1.44958
1.4666
1.48305
0.622825
0.668267
0.712207
0.754639
0.795572
0.835091
0.873282
0.910191
0.945843
0.980263
1.01348
1.04552
1.07642
1.10624
1.13502
1.16283
1.18972
1.2157
1.24078
1.26499
1.28836
1.31092
1.3327
1.35372
1.37402
1.39362
1.41255
1.43083
1.44849
1.46554
1.48202
0.618746
0.664323
0.708404
0.75102
0.792162
0.831847
0.870167
0.907196
0.942972
0.977522
1.01087
1.04304
1.07407
1.10401
1.13292
1.16086
1.18787
1.21396
1.23914
1.26344
1.28689
1.30953
1.33138
1.35247
1.37283
1.39248
1.41146
1.42979
1.44748
1.46457
1.48107
0.614819
0.660518
0.704721
0.747471
0.788793
0.828672
0.867141
0.904294
0.940191
0.974865
1.00834
1.04064
1.0718
1.10187
1.1309
1.15897
1.18611
1.2123
1.23757
1.26197
1.2855
1.30822
1.33014
1.3513
1.37172
1.39143
1.41046
1.42883
1.44656
1.46369
1.48022
0.61103
0.656839
0.701155
0.744019
0.785475
0.825536
0.864186
0.901475
0.937494
0.97229
1.00589
1.03832
1.06961
1.09981
1.12897
1.15717
1.18442
1.21072
1.23609
1.26058
1.2842
1.307
1.329
1.35022
1.37071
1.39048
1.40955
1.42797
1.44574
1.4629
1.47947
0.740664
0.782229
0.822425
0.86126
0.898728
0.934883
0.969799
1.00352
1.03608
1.0675
1.09782
1.12712
1.15544
1.18281
1.20922
1.23469
1.25927
1.28299
1.30587
1.32794
1.34924
1.36979
1.38962
1.40875
1.42721
1.44502
1.46222
1.47882
0.737399
0.779068
0.819372
0.858354
0.896007
0.932326
0.967377
1.00122
1.03391
1.06545
1.09591
1.12534
1.15379
1.18127
1.20779
1.23337
1.25805
1.28186
1.30483
1.32698
1.34835
1.36896
1.38885
1.40803
1.42654
1.44441
1.46164
1.47828
0.734216
0.775989
0.8164
0.855489
0.893287
0.929786
0.964997
0.998983
1.0318
1.06348
1.09406
1.12363
1.1522
1.17981
1.20644
1.23213
1.25691
1.28081
1.30387
1.3261
1.34755
1.36823
1.38818
1.40742
1.42598
1.44389
1.46116
1.47783
0.731102
0.772972
0.813488
0.852686
0.890599
0.927252
0.962637
0.996778
1.02973
1.06155
1.09227
1.12197
1.15067
1.1784
1.20515
1.23095
1.25583
1.27984
1.30298
1.3253
1.34683
1.36758
1.38759
1.40689
1.42551
1.44346
1.46078
1.47748
0.728046
0.770007
0.810624
0.849927
0.887951
0.924729
0.960276
0.99459
1.0277
1.05966
1.09052
1.12035
1.1492
1.17705
1.20392
1.22983
1.25482
1.27893
1.30217
1.32458
1.34618
1.36701
1.38709
1.40645
1.42512
1.44312
1.46048
1.47722
0.725041
0.767088
0.8078
0.847206
0.88534
0.922231
0.957911
0.992391
1.02567
1.05779
1.0888
1.11878
1.14776
1.17574
1.20273
1.22876
1.25387
1.27807
1.30141
1.32391
1.3456
1.36651
1.38666
1.40608
1.42481
1.44286
1.46026
1.47705
0.722081
0.764209
0.80501
0.844516
0.882756
0.91976
0.955556
0.990174
1.02362
1.05591
1.08709
1.11723
1.14635
1.17446
1.20157
1.22773
1.25295
1.27726
1.3007
1.3233
1.34507
1.36606
1.38628
1.40578
1.42456
1.44266
1.46012
1.47694
0.719165
0.761369
0.802256
0.841857
0.880201
0.917317
0.953232
0.987972
1.02156
1.05402
1.08538
1.11568
1.14493
1.17317
1.20042
1.2267
1.25204
1.27647
1.30002
1.32271
1.34458
1.36565
1.38595
1.40551
1.42436
1.44252
1.46002
1.47689
0.716291
0.758565
0.799534
0.839228
0.877675
0.914903
0.950938
0.985805
1.01953
1.05214
1.08365
1.11409
1.14349
1.17186
1.19925
1.22566
1.25113
1.27568
1.29934
1.32214
1.34411
1.36527
1.38565
1.40529
1.4242
1.44242
1.45997
1.47689
0.713454
0.755792
0.796837
0.836617
0.875162
0.912498
0.948649
0.983642
1.0175
1.05024
1.0819
1.11248
1.14202
1.17054
1.19806
1.22461
1.25021
1.27489
1.29867
1.32158
1.34365
1.3649
1.38537
1.40509
1.42407
1.44235
1.45996
1.47692
0.710654
0.753049
0.794162
0.834023
0.872659
0.910096
0.94636
0.981473
1.01546
1.04834
1.08013
1.11086
1.14054
1.16921
1.19687
1.22356
1.24929
1.27409
1.298
1.32102
1.3432
1.36455
1.38511
1.40491
1.42397
1.44231
1.45998
1.47699
0.707892
0.750336
0.79151
0.831444
0.870165
0.907697
0.944065
0.979293
1.0134
1.04641
1.07834
1.10921
1.13904
1.16785
1.19565
1.22248
1.24835
1.27329
1.29732
1.32046
1.34275
1.36421
1.38486
1.40474
1.42388
1.44229
1.46002
1.47708
0.705171
0.747656
0.788884
0.828884
0.86768
0.9053
0.941767
0.977103
1.01133
1.04446
1.07653
1.10754
1.13751
1.16646
1.19441
1.22139
1.2474
1.27247
1.29663
1.3199
1.3423
1.36387
1.38462
1.40459
1.4238
1.44229
1.46008
1.4772
0.702499
0.745015
0.786288
0.826345
0.86521
0.90291
0.939467
0.974904
1.00924
1.0425
1.07469
1.10583
1.13595
1.16504
1.19314
1.22026
1.24642
1.27163
1.29592
1.31932
1.34184
1.36352
1.38437
1.40443
1.42373
1.4423
1.46015
1.47733
0.69988
0.742419
0.783728
0.823833
0.862759
0.90053
0.937169
0.972699
1.00714
1.04051
1.07282
1.1041
1.13435
1.16359
1.19184
1.2191
1.2454
1.27076
1.29519
1.31872
1.34136
1.36316
1.38412
1.40428
1.42366
1.4423
1.46023
1.47746
0.697325
0.739875
0.78121
0.821354
0.860332
0.898166
0.93488
0.970495
1.00503
1.03851
1.07094
1.10234
1.13273
1.16211
1.1905
1.21791
1.24436
1.26986
1.29443
1.31809
1.34087
1.36278
1.38385
1.40411
1.42359
1.44231
1.46031
1.47761
0.69484
0.737392
0.778742
0.818916
0.857937
0.895825
0.932605
0.968296
1.00292
1.03649
1.06903
1.10055
1.13107
1.16059
1.18912
1.21668
1.24327
1.26892
1.29364
1.31744
1.34035
1.36238
1.38357
1.40394
1.42351
1.44232
1.46039
1.47775
0.692425
0.734978
0.776334
0.816526
0.85558
0.893514
0.93035
0.966109
1.00081
1.03447
1.06712
1.09875
1.12938
1.15903
1.1877
1.21541
1.24215
1.26795
1.29281
1.31675
1.3398
1.36196
1.38327
1.40375
1.42342
1.44231
1.46046
1.47789
0.690072
0.732633
0.773993
0.814194
0.853269
0.891239
0.928124
0.963942
0.998714
1.03246
1.06519
1.09693
1.12768
1.15745
1.18626
1.2141
1.24099
1.26693
1.29195
1.31603
1.33922
1.36151
1.38295
1.40354
1.42331
1.4423
1.46053
1.47803
0.687771
0.730346
0.771718
0.811927
0.851013
0.889007
0.925931
0.9618
0.996634
1.03045
1.06326
1.09509
1.12595
1.15584
1.18478
1.21276
1.23979
1.26588
1.29104
1.31528
1.33861
1.36104
1.3826
1.40331
1.42319
1.44228
1.46059
1.47816
0.728108
0.769498
0.809722
0.848819
0.886828
0.923778
0.959689
0.994576
1.02846
1.06135
1.09326
1.12421
1.15421
1.18327
1.21138
1.23856
1.2648
1.29011
1.31449
1.33797
1.36054
1.38223
1.40306
1.42306
1.44224
1.46064
1.47829
0.725914
0.767323
0.807568
0.846684
0.884706
0.921674
0.957615
0.992547
1.02648
1.05944
1.09143
1.12247
1.15257
1.18174
1.20998
1.23729
1.26367
1.28913
1.31367
1.33729
1.36001
1.38184
1.4028
1.42291
1.44219
1.46069
1.47842
0.805456
0.844596
0.88264
0.919624
0.955586
0.99055
1.02453
1.05755
1.08961
1.12073
1.15092
1.1802
1.20855
1.23599
1.26252
1.28812
1.31281
1.33658
1.35945
1.38142
1.40251
1.42274
1.44214
1.46072
1.47854
0.803381
0.842546
0.880617
0.917625
0.953605
0.988594
1.02261
1.05568
1.0878
1.11899
1.14927
1.17864
1.20711
1.23467
1.26133
1.28708
1.31192
1.33584
1.35886
1.38097
1.4022
1.42255
1.44206
1.46075
1.47865
0.840528
0.878627
0.915664
0.951671
0.986681
1.02073
1.05383
1.08601
1.11727
1.14762
1.17708
1.20564
1.23332
1.26011
1.286
1.31099
1.33507
1.35823
1.3805
1.40186
1.42235
1.44198
1.46077
1.47876
0.838541
0.876665
0.913732
0.94977
0.984808
1.01888
1.05202
1.08424
1.11555
1.14597
1.17551
1.20417
1.23196
1.25887
1.28489
1.31002
1.33425
1.35758
1.37999
1.40151
1.42213
1.44188
1.46078
1.47886
0.836581
0.874729
0.911824
0.947894
0.982965
1.01707
1.05023
1.08249
1.11385
1.14433
1.17394
1.20269
1.23057
1.2576
1.28375
1.30902
1.33341
1.35689
1.37946
1.40112
1.42189
1.44177
1.46078
1.47896
0.872816
0.909937
0.946037
0.981142
1.01528
1.04848
1.08076
1.11217
1.1427
1.17237
1.2012
1.22917
1.2563
1.28258
1.30799
1.33252
1.35616
1.37889
1.40071
1.42162
1.44163
1.46077
1.47905
0.870923
0.908069
0.944197
0.979334
1.01351
1.04674
1.07906
1.1105
1.14108
1.17081
1.1997
1.22776
1.25499
1.28138
1.30693
1.3316
1.35539
1.37828
1.40026
1.42133
1.44148
1.46074
1.47914
0.906216
0.942371
0.977538
1.01174
1.04501
1.07737
1.10885
1.13947
1.16925
1.1982
1.22634
1.25366
1.28016
1.30582
1.33064
1.35459
1.37764
1.39978
1.421
1.44131
1.4607
1.47921
0.904376
0.940557
0.975752
1.00999
1.04329
1.07569
1.1072
1.13786
1.16769
1.1967
1.2249
1.2523
1.2789
1.30469
1.32964
1.35374
1.37695
1.39926
1.42064
1.4411
1.46064
1.47927
0.902546
0.938751
0.973974
1.00824
1.04158
1.07401
1.10556
1.13626
1.16613
1.19519
1.22346
1.25093
1.27762
1.30351
1.32859
1.35284
1.37621
1.39869
1.42024
1.44087
1.46055
1.47931
0.936951
0.9722
1.00649
1.03986
1.07233
1.10391
1.13465
1.16456
1.19367
1.22199
1.24953
1.2763
1.3023
1.3275
1.35188
1.37542
1.39806
1.41979
1.44058
1.46043
1.47933
0.935155
0.970428
1.00475
1.03815
1.07064
1.10226
1.13304
1.16299
1.19214
1.22051
1.24811
1.27496
1.30104
1.32636
1.35088
1.37456
1.39738
1.41928
1.44025
1.46026
1.47931
0.933362
0.968657
1.00301
1.03643
1.06896
1.10061
1.13141
1.1614
1.19058
1.219
1.24666
1.27357
1.29974
1.32516
1.3498
1.37364
1.39662
1.41871
1.43986
1.46005
1.47926
0.966884
1.00126
1.03471
1.06726
1.09895
1.12978
1.1598
1.18902
1.21747
1.24518
1.27215
1.29839
1.3239
1.34867
1.37264
1.39579
1.41805
1.43939
1.45977
1.47915
0.965105
0.999501
1.03298
1.06556
1.09728
1.12814
1.15819
1.18744
1.21592
1.24366
1.27069
1.29699
1.32259
1.34745
1.37157
1.39487
1.41731
1.43884
1.45941
1.47898
0.963319
0.997736
1.03124
1.06385
1.09559
1.12649
1.15656
1.18584
1.21435
1.24212
1.26918
1.29554
1.32121
1.34617
1.3704
1.39385
1.41647
1.43819
1.45896
1.47873
0.961524
0.99596
1.02948
1.06212
1.09389
1.12482
1.15492
1.18423
1.21277
1.24056
1.26764
1.29404
1.31976
1.3448
1.36914
1.39274
1.41552
1.43743
1.4584
1.47839
0.959719
0.994172
1.02772
1.06038
1.09217
1.12313
1.15326
1.1826
1.21116
1.23898
1.26608
1.29249
1.31826
1.34336
1.36779
1.39152
1.41446
1.43655
1.45773
1.47794
0.957905
0.992372
1.02593
1.05862
1.09044
1.12142
1.15158
1.18095
1.20954
1.23738
1.2645
1.29093
1.3167
1.34185
1.36635
1.39018
1.41328
1.43554
1.45693
1.47737
0.956083
0.990563
1.02414
1.05684
1.08868
1.11969
1.14988
1.17928
1.2079
1.23577
1.26291
1.28935
1.31513
1.34028
1.36483
1.38874
1.41197
1.43441
1.456
1.47668
0.954262
0.988752
1.02234
1.05506
1.08692
1.11795
1.14816
1.17759
1.20624
1.23414
1.26131
1.28778
1.31356
1.3387
1.36325
1.3872
1.41052
1.43312
1.45488
1.47585
0.952455
0.986953
1.02056
1.05329
1.08516
1.11621
1.14645
1.1759
1.20458
1.2325
1.2597
1.28619
1.312
1.33714
1.36166
1.38561
1.40898
1.43168
1.45362
1.47483
0.950672
0.985186
1.01881
1.05156
1.08346
1.11453
1.14479
1.17427
1.20297
1.23093
1.25815
1.28466
1.31048
1.33563
1.36013
1.38403
1.40737
1.43016
1.45234
1.47387
0.948948
0.983464
1.01709
1.04986
1.08178
1.11287
1.14316
1.17266
1.2014
1.22938
1.25664
1.28319
1.30904
1.33422
1.35875
1.38265
1.40593
1.42862
1.45076
1.47237
0.947607
0.982206
1.01591
1.04875
1.08073
1.11188
1.14222
1.17175
1.20051
1.22851
1.25576
1.28228
1.30809
1.33319
1.3576
1.38131
1.40433
1.42663
1.44795
1.46819
2.71973
2.68668
2.65415
2.62213
2.59061
2.55959
2.52907
2.49903
2.46947
2.44038
2.41176
2.38361
2.35591
2.32866
2.30185
2.27548
2.24954
2.22402
2.19892
2.17423
2.14993
2.12604
2.10253
2.0794
2.05664
2.03424
2.01219
1.99049
1.96913
1.94809
1.92737
1.90696
1.88685
1.86702
1.84748
1.8282
1.80918
1.79041
1.77187
1.75357
1.73548
1.71761
1.69993
1.68245
1.66515
1.64804
1.6311
1.61434
1.59776
1.58135
1.56511
1.54889
1.53273
1.51874
1.4956
2.72011
2.68709
2.65458
2.62259
2.5911
2.56011
2.52962
2.49961
2.47008
2.44103
2.41245
2.38433
2.35667
2.32945
2.30268
2.27635
2.25044
2.22496
2.1999
2.17524
2.15099
2.12712
2.10365
2.08055
2.05782
2.03545
2.01344
1.99177
1.97043
1.94942
1.92873
1.90834
1.88825
1.86844
1.84892
1.82966
1.81065
1.7919
1.77337
1.75508
1.73699
1.71912
1.70143
1.68393
1.6666
1.64944
1.63243
1.61557
1.59883
1.5822
1.56564
1.54895
1.53173
1.5152
1.49635
2.72
2.68699
2.65451
2.62254
2.59107
2.56011
2.52964
2.49966
2.47016
2.44114
2.41258
2.38449
2.35686
2.32967
2.30293
2.27663
2.25076
2.22531
2.20027
2.17565
2.15142
2.12759
2.10414
2.08107
2.05837
2.03603
2.01404
1.99239
1.97107
1.95008
1.9294
1.90903
1.88895
1.86916
1.84965
1.8304
1.8114
1.79265
1.77413
1.75584
1.73775
1.71988
1.70219
1.68469
1.66735
1.65018
1.63317
1.61629
1.59952
1.58285
1.56623
1.54951
1.53228
1.51455
1.49593
2.71985
2.68686
2.6544
2.62245
2.59102
2.56008
2.52964
2.49969
2.47022
2.44122
2.4127
2.38464
2.35704
2.32989
2.30318
2.27691
2.25107
2.22565
2.20065
2.17605
2.15186
2.12806
2.10464
2.08159
2.05892
2.0366
2.01463
1.993
1.97171
1.95073
1.93007
1.90971
1.88965
1.86987
1.85036
1.83112
1.81212
1.79338
1.77486
1.75657
1.73849
1.72061
1.70293
1.68543
1.66811
1.65095
1.63395
1.61709
1.60036
1.58372
1.56711
1.5504
1.53329
1.51537
1.49626
2.71975
2.68679
2.65435
2.62243
2.59102
2.56011
2.52969
2.49977
2.47033
2.44136
2.41287
2.38484
2.35727
2.33015
2.30348
2.27724
2.25143
2.22604
2.20107
2.1765
2.15233
2.12856
2.10516
2.08215
2.05949
2.0372
2.01525
1.99364
1.97236
1.95141
1.93076
1.91042
1.89037
1.8706
1.8511
1.83186
1.81288
1.79414
1.77564
1.75736
1.73929
1.72142
1.70376
1.68627
1.66897
1.65184
1.63487
1.61804
1.60134
1.58472
1.56809
1.55133
1.53414
1.51612
1.49674
2.71967
2.68673
2.65432
2.62242
2.59103
2.56015
2.52976
2.49986
2.47045
2.44152
2.41305
2.38506
2.35751
2.33042
2.30378
2.27757
2.25179
2.22643
2.20148
2.17694
2.1528
2.12905
2.10568
2.08269
2.06006
2.03778
2.01585
1.99426
1.973
1.95206
1.93142
1.91109
1.89105
1.87129
1.85181
1.83258
1.81361
1.79488
1.77638
1.75811
1.74006
1.72221
1.70456
1.6871
1.66983
1.65272
1.63578
1.61897
1.60228
1.58565
1.56899
1.55211
1.53474
1.51655
1.49707
2.71961
2.68669
2.6543
2.62243
2.59106
2.5602
2.52984
2.49997
2.47059
2.44168
2.41325
2.38528
2.35776
2.3307
2.30408
2.2779
2.25215
2.22682
2.2019
2.17738
2.15327
2.12954
2.10619
2.08322
2.06061
2.03835
2.01644
1.99486
1.97362
1.95269
1.93207
1.91175
1.89172
1.87197
1.85249
1.83327
1.81431
1.79559
1.77711
1.75885
1.74081
1.72298
1.70535
1.68791
1.67065
1.65357
1.63664
1.61984
1.60314
1.58648
1.56973
1.55271
1.53516
1.51682
1.49738
2.71956
2.68667
2.6543
2.62245
2.59111
2.56027
2.52994
2.5001
2.47074
2.44186
2.41345
2.38551
2.35802
2.33099
2.3044
2.27824
2.25251
2.22721
2.20231
2.17782
2.15373
2.13002
2.10669
2.08374
2.06115
2.0389
2.01701
1.99545
1.97421
1.9533
1.93269
1.91238
1.89236
1.87262
1.85315
1.83394
1.81499
1.79628
1.77781
1.75956
1.74154
1.72372
1.7061
1.68868
1.67144
1.65436
1.63743
1.62063
1.6039
1.58717
1.57032
1.55313
1.53541
1.51697
1.49767
2.71953
2.68665
2.65431
2.62248
2.59117
2.56036
2.53005
2.50023
2.4709
2.44205
2.41367
2.38575
2.35829
2.33128
2.30472
2.27859
2.25288
2.2276
2.20273
2.17826
2.15418
2.1305
2.10719
2.08425
2.06167
2.03945
2.01756
1.99602
1.97479
1.95389
1.93329
1.91299
1.89298
1.87324
1.85378
1.83459
1.81564
1.79694
1.77848
1.76024
1.74223
1.72442
1.70681
1.6894
1.67216
1.65508
1.63814
1.6213
1.60453
1.58771
1.57071
1.55336
1.53551
1.51703
1.49787
2.71951
2.68666
2.65433
2.62253
2.59124
2.56046
2.53017
2.50038
2.47107
2.44225
2.41389
2.386
2.35857
2.33158
2.30504
2.27893
2.25325
2.22799
2.20314
2.17869
2.15463
2.13097
2.10767
2.08475
2.06219
2.03997
2.0181
1.99657
1.97535
1.95446
1.93387
1.91357
1.89357
1.87384
1.85439
1.8352
1.81626
1.79757
1.77911
1.76088
1.74287
1.72507
1.70747
1.69005
1.6728
1.65571
1.63875
1.62187
1.60502
1.58809
1.57093
1.55344
1.53549
1.51701
1.498
2.71951
2.68668
2.65438
2.62259
2.59133
2.56057
2.53031
2.50054
2.47126
2.44246
2.41412
2.38626
2.35885
2.33189
2.30537
2.27928
2.25362
2.22838
2.20355
2.17911
2.15508
2.13142
2.10815
2.08524
2.06269
2.04049
2.01863
1.9971
1.97589
1.955
1.93442
1.91413
1.89413
1.87442
1.85497
1.83578
1.81685
1.79816
1.7797
1.76148
1.74347
1.72567
1.70806
1.69063
1.67337
1.65626
1.63925
1.62232
1.60538
1.58831
1.57101
1.5534
1.53539
1.51693
1.49805
2.71952
2.68671
2.65443
2.62267
2.59143
2.56069
2.53045
2.50071
2.47145
2.44267
2.41436
2.38652
2.35913
2.33219
2.30569
2.27963
2.25399
2.22876
2.20395
2.17953
2.15551
2.13187
2.10861
2.08571
2.06317
2.04098
2.01913
1.99761
1.97641
1.95553
1.93495
1.91467
1.89467
1.87496
1.85551
1.83633
1.81739
1.79871
1.78025
1.76203
1.74401
1.7262
1.70859
1.69114
1.67386
1.65671
1.63967
1.62266
1.6056
1.5884
1.57098
1.55328
1.53523
1.51681
1.49805
2.71954
2.68676
2.6545
2.62276
2.59154
2.56082
2.53061
2.50089
2.47165
2.4429
2.41461
2.38679
2.35942
2.3325
2.30602
2.27997
2.25435
2.22914
2.20435
2.17995
2.15594
2.13231
2.10906
2.08617
2.06364
2.04146
2.01961
1.9981
1.97691
1.95603
1.93545
1.91517
1.89518
1.87547
1.85602
1.83684
1.8179
1.79921
1.78076
1.76252
1.7445
1.72668
1.70905
1.69158
1.67427
1.65708
1.63997
1.62287
1.60569
1.58837
1.57086
1.55309
1.53503
1.51666
1.49801
2.71958
2.68682
2.65458
2.62286
2.59166
2.56097
2.53078
2.50108
2.47186
2.44313
2.41486
2.38706
2.35971
2.33281
2.30635
2.28032
2.25471
2.22952
2.20474
2.18035
2.15635
2.13274
2.10949
2.08662
2.06409
2.04192
2.02008
1.99857
1.97738
1.9565
1.93593
1.91565
1.89566
1.87594
1.8565
1.83731
1.81837
1.79968
1.78121
1.76297
1.74494
1.7271
1.70945
1.69196
1.67461
1.65737
1.64018
1.62297
1.60568
1.58826
1.57067
1.55285
1.53479
1.51647
1.49792
2.71963
2.68689
2.65467
2.62298
2.5918
2.56112
2.53095
2.50127
2.47208
2.44336
2.41512
2.38733
2.36
2.33312
2.30668
2.28066
2.25507
2.22989
2.20512
2.18074
2.15676
2.13315
2.10992
2.08705
2.06453
2.04236
2.02052
1.99902
1.97783
1.95695
1.93638
1.9161
1.89611
1.87639
1.85694
1.83775
1.8188
1.8001
1.78163
1.76337
1.74532
1.72746
1.70978
1.69226
1.67488
1.65757
1.64029
1.62298
1.60559
1.58808
1.57043
1.55258
1.53453
1.51626
1.49781
2.7197
2.68697
2.65477
2.6231
2.59194
2.56129
2.53114
2.50148
2.4723
2.4436
2.41538
2.38761
2.3603
2.33343
2.307
2.281
2.25542
2.23026
2.2055
2.18113
2.15715
2.13355
2.11033
2.08746
2.06495
2.04278
2.02095
1.99944
1.97826
1.95738
1.9368
1.91652
1.89653
1.8768
1.85735
1.83815
1.8192
1.80048
1.78199
1.76372
1.74565
1.72777
1.71007
1.69251
1.67507
1.65768
1.64031
1.6229
1.60542
1.58785
1.57015
1.55228
1.53424
1.51603
1.49768
2.71978
2.68707
2.65489
2.62323
2.59209
2.56146
2.53133
2.50169
2.47253
2.44385
2.41564
2.38789
2.36059
2.33374
2.30732
2.28134
2.25577
2.23062
2.20586
2.18151
2.15754
2.13395
2.11072
2.08786
2.06535
2.04318
2.02135
1.99985
1.97866
1.95778
1.9372
1.91692
1.89691
1.87719
1.85772
1.83851
1.81955
1.80082
1.78232
1.76403
1.74594
1.72804
1.7103
1.69269
1.67518
1.65771
1.64025
1.62276
1.60521
1.58758
1.56984
1.55197
1.53395
1.5158
1.49753
2.71987
2.68718
2.65502
2.62338
2.59226
2.56164
2.53153
2.5019
2.47276
2.4441
2.4159
2.38817
2.36089
2.33405
2.30765
2.28167
2.25611
2.23097
2.20622
2.18187
2.15791
2.13432
2.1111
2.08824
2.06574
2.04357
2.02174
2.00023
1.97904
1.95816
1.93758
1.91729
1.89728
1.87754
1.85806
1.83884
1.81987
1.80113
1.78261
1.7643
1.74618
1.72825
1.71047
1.69281
1.67522
1.65767
1.64012
1.62256
1.60495
1.58728
1.56951
1.55164
1.53365
1.51555
1.49736
2.71997
2.6873
2.65515
2.62354
2.59243
2.56183
2.53173
2.50213
2.473
2.44435
2.41617
2.38845
2.36118
2.33436
2.30796
2.282
2.25645
2.23131
2.20658
2.18223
2.15827
2.13469
2.11147
2.08861
2.06611
2.04394
2.02211
2.0006
1.9794
1.95852
1.93793
1.91763
1.89761
1.87786
1.85838
1.83915
1.82016
1.8014
1.78286
1.76453
1.74639
1.72842
1.71059
1.69286
1.67519
1.65756
1.63995
1.62232
1.60467
1.58696
1.56917
1.5513
1.53334
1.5153
1.49719
2.72008
2.68743
2.6553
2.6237
2.59261
2.56203
2.53195
2.50236
2.47325
2.44461
2.41645
2.38874
2.36148
2.33466
2.30828
2.28232
2.25678
2.23165
2.20692
2.18258
2.15863
2.13504
2.11183
2.08897
2.06646
2.04429
2.02246
2.00094
1.97974
1.95885
1.93826
1.91795
1.89792
1.87816
1.85866
1.83942
1.82041
1.80163
1.78308
1.76472
1.74655
1.72854
1.71065
1.69285
1.67511
1.65741
1.63973
1.62206
1.60436
1.58662
1.56883
1.55096
1.53304
1.51505
1.49701
2.72021
2.68757
2.65546
2.62388
2.5928
2.56224
2.53217
2.50259
2.4735
2.44487
2.41672
2.38902
2.36177
2.33497
2.30859
2.28264
2.25711
2.23199
2.20726
2.18292
2.15897
2.13539
2.11217
2.08931
2.0668
2.04463
2.02279
2.00127
1.98007
1.95917
1.93856
1.91825
1.89821
1.87844
1.85893
1.83966
1.82064
1.80184
1.78326
1.76488
1.74667
1.72861
1.71065
1.69278
1.67498
1.65722
1.63949
1.62177
1.60403
1.58627
1.56847
1.55062
1.53273
1.5148
1.49684
2.72035
2.68772
2.65563
2.62406
2.593
2.56245
2.5324
2.50283
2.47375
2.44514
2.417
2.38931
2.36207
2.33527
2.30891
2.28296
2.25744
2.23231
2.20759
2.18326
2.1593
2.13572
2.11251
2.08965
2.06713
2.04496
2.02311
2.00159
1.98037
1.95947
1.93885
1.91852
1.89847
1.87869
1.85916
1.83989
1.82084
1.80203
1.78342
1.765
1.74675
1.72862
1.7106
1.69267
1.67481
1.65699
1.63922
1.62145
1.60369
1.58592
1.56812
1.55029
1.53243
1.51455
1.49665
2.7205
2.68789
2.65581
2.62425
2.59321
2.56267
2.53263
2.50308
2.47401
2.44541
2.41728
2.3896
2.36237
2.33558
2.30922
2.28328
2.25776
2.23264
2.20792
2.18358
2.15963
2.13605
2.11283
2.08997
2.06745
2.04527
2.02342
2.00189
1.98067
1.95975
1.93912
1.91878
1.89872
1.87892
1.85938
1.84009
1.82103
1.80219
1.78355
1.76509
1.74678
1.72859
1.71051
1.69252
1.6746
1.65674
1.63892
1.62113
1.60334
1.58555
1.56776
1.54995
1.53212
1.51429
1.49647
2.72066
2.68807
2.656
2.62446
2.59343
2.5629
2.53287
2.50333
2.47427
2.44569
2.41756
2.38989
2.36267
2.33588
2.30953
2.2836
2.25808
2.23296
2.20824
2.18391
2.15995
2.13637
2.11315
2.09028
2.06776
2.04557
2.02371
2.00217
1.98094