/*--------------------------------*- C++ -*----------------------------------*\
  =========                 |
  \\      /  F ield         | OpenFOAM: The Open Source CFD Toolbox
   \\    /   O peration     | Website:  https://openfoam.org
    \\  /    A nd           | Version:  10
     \\/     M anipulation  |
\*---------------------------------------------------------------------------*/
FoamFile
{
    format      ascii;
    class       volVectorField;
    location    "42000";
    object      Urel;
}
// * * * * * * * * * * * * * * * * * * * * * * * * * * * * * * * * * * * * * //

dimensions      [0 1 -1 0 0 0 0];

internalField   nonuniform List<vector> 
17981
(
(0.133183 -0.350176 1.05787e-21)
(0.129906 -0.360544 -1.05768e-21)
(0.126695 -0.370774 0)
(0.123546 -0.380887 -6.64961e-21)
(0.120461 -0.390904 1.45979e-20)
(0.117441 -0.400842 -7.88451e-21)
(0.114491 -0.410712 0)
(0.111613 -0.420524 6.78335e-22)
(0.108809 -0.430284 0)
(0.106081 -0.439996 0)
(0.10343 -0.449661 -8.26158e-22)
(0.100859 -0.459276 1.52377e-20)
(0.0983671 -0.468839 -1.37738e-20)
(0.0959558 -0.478347 0)
(0.0936251 -0.487793 0)
(0.0913746 -0.497173 0)
(0.089204 -0.50648 0)
(0.0871123 -0.515708 -1.55091e-20)
(0.0850984 -0.524851 1.48514e-20)
(0.083161 -0.533903 3.08487e-20)
(0.0812987 -0.542857 -2.90886e-20)
(0.0795097 -0.551708 -4.65988e-22)
(0.0777923 -0.560451 0)
(0.0761444 -0.569081 0)
(0.0745641 -0.577593 2.93825e-20)
(0.0730494 -0.585984 -2.77633e-20)
(0.0715981 -0.59425 2.85444e-20)
(0.0702081 -0.602388 -2.74281e-20)
(0.0688773 -0.610395 -4.26272e-22)
(0.0676035 -0.618269 0)
(0.0663845 -0.626008 2.05932e-22)
(0.0652184 -0.63361 -2.02214e-22)
(0.064103 -0.641075 -1.98444e-22)
(0.0630363 -0.648402 2.496e-20)
(0.0620163 -0.65559 -2.40452e-20)
(0.0610411 -0.662639 -1.86965e-22)
(0.0601087 -0.669548 0)
(0.0592174 -0.67632 0)
(0.0583654 -0.682953 1.75473e-22)
(0.0575509 -0.689449 -2.2305e-20)
(0.0567724 -0.69581 -1.08865e-22)
(0.0560282 -0.702035 2.07301e-20)
(0.0553167 -0.708127 8.02469e-23)
(0.0546366 -0.714087 0)
(0.0539863 -0.719916 0)
(0.0533646 -0.725617 0)
(0.05277 -0.731192 0)
(0.0522015 -0.736641 -1.85569e-20)
(0.150515 -0.333576 -6.41605e-21)
(0.147086 -0.343695 0)
(0.143725 -0.35369 -1.84476e-20)
(0.140436 -0.363586 4.52651e-20)
(0.137222 -0.373406 -2.56441e-20)
(0.134085 -0.383167 3.86133e-20)
(0.131028 -0.392884 -3.72042e-20)
(0.128056 -0.402567 6.75613e-22)
(0.125169 -0.412224 1.50797e-21)
(0.12237 -0.421857 -5.46281e-20)
(0.119661 -0.431466 1.0868e-19)
(0.117043 -0.441051 -5.56372e-20)
(0.114515 -0.450607 0)
(0.11208 -0.46013 1.86872e-21)
(0.109735 -0.469612 -6.29386e-20)
(0.107481 -0.479046 6.02062e-20)
(0.105316 -0.488426 6.38574e-20)
(0.103239 -0.497743 -6.11025e-20)
(0.101249 -0.50699 9.74226e-22)
(0.0993428 -0.516159 0)
(0.0975194 -0.525242 -4.86307e-22)
(0.0957762 -0.534234 6.3205e-20)
(0.0941109 -0.543126 -5.91736e-20)
(0.0925211 -0.551914 6.23519e-20)
(0.0910041 -0.560592 -1.19558e-19)
(0.0895575 -0.569154 5.7746e-20)
(0.0881788 -0.577596 -5.89248e-20)
(0.0868652 -0.585914 5.66157e-20)
(0.0856143 -0.594105 4.41203e-22)
(0.0844235 -0.602165 0)
(0.0832904 -0.610093 2.12236e-22)
(0.0822124 -0.617885 2.09291e-22)
(0.0811872 -0.625541 -5.28191e-20)
(0.0802124 -0.633058 5.12739e-20)
(0.0792858 -0.640436 -5.91945e-22)
(0.0784052 -0.647674 5.01075e-20)
(0.0775683 -0.654773 -4.81265e-20)
(0.0767732 -0.661731 0)
(0.0760179 -0.66855 4.66355e-20)
(0.0753004 -0.67523 -9.04467e-20)
(0.074619 -0.681771 4.3689e-20)
(0.0739718 -0.688175 -4.36167e-20)
(0.0733572 -0.694442 -7.5565e-22)
(0.0727736 -0.700575 4.11835e-20)
(0.0722193 -0.706575 0)
(0.0716931 -0.712442 0)
(0.0711933 -0.71818 1.5144e-22)
(0.0707188 -0.72379 -7.50446e-23)
(0.166336 -0.315326 0)
(0.162705 -0.325209 1.01799e-20)
(0.159155 -0.334982 -1.08248e-20)
(0.155688 -0.344676 2.62533e-20)
(0.152309 -0.354313 -2.71392e-20)
(0.149021 -0.363916 -2.1724e-21)
(0.145828 -0.373498 0)
(0.142733 -0.383073 -1.44862e-21)
(0.139738 -0.392648 -4.65464e-21)
(0.136846 -0.402224 0)
(0.134058 -0.411804 1.76845e-21)
(0.131374 -0.421384 3.62799e-21)
(0.128795 -0.43096 0)
(0.126321 -0.440524 -2.14545e-23)
(0.123951 -0.45007 1.95432e-21)
(0.121684 -0.459587 0)
(0.119517 -0.469068 1.31411e-19)
(0.11745 -0.478503 -1.23674e-19)
(0.115479 -0.487882 -1.32512e-19)
(0.113602 -0.497197 1.25858e-19)
(0.111816 -0.506438 -1.99196e-21)
(0.110119 -0.515597 0)
(0.108507 -0.524667 9.76969e-22)
(0.106977 -0.53364 -9.75514e-22)
(0.105526 -0.542509 9.60632e-22)
(0.104152 -0.551268 -1.22345e-19)
(0.10285 -0.559912 1.18403e-19)
(0.101618 -0.568435 -9.22031e-22)
(0.100453 -0.576834 0)
(0.099352 -0.585105 1.14805e-19)
(0.0983115 -0.593244 2.78462e-21)
(0.097329 -0.601248 -1.10262e-19)
(0.0964015 -0.609116 0)
(0.0955265 -0.616845 0)
(0.0947014 -0.624434 -1.05678e-19)
(0.0939236 -0.631882 1.02279e-19)
(0.0931906 -0.639188 -3.91377e-22)
(0.0925002 -0.646352 0)
(0.0918502 -0.653374 3.75359e-22)
(0.0912384 -0.660254 -3.6771e-22)
(0.0906627 -0.666993 -9.26668e-20)
(0.0901213 -0.673592 8.94922e-20)
(0.0896121 -0.680051 1.72047e-22)
(0.0891336 -0.686372 -1.68027e-22)
(0.088684 -0.692556 -3.28627e-22)
(0.0882616 -0.698605 0)
(0.0878651 -0.70452 -1.56913e-22)
(0.0874928 -0.710304 -7.99894e-20)
(0.165677 -0.333695 -1.64952e-21)
(0.162207 -0.343158 2.27505e-21)
(0.158848 -0.352627 9.0051e-20)
(0.155604 -0.362117 -1.86008e-19)
(0.152476 -0.371633 9.86477e-20)
(0.149469 -0.38118 -3.36628e-21)
(0.146582 -0.390758 1.16587e-19)
(0.143817 -0.400362 -1.18574e-19)
(0.141173 -0.409987 0)
(0.13865 -0.419624 -1.99048e-21)
(0.136245 -0.429264 1.30834e-19)
(0.133957 -0.438897 -1.26921e-19)
(0.131784 -0.448511 -1.30853e-19)
(0.129722 -0.458095 -1.03681e-20)
(0.127769 -0.467638 1.29331e-19)
(0.12592 -0.47713 -1.34649e-19)
(0.124173 -0.48656 1.28906e-19)
(0.122524 -0.495918 0)
(0.120969 -0.505194 1.29598e-19)
(0.119504 -0.514381 -2.56414e-19)
(0.118126 -0.523471 1.21945e-19)
(0.116829 -0.532455 1.25963e-19)
(0.115612 -0.541328 -1.19984e-19)
(0.114469 -0.550083 -9.47167e-22)
(0.113398 -0.558716 -1.21291e-19)
(0.112395 -0.567222 -7.74544e-22)
(0.111456 -0.575597 -4.25537e-21)
(0.110578 -0.583837 1.14612e-19)
(0.109758 -0.59194 1.12989e-19)
(0.108992 -0.599902 -2.19704e-19)
(0.108278 -0.607724 1.07677e-19)
(0.107613 -0.615402 -1.0654e-19)
(0.106994 -0.622936 1.03159e-19)
(0.106418 -0.630325 -1.02232e-19)
(0.105884 -0.637569 -2.59112e-21)
(0.105387 -0.644668 9.66258e-20)
(0.104927 -0.651622 1.11581e-21)
(0.104502 -0.658432 -9.33915e-20)
(0.104108 -0.665099 9.02272e-20)
(0.103744 -0.671624 3.48201e-22)
(0.103409 -0.678007 3.40401e-22)
(0.1031 -0.684252 8.5276e-20)
(0.102815 -0.690358 -8.27866e-20)
(0.102555 -0.696328 0)
(0.17725 -0.311634 -4.47577e-20)
(0.173563 -0.32098 -4.34188e-21)
(0.170007 -0.330361 0)
(0.166585 -0.339791 1.01153e-19)
(0.1633 -0.349279 -9.67453e-20)
(0.160156 -0.358828 6.9252e-21)
(0.157152 -0.368437 7.31933e-21)
(0.15429 -0.3781 0)
(0.151568 -0.387811 0)
(0.148985 -0.397557 -4.02431e-21)
(0.146539 -0.40733 0)
(0.144226 -0.417114 0)
(0.142043 -0.426899 -4.23084e-21)
(0.139987 -0.43667 2.12409e-21)
(0.138053 -0.446414 -1.38619e-19)
(0.136237 -0.456119 1.32597e-19)
(0.134533 -0.465773 -1.35345e-19)
(0.132939 -0.475364 1.31641e-19)
(0.131448 -0.484882 2.07347e-21)
(0.130056 -0.494316 0)
(0.128758 -0.503657 -1.32279e-19)
(0.12755 -0.512898 -5.61817e-21)
(0.126427 -0.52203 -5.35077e-21)
(0.125385 -0.531046 1.25727e-19)
(0.124419 -0.539941 -1.2493e-19)
(0.123526 -0.548709 -3.67528e-21)
(0.1227 -0.557346 1.2108e-19)
(0.121939 -0.565847 -1.19625e-19)
(0.121239 -0.574209 1.14342e-19)
(0.120595 -0.582429 0)
(0.120005 -0.590505 1.12215e-19)
(0.119466 -0.598435 -1.09921e-19)
(0.118973 -0.606218 0)
(0.118525 -0.613852 8.18864e-22)
(0.118118 -0.621337 8.02951e-22)
(0.11775 -0.628673 7.85789e-22)
(0.117418 -0.635861 9.83885e-20)
(0.11712 -0.642899 -1.93953e-19)
(0.116854 -0.64979 9.48667e-20)
(0.116617 -0.656535 0)
(0.116407 -0.663133 0)
(0.116223 -0.669587 8.90416e-20)
(0.116063 -0.675899 -8.57913e-20)
(0.115924 -0.68207 0)
(0.186959 -0.288183 -4.66372e-20)
(0.183019 -0.297435 -7.47473e-20)
(0.179233 -0.306756 1.67606e-19)
(0.175604 -0.31616 -8.76707e-20)
(0.172137 -0.325655 -1.11336e-19)
(0.168835 -0.335244 1.02678e-19)
(0.165698 -0.344924 -3.75801e-21)
(0.162726 -0.354689 0)
(0.159917 -0.364527 -1.3386e-19)
(0.157269 -0.374428 2.6867e-19)
(0.154779 -0.384376 8.53291e-21)
(0.152441 -0.394357 -1.32718e-19)
(0.150252 -0.404355 -4.29048e-21)
(0.148206 -0.414355 -1.41998e-19)
(0.146297 -0.424342 1.35725e-19)
(0.144521 -0.434301 -1.4164e-19)
(0.142871 -0.444218 -5.40428e-21)
(0.141341 -0.454081 1.34995e-19)
(0.139926 -0.463876 -6.3938e-21)
(0.138619 -0.473593 0)
(0.137416 -0.483222 7.82726e-24)
(0.13631 -0.492751 2.07203e-21)
(0.135296 -0.502174 1.32476e-19)
(0.134369 -0.511482 3.25959e-21)
(0.133524 -0.520669 -2.54217e-19)
(0.132755 -0.529728 1.2181e-19)
(0.132059 -0.538654 -3.84988e-21)
(0.13143 -0.547442 0)
(0.130865 -0.556088 -2.4047e-19)
(0.130359 -0.56459 2.3179e-19)
(0.129909 -0.572944 0)
(0.12951 -0.581148 8.80998e-22)
(0.129159 -0.5892 2.22863e-19)
(0.128854 -0.5971 -2.15975e-19)
(0.12859 -0.604846 0)
(0.128364 -0.612438 -8.13426e-22)
(0.128175 -0.619876 7.96214e-22)
(0.128019 -0.627161 7.79946e-22)
(0.127894 -0.634292 -1.97341e-19)
(0.127797 -0.641272 1.90065e-19)
(0.127727 -0.6481 -7.30522e-22)
(0.127681 -0.654779 -1.84611e-19)
(0.127657 -0.661309 1.77915e-19)
(0.127654 -0.667693 0)
(0.190449 -0.272579 -4.24222e-21)
(0.186398 -0.281877 -5.11494e-21)
(0.182535 -0.291296 0)
(0.178864 -0.300845 -6.50087e-21)
(0.175388 -0.310524 -7.0355e-21)
(0.172106 -0.320327 0)
(0.169018 -0.330245 -1.32197e-19)
(0.16612 -0.340265 1.25932e-19)
(0.163408 -0.350372 0)
(0.160878 -0.360548 -2.83815e-19)
(0.158523 -0.370776 2.75052e-19)
(0.156337 -0.381038 4.42078e-21)
(0.154312 -0.391316 0)
(0.152443 -0.401592 0)
(0.150722 -0.411851 -4.42323e-21)
(0.149141 -0.422075 0)
(0.147693 -0.432251 2.87091e-19)
(0.146372 -0.442365 -5.59998e-19)
(0.145169 -0.452403 5.55429e-19)
(0.144079 -0.462355 -2.68703e-19)
(0.143095 -0.472209 0)
(0.14221 -0.481957 2.70372e-19)
(0.141417 -0.491589 -2.61967e-19)
(0.140712 -0.501097 0)
(0.140089 -0.510476 2.62846e-19)
(0.139542 -0.519719 -5.05862e-19)
(0.139065 -0.528821 2.45337e-19)
(0.138655 -0.537777 -2.48115e-19)
(0.138306 -0.546584 2.37355e-19)
(0.138014 -0.555239 -2.39316e-19)
(0.137774 -0.563739 2.30931e-19)
(0.137584 -0.572082 0)
(0.137439 -0.580267 2.24173e-19)
(0.137335 -0.588293 -2.18222e-19)
(0.13727 -0.596159 0)
(0.137241 -0.603866 -2.13372e-19)
(0.137243 -0.611413 2.06277e-19)
(0.137276 -0.618801 -7.90894e-22)
(0.137335 -0.62603 -1.99386e-19)
(0.13742 -0.633103 3.8795e-19)
(0.137527 -0.640019 -1.88002e-19)
(0.137654 -0.646782 1.87305e-19)
(0.1378 -0.653392 1.84081e-21)
(0.187217 -0.265283 -5.86371e-21)
(0.183331 -0.274946 1.94932e-22)
(0.179677 -0.284778 7.27257e-21)
(0.176252 -0.294768 0)
(0.173053 -0.304904 -2.76328e-19)
(0.170076 -0.315169 5.24368e-19)
(0.167314 -0.325544 2.00276e-20)
(0.16476 -0.336009 1.85074e-20)
(0.162406 -0.346542 -2.88999e-19)
(0.160243 -0.357123 -4.46902e-21)
(0.158263 -0.367732 0)
(0.156456 -0.378349 -2.97091e-19)
(0.154813 -0.388955 -8.04352e-21)
(0.153326 -0.399533 2.88593e-19)
(0.151986 -0.410066 0)
(0.150784 -0.420539 2.07529e-23)
(0.149711 -0.430938 4.44301e-21)
(0.14876 -0.441251 -4.40463e-21)
(0.147923 -0.451465 0)
(0.147192 -0.461571 2.78064e-19)
(0.14656 -0.471559 -2.69516e-19)
(0.14602 -0.48142 0)
(0.145566 -0.491148 2.07361e-21)
(0.145192 -0.500736 2.64661e-19)
(0.144891 -0.510177 -2.51051e-19)
(0.144659 -0.519468 0)
(0.144489 -0.528604 2.51761e-19)
(0.144378 -0.537582 -2.42944e-19)
(0.14432 -0.546399 1.88045e-21)
(0.144311 -0.555053 0)
(0.144347 -0.563542 1.81362e-21)
(0.144425 -0.571866 0)
(0.144539 -0.580023 -2.24821e-19)
(0.144689 -0.588014 4.37674e-19)
(0.144869 -0.595839 -4.28887e-19)
(0.145077 -0.603498 2.10407e-19)
(0.145311 -0.610991 0)
(0.145567 -0.618321 7.8674e-22)
(0.145844 -0.625488 -1.98183e-19)
(0.146139 -0.632495 3.84964e-19)
(0.14645 -0.639342 -1.90432e-19)
(0.185362 -0.248128 -2.21685e-19)
(0.181545 -0.25819 2.09936e-19)
(0.177998 -0.268443 0)
(0.174714 -0.278871 8.18721e-21)
(0.171685 -0.289452 1.33184e-22)
(0.168902 -0.300163 0)
(0.166355 -0.310981 0)
(0.164034 -0.321882 1.80836e-20)
(0.161928 -0.332841 4.59667e-21)
(0.160024 -0.343836 4.59282e-21)
(0.158313 -0.354846 0)
(0.156783 -0.365849 -3.0351e-19)
(0.155424 -0.376827 2.85964e-19)
(0.154224 -0.387761 3.01427e-19)
(0.153173 -0.398634 -2.84467e-19)
(0.152263 -0.409433 -4.57809e-21)
(0.151482 -0.420143 4.54042e-21)
(0.150824 -0.430751 0)
(0.150277 -0.441247 4.44964e-21)
(0.149835 -0.45162 2.84771e-19)
(0.149491 -0.461862 -2.74179e-19)
(0.149234 -0.471964 -2.81423e-19)
(0.149061 -0.48192 2.69217e-19)
(0.148964 -0.491724 -4.1582e-21)
(0.148937 -0.501371 0)
(0.148974 -0.510857 4.02881e-21)
(0.149069 -0.520178 2.57843e-19)
(0.149218 -0.529331 -2.49052e-19)
(0.149415 -0.538314 2.46874e-19)
(0.149657 -0.547124 -4.80912e-19)
(0.149938 -0.555762 2.34258e-19)
(0.150256 -0.564225 -2.33217e-19)
(0.150606 -0.572515 2.25563e-19)
(0.150984 -0.58063 -8.69867e-22)
(0.151389 -0.588573 -1.26981e-25)
(0.151817 -0.596342 8.35093e-22)
(0.152264 -0.60394 0)
(0.15273 -0.611369 -8.00867e-22)
(0.15321 -0.618629 0)
(0.153704 -0.625722 7.78294e-22)
(0.17725 -0.241615 0)
(0.173926 -0.252409 8.11532e-21)
(0.170891 -0.263377 8.60682e-21)
(0.168134 -0.274491 0)
(0.165641 -0.285724 -2.99007e-19)
(0.163399 -0.29705 2.75838e-19)
(0.161393 -0.308443 -9.27689e-21)
(0.159612 -0.319876 -4.72345e-21)
(0.15804 -0.331326 -3.10117e-19)
(0.156665 -0.342771 -1.36227e-20)
(0.155475 -0.35419 3.02072e-19)
(0.154456 -0.365565 0)
(0.153597 -0.376877 -3.07332e-19)
(0.152888 -0.38811 -1.01623e-20)
(0.152316 -0.39925 6.00774e-19)
(0.151872 -0.410283 -2.91157e-19)
(0.151547 -0.421198 -2.96845e-19)
(0.15133 -0.431985 5.74732e-19)
(0.151215 -0.442635 -2.8716e-19)
(0.151192 -0.453139 -2.20193e-21)
(0.151253 -0.463489 -2.18136e-21)
(0.151391 -0.473679 -2.73671e-19)
(0.1516 -0.483704 -5.46002e-21)
(0.151872 -0.493559 2.62226e-19)
(0.152203 -0.503241 -2.05288e-21)
(0.152586 -0.512746 0)
(0.153016 -0.522073 -1.98316e-21)
(0.153489 -0.531219 0)
(0.153999 -0.540183 0)
(0.154543 -0.548965 0)
(0.155117 -0.557564 1.84389e-21)
(0.155716 -0.565981 0)
(0.156339 -0.574216 -8.86881e-22)
(0.156981 -0.582271 -2.07059e-26)
(0.15764 -0.590146 -8.51758e-22)
(0.158313 -0.597843 2.16425e-19)
(0.158997 -0.605363 -2.08033e-19)
(0.159692 -0.61271 2.08767e-19)
(0.162679 -0.260545 3.03784e-19)
(0.160574 -0.272349 -2.80382e-19)
(0.158727 -0.284223 9.53973e-21)
(0.157121 -0.296139 0)
(0.155742 -0.308072 -3.16889e-19)
(0.154574 -0.319998 3.03412e-19)
(0.153602 -0.331896 -2.88601e-23)
(0.152813 -0.343744 4.84177e-21)
(0.152192 -0.355526 0)
(0.151728 -0.367223 -4.80923e-21)
(0.151408 -0.378821 -4.79915e-21)
(0.151222 -0.390307 -3.08905e-19)
(0.151157 -0.401667 2.97404e-19)
(0.151205 -0.412891 4.67439e-21)
(0.151354 -0.423968 1.05288e-23)
(0.151597 -0.43489 3.0021e-19)
(0.151925 -0.44565 -2.85254e-19)
(0.15233 -0.456241 -2.22597e-21)
(0.152805 -0.466658 -2.19184e-21)
(0.153342 -0.476896 0)
(0.153936 -0.486951 2.74946e-19)
(0.154581 -0.496821 -2.65804e-19)
(0.15527 -0.506502 2.6597e-19)
(0.155999 -0.515994 -2.59303e-19)
(0.156763 -0.525295 -2.56779e-19)
(0.157557 -0.534405 2.50471e-19)
(0.158377 -0.543322 -1.92035e-21)
(0.15922 -0.552049 -2.40914e-19)
(0.160082 -0.560584 2.33284e-19)
(0.160959 -0.56893 -2.32548e-19)
(0.161849 -0.577088 2.27939e-19)
(0.162749 -0.585059 2.23291e-19)
(0.163656 -0.592845 -2.18077e-19)
(0.164569 -0.60045 -8.47485e-22)
(0.157578 -0.235748 0)
(0.155672 -0.248074 -1.07507e-22)
(0.154042 -0.26047 3.18801e-19)
(0.15267 -0.272906 -3.1453e-19)
(0.151539 -0.285356 0)
(0.150629 -0.297794 -9.89804e-21)
(0.149927 -0.310199 4.93505e-21)
(0.149415 -0.322548 3.25211e-19)
(0.149079 -0.334822 1.18689e-20)
(0.148904 -0.347005 -3.06811e-19)
(0.148879 -0.359081 -3.15974e-19)
(0.14899 -0.371034 3.08957e-19)
(0.149225 -0.382853 3.15864e-19)
(0.149573 -0.394527 -2.99673e-19)
(0.150025 -0.406046 3.14353e-19)
(0.15057 -0.4174 -3.03462e-19)
(0.1512 -0.428583 -4.66624e-21)
(0.151905 -0.439587 2.98391e-19)
(0.152679 -0.450408 -5.75817e-19)
(0.153513 -0.46104 -7.84338e-21)
(0.154401 -0.471479 2.80519e-19)
(0.155336 -0.481723 -2.81332e-19)
(0.156312 -0.491768 2.74355e-19)
(0.157325 -0.501614 -2.70122e-19)
(0.158368 -0.511259 5.31134e-19)
(0.159438 -0.520702 -2.5911e-19)
(0.160529 -0.529944 0)
(0.161638 -0.538985 -1.96724e-21)
(0.162761 -0.547826 1.93084e-21)
(0.163895 -0.556467 -3.78877e-21)
(0.165037 -0.564911 -2.40131e-19)
(0.166183 -0.57316 2.33679e-19)
(0.167332 -0.581215 1.7853e-21)
(0.168481 -0.589079 0)
(0.150529 -0.211609 -2.91106e-19)
(0.148889 -0.224488 3.10479e-19)
(0.14754 -0.237434 -6.41033e-19)
(0.146462 -0.250416 3.21191e-19)
(0.145634 -0.263407 -1.00672e-20)
(0.145039 -0.276379 -3.2319e-19)
(0.144657 -0.28931 3.0968e-19)
(0.144472 -0.302178 3.29236e-19)
(0.144468 -0.314963 -3.26544e-19)
(0.144629 -0.327647 3.27639e-19)
(0.144942 -0.340215 -3.25465e-19)
(0.145392 -0.352652 0)
(0.145967 -0.364945 -5.02358e-21)
(0.146656 -0.377082 3.18887e-19)
(0.147447 -0.389054 -6.33416e-19)
(0.14833 -0.400851 3.09802e-19)
(0.149296 -0.412466 8.40294e-24)
(0.150334 -0.423892 0)
(0.151438 -0.435123 -9.46688e-21)
(0.152598 -0.446155 3.04269e-19)
(0.153808 -0.456983 -5.89789e-19)
(0.155062 -0.467606 2.88082e-19)
(0.156352 -0.478019 0)
(0.157673 -0.488223 0)
(0.15902 -0.498215 -2.79486e-19)
(0.160388 -0.507995 5.43393e-19)
(0.161772 -0.517564 -2.66237e-19)
(0.163168 -0.526921 2.65185e-19)
(0.164573 -0.536068 -2.57044e-19)
(0.165983 -0.545006 -1.1156e-26)
(0.167395 -0.553738 -2.50651e-19)
(0.168806 -0.562264 2.41143e-19)
(0.170214 -0.570587 -9.3609e-22)
(0.171615 -0.57871 -2.39546e-19)
(0.141781 -0.18839 9.53874e-21)
(0.140474 -0.201841 0)
(0.13947 -0.215354 1.01202e-20)
(0.138746 -0.228897 0)
(0.13828 -0.24244 3.50474e-19)
(0.138052 -0.255957 -3.36672e-19)
(0.138043 -0.269425 0)
(0.138234 -0.28282 1.05161e-20)
(0.138608 -0.296123 3.49599e-19)
(0.139148 -0.309316 -3.26234e-19)
(0.139841 -0.322383 -5.25204e-21)
(0.14067 -0.335308 5.2324e-21)
(0.141623 -0.348079 3.4377e-19)
(0.142688 -0.360683 -6.62867e-19)
(0.143852 -0.373112 3.24575e-19)
(0.145105 -0.385355 3.40202e-19)
(0.146436 -0.397405 -3.14009e-19)
(0.147837 -0.409255 -3.22921e-19)
(0.149298 -0.420899 6.41353e-19)
(0.150811 -0.432333 -3.08795e-19)
(0.152369 -0.443553 0)
(0.153965 -0.454555 0)
(0.155591 -0.465338 0)
(0.157243 -0.4759 0)
(0.158915 -0.48624 2.26797e-21)
(0.160601 -0.496357 0)
(0.162297 -0.506252 -2.19527e-21)
(0.164 -0.515926 2.80281e-19)
(0.165704 -0.525379 -2.69707e-19)
(0.167407 -0.534613 1.90762e-26)
(0.169105 -0.543631 -2.63278e-19)
(0.170796 -0.552433 2.55398e-19)
(0.172476 -0.561023 1.96855e-21)
(0.174144 -0.569404 0)
(0.130724 -0.180333 3.10595e-19)
(0.130124 -0.194416 -3.4003e-19)
(0.129809 -0.208522 6.71041e-19)
(0.129758 -0.22262 -3.20588e-19)
(0.129947 -0.236685 1.07829e-20)
(0.130357 -0.25069 0)
(0.130968 -0.264613 -5.84902e-23)
(0.131762 -0.278434 -1.08836e-20)
(0.132721 -0.292135 3.5568e-19)
(0.13383 -0.305699 -3.32106e-19)
(0.135074 -0.319111 -1.77704e-23)
(0.136438 -0.332358 5.40711e-21)
(0.13791 -0.345429 0)
(0.139478 -0.358312 3.46883e-19)
(0.141129 -0.370998 -3.40779e-19)
(0.142854 -0.383481 3.4069e-19)
(0.144642 -0.395752 -6.66913e-19)
(0.146485 -0.407807 3.21291e-19)
(0.148374 -0.41964 5.09373e-21)
(0.150301 -0.431248 0)
(0.152259 -0.442628 0)
(0.154242 -0.453778 -3.16462e-19)
(0.156243 -0.464695 3.06794e-19)
(0.158256 -0.47538 -2.38144e-21)
(0.160278 -0.485831 0)
(0.162302 -0.49605 2.30745e-21)
(0.164325 -0.506036 -2.26952e-21)
(0.166343 -0.515792 0)
(0.168352 -0.525319 2.82345e-19)
(0.170349 -0.534619 -5.49069e-19)
(0.172332 -0.543694 2.69051e-19)
(0.174297 -0.552547 2.64907e-19)
(0.176242 -0.561181 -2.60821e-19)
(0.119984 -0.160101 3.30847e-19)
(0.119838 -0.174746 -3.266e-19)
(0.11998 -0.189407 1.07198e-20)
(0.120388 -0.204054 3.59589e-19)
(0.121037 -0.218658 -3.34614e-19)
(0.121906 -0.233194 -1.11479e-20)
(0.122976 -0.247638 3.56556e-19)
(0.124225 -0.26197 2.5656e-20)
(0.125637 -0.276171 -3.55746e-19)
(0.127195 -0.290224 -1.69831e-20)
(0.128883 -0.304115 -1.13126e-20)
(0.130687 -0.31783 -3.72022e-19)
(0.132592 -0.331358 7.18712e-19)
(0.134587 -0.344687 -7.14695e-19)
(0.136659 -0.357809 3.44926e-19)
(0.138798 -0.370716 -3.56358e-19)
(0.140993 -0.383401 3.45148e-19)
(0.143236 -0.395859 5.39802e-21)
(0.145518 -0.408084 -3.45494e-19)
(0.147831 -0.420074 3.34912e-19)
(0.150167 -0.431824 5.21757e-21)
(0.15252 -0.443334 0)
(0.154884 -0.4546 0)
(0.157253 -0.465624 -3.23231e-19)
(0.159622 -0.476404 3.13627e-19)
(0.161985 -0.48694 3.10937e-19)
(0.16434 -0.497234 -3.04128e-19)
(0.166682 -0.507287 0)
(0.169007 -0.517101 4.62675e-21)
(0.171312 -0.526678 -2.92701e-19)
(0.173595 -0.53602 2.86391e-19)
(0.175853 -0.545131 2.82101e-19)
(0.178084 -0.554013 -2.80047e-19)
(0.108629 -0.141196 3.35384e-19)
(0.108974 -0.156387 0)
(0.109609 -0.171593 -1.11382e-20)
(0.11051 -0.186779 -8.87787e-23)
(0.111651 -0.201914 -1.14926e-20)
(0.113011 -0.216971 3.90844e-19)
(0.114567 -0.231925 -7.47195e-19)
(0.116299 -0.246755 3.79908e-19)
(0.118188 -0.261442 0)
(0.120218 -0.275971 3.84319e-19)
(0.122371 -0.290326 -3.53769e-19)
(0.124633 -0.304494 0)
(0.126989 -0.318464 3.87015e-19)
(0.129428 -0.332225 -7.48116e-19)
(0.131936 -0.345769 7.49649e-19)
(0.134503 -0.359087 8.87185e-21)
(0.137119 -0.372173 -7.32919e-19)
(0.139774 -0.385022 3.5931e-19)
(0.14246 -0.397628 -6.20299e-24)
(0.145169 -0.409989 3.59301e-19)
(0.147893 -0.4221 -3.59584e-19)
(0.150626 -0.433961 0)
(0.153361 -0.445568 0)
(0.156093 -0.456922 -3.4375e-19)
(0.158817 -0.468023 -5.01763e-21)
(0.161528 -0.47887 3.28925e-19)
(0.164221 -0.489464 0)
(0.166893 -0.499808 0)
(0.169541 -0.509902 -2.44765e-21)
(0.17216 -0.51975 -2.40613e-21)
(0.17475 -0.529354 -4.72836e-21)
(0.177306 -0.538716 3.01155e-19)
(0.179827 -0.547841 -5.94289e-19)
(0.097914 -0.139296 3.45133e-19)
(0.0990546 -0.15503 3.77784e-19)
(0.100462 -0.170742 -3.75059e-19)
(0.102113 -0.186395 -3.78049e-19)
(0.103981 -0.20196 3.63763e-19)
(0.106043 -0.21741 0)
(0.108276 -0.232725 -1.22647e-20)
(0.110658 -0.247887 4.00978e-19)
(0.113172 -0.262879 2.63032e-20)
(0.115801 -0.277685 -8.02578e-19)
(0.118531 -0.292291 3.82612e-19)
(0.121346 -0.306687 3.93613e-19)
(0.124234 -0.320863 -3.87337e-19)
(0.127183 -0.334811 0)
(0.130183 -0.348524 -3.93238e-19)
(0.133222 -0.361996 7.71625e-19)
(0.136293 -0.375222 -3.84563e-19)
(0.139387 -0.388196 -5.92988e-21)
(0.142494 -0.400915 0)
(0.145609 -0.413376 5.80789e-21)
(0.148725 -0.425577 0)
(0.151835 -0.437515 0)
(0.154933 -0.449192 -3.58139e-19)
(0.158015 -0.460605 3.53308e-19)
(0.161076 -0.471755 0)
(0.164111 -0.482643 0)
(0.167117 -0.493271 -2.63771e-21)
(0.170091 -0.503641 -3.36897e-19)
(0.173028 -0.513754 3.24729e-19)
(0.175927 -0.523613 9.01978e-26)
(0.178784 -0.533222 -3.19642e-19)
(0.181599 -0.542583 3.15031e-19)
(0.0869552 -0.123293 3.85707e-19)
(0.0885999 -0.139544 -3.5943e-19)
(0.0905108 -0.1558 3.9134e-19)
(0.0926623 -0.172007 -4.13262e-19)
(0.095027 -0.18811 -4.00724e-19)
(0.0975778 -0.204061 3.85119e-19)
(0.100294 -0.219835 0)
(0.10316 -0.235437 0)
(0.106161 -0.250863 -4.21213e-19)
(0.109276 -0.266091 4.07831e-19)
(0.112485 -0.28111 1.94432e-20)
(0.115769 -0.295908 6.46972e-21)
(0.119115 -0.310478 6.45487e-21)
(0.122511 -0.324812 -4.17315e-19)
(0.125946 -0.338904 -1.00147e-20)
(0.129413 -0.352746 4.02692e-19)
(0.132901 -0.366333 4.08863e-19)
(0.136404 -0.379663 -3.9699e-19)
(0.139912 -0.392729 0)
(0.14342 -0.40553 0)
(0.14692 -0.418063 -3.92451e-19)
(0.150407 -0.430325 3.87193e-19)
(0.153874 -0.442317 3.82614e-19)
(0.157317 -0.454037 -7.52042e-19)
(0.16073 -0.465485 3.66676e-19)
(0.16411 -0.476663 -3.66504e-19)
(0.167453 -0.487571 7.19771e-19)
(0.170755 -0.498211 -3.47879e-19)
(0.174013 -0.508586 0)
(0.177224 -0.518698 3.45946e-19)
(0.180386 -0.52855 -6.70839e-19)
(0.183497 -0.538145 3.29852e-19)
(0.0761259 -0.108343 -3.79018e-19)
(0.0782586 -0.124978 -1.2753e-20)
(0.080655 -0.141663 1.3088e-20)
(0.083293 -0.158346 4.37332e-19)
(0.0861487 -0.174971 -4.08219e-19)
(0.0891979 -0.191484 2.7309e-20)
(0.0924171 -0.207837 -4.49119e-19)
(0.0957841 -0.223997 -1.7231e-20)
(0.0992769 -0.23994 4.19947e-19)
(0.102872 -0.255639 1.37553e-20)
(0.106547 -0.27107 -1.3751e-20)
(0.110285 -0.286225 -6.85022e-21)
(0.114081 -0.301129 -6.832e-21)
(0.117927 -0.3158 -6.79731e-21)
(0.121807 -0.330228 0)
(0.125709 -0.344406 0)
(0.129623 -0.358328 -6.68509e-21)
(0.133542 -0.371989 0)
(0.137458 -0.385383 -4.31846e-19)
(0.141364 -0.398507 -1.43082e-20)
(0.145255 -0.411358 8.18984e-19)
(0.149124 -0.423932 -8.22525e-19)
(0.152966 -0.43623 3.99939e-19)
(0.156775 -0.448248 -6.2174e-21)
(0.160546 -0.459988 -3.06711e-21)
(0.164276 -0.471448 0)
(0.167961 -0.482631 3.84012e-19)
(0.171596 -0.493538 -7.51287e-19)
(0.175179 -0.50417 3.6744e-19)
(0.178707 -0.514531 0)
(0.182178 -0.524622 3.622e-19)
(0.185589 -0.534448 -3.5158e-19)
(0.0655173 -0.0945555 -4.28736e-19)
(0.0681531 -0.111499 8.44866e-19)
(0.0710527 -0.128533 -4.28932e-19)
(0.074194 -0.145601 1.41985e-20)
(0.0775522 -0.162645 -4.86929e-19)
(0.0811011 -0.179605 -2.16035e-20)
(0.0848157 -0.196429 9.56788e-19)
(0.0886728 -0.213079 -4.78963e-19)
(0.0926513 -0.229522 4.8344e-19)
(0.0967303 -0.245731 -4.81208e-19)
(0.100891 -0.261679 0)
(0.105114 -0.277343 0)
(0.109381 -0.292707 -7.28979e-21)
(0.113678 -0.307763 4.76811e-19)
(0.11799 -0.322515 -4.54203e-19)
(0.122313 -0.336987 -7.13337e-21)
(0.126644 -0.351203 -4.59127e-19)
(0.130974 -0.36516 4.46184e-19)
(0.135295 -0.378853 -4.37741e-19)
(0.139599 -0.392276 4.46029e-19)
(0.14388 -0.405424 4.49682e-19)
(0.148131 -0.418293 7.36865e-21)
(0.152348 -0.430881 -4.25756e-19)
(0.156524 -0.443186 6.62678e-21)
(0.160655 -0.455205 -4.18254e-19)
(0.164737 -0.46694 4.06638e-19)
(0.168765 -0.478389 -3.1774e-21)
(0.172735 -0.489555 0)
(0.176645 -0.500438 -3.96892e-19)
(0.180492 -0.511041 -4.50815e-21)
(0.184273 -0.521367 -7.2227e-21)
(0.187986 -0.531418 3.7843e-19)
(0.0555265 -0.0818507 4.62914e-19)
(0.0586587 -0.0990087 -4.22321e-19)
(0.062055 -0.116314 1.45502e-20)
(0.0656956 -0.133708 1.49618e-20)
(0.0695562 -0.151122 1.52874e-20)
(0.0736095 -0.168488 4.94284e-19)
(0.0778273 -0.185742 -1.02288e-18)
(0.0821831 -0.202833 5.12539e-19)
(0.0866527 -0.21972 1.59106e-20)
(0.0912132 -0.23637 0)
(0.0958444 -0.252757 -5.3053e-19)
(0.100528 -0.268861 -1.52632e-20)
(0.105248 -0.284666 5.01714e-19)
(0.109989 -0.300159 0)
(0.114739 -0.315332 -4.98892e-19)
(0.119487 -0.330182 4.89947e-19)
(0.124223 -0.344718 1.51162e-20)
(0.128945 -0.358963 4.84919e-19)
(0.133651 -0.372939 2.06977e-21)
(0.138337 -0.386647 -4.60327e-19)
(0.142995 -0.400081 0)
(0.147618 -0.413235 -4.66972e-19)
(0.152199 -0.426105 -7.43411e-21)
(0.156735 -0.438688 4.56079e-19)
(0.161218 -0.450982 -4.43125e-19)
(0.165645 -0.462984 4.41224e-19)
(0.170011 -0.474696 3.39715e-21)
(0.174312 -0.486117 0)
(0.178545 -0.497248 0)
(0.182706 -0.50809 3.24163e-21)
(0.186794 -0.518647 3.18818e-21)
(0.190806 -0.528921 0)
(0.0464513 -0.0701459 4.83282e-19)
(0.0500584 -0.087411 -4.42727e-19)
(0.0539279 -0.104885 4.92047e-19)
(0.0580433 -0.12251 -5.09896e-19)
(0.062382 -0.140214 -9.46956e-23)
(0.0669161 -0.15792 0)
(0.0716159 -0.175552 0)
(0.0764526 -0.193045 5.52326e-19)
(0.0813994 -0.210348 -1.10358e-18)
(0.0864317 -0.22742 5.34045e-19)
(0.0915268 -0.244227 1.69754e-20)
(0.0966642 -0.260744 0)
(0.101826 -0.276953 -5.44293e-19)
(0.106997 -0.292839 -1.43204e-20)
(0.112165 -0.308397 1.0557e-18)
(0.117319 -0.323623 -5.24746e-19)
(0.122452 -0.33852 5.23464e-19)
(0.127557 -0.353096 -4.99222e-19)
(0.132634 -0.367369 0)
(0.137683 -0.381364 -1.5749e-20)
(0.142701 -0.395084 7.80028e-21)
(0.14768 -0.408524 4.98941e-19)
(0.152615 -0.421678 -4.77815e-19)
(0.157497 -0.434541 -7.5641e-21)
(0.162322 -0.44711 -1.49358e-20)
(0.167085 -0.459383 -4.75065e-19)
(0.17178 -0.471358 4.62141e-19)
(0.176404 -0.483036 4.615e-19)
(0.180952 -0.494416 9.06e-21)
(0.185422 -0.5055 -4.45404e-19)
(0.18981 -0.516289 -4.46543e-19)
(0.194114 -0.526787 -4.67019e-21)
(0.0383874 -0.0593978 -2.73807e-19)
(0.0424431 -0.0766581 2.23475e-19)
(0.0467558 -0.0941924 2.66717e-19)
(0.0513152 -0.11195 -2.60647e-19)
(0.0561024 -0.129857 5.49398e-19)
(0.0610903 -0.147829 -5.50728e-19)
(0.0662479 -0.165776 0)
(0.0715434 -0.18362 1.80262e-20)
(0.0769468 -0.201295 5.9197e-19)
(0.0824305 -0.21875 -5.71405e-19)
(0.0879694 -0.235944 0)
(0.0935413 -0.252845 1.80478e-20)
(0.0991274 -0.269432 1.79401e-20)
(0.104711 -0.285689 0)
(0.11028 -0.301608 0)
(0.115824 -0.317185 8.75756e-21)
(0.121335 -0.332422 -1.73208e-20)
(0.126808 -0.347328 5.45977e-19)
(0.132243 -0.361915 -5.29569e-19)
(0.137642 -0.376209 1.24015e-23)
(0.143006 -0.390224 -1.66998e-20)
(0.148329 -0.403957 0)
(0.153604 -0.417401 5.20142e-19)
(0.158823 -0.43055 -5.14183e-19)
(0.163979 -0.443401 8.00487e-21)
(0.169068 -0.455949 -3.94777e-21)
(0.174084 -0.468193 0)
(0.179022 -0.480133 -3.83943e-21)
(0.183878 -0.491767 -2.84389e-24)
(0.188648 -0.503096 -4.75841e-19)
(0.19333 -0.514123 4.66391e-19)
(0.19792 -0.524849 0)
(0.031388 -0.0496141 -3.03328e-20)
(0.0358569 -0.0667342 2.66695e-19)
(0.0405747 -0.0841992 -2.79031e-19)
(0.0455381 -0.101969 3.07983e-19)
(0.0507339 -0.119975 -2.6598e-19)
(0.0561385 -0.138125 -3.06602e-19)
(0.0617204 -0.156317 2.98065e-19)
(0.0674451 -0.174456 -3.53458e-19)
(0.0732786 -0.192458 3.43472e-19)
(0.0791895 -0.210259 1.94261e-20)
(0.0851493 -0.227806 1.94067e-20)
(0.0911335 -0.24506 -3.87204e-20)
(0.0971213 -0.261996 -1.92669e-20)
(0.103096 -0.278595 -6.19281e-19)
(0.109044 -0.294848 1.22037e-18)
(0.114956 -0.310753 -6.01649e-19)
(0.120825 -0.32631 -5.90911e-19)
(0.126648 -0.341529 -1.2654e-20)
(0.132424 -0.356425 5.66977e-19)
(0.138161 -0.371024 9.02615e-21)
(0.143861 -0.385341 8.95249e-21)
(0.149517 -0.399375 0)
(0.155123 -0.413117 -8.77424e-21)
(0.160669 -0.42656 0)
(0.166149 -0.439699 -8.57945e-21)
(0.171556 -0.45253 5.59084e-19)
(0.176884 -0.46505 -1.07062e-18)
(0.182129 -0.477258 5.2438e-19)
(0.187285 -0.489152 5.19135e-19)
(0.192349 -0.500733 -5.12918e-19)
(0.197317 -0.512003 3.93627e-21)
(0.202187 -0.522962 -3.92275e-21)
(0.0254976 -0.0407818 2.74178e-19)