/*--------------------------------*- C++ -*----------------------------------*\
  =========                 |
  \\      /  F ield         | OpenFOAM: The Open Source CFD Toolbox
   \\    /   O peration     | Website:  https://openfoam.org
    \\  /    A nd           | Version:  10
     \\/     M anipulation  |
\*---------------------------------------------------------------------------*/
FoamFile
{
    format      ascii;
    class       volScalarField;
    location    "42000";
    object      yPlus;
}
// * * * * * * * * * * * * * * * * * * * * * * * * * * * * * * * * * * * * * //

dimensions      [0 0 0 0 0 0 0];

internalField   uniform 0;

boundaryField
{
    right
    {
        type            cyclic;
    }
    left
    {
        type            cyclic;
    }
    outerWall
    {
        type            calculated;
        value           nonuniform List<scalar> 0();
    }
    stirrerWall
    {
        type            calculated;
        value           nonuniform List<scalar> 
98
(
1.80049
1.71037
1.62926
1.55714
1.49396
1.43971
1.39448
1.35859
1.33256
1.31812
1.35085
1.40893
1.48713
1.59099
1.72535
1.89967
2.17295
2.71595
4.60943
10.237
16.6508
11.1598
10.0893
10.994
11.3205
11.4062
11.3589
11.4716
11.2242
10.9222
10.6606
10.4477
10.2804
10.1571
10.0717
10.0169
9.98878
9.98539
10.0053
10.0475
10.1111
10.1955
10.3006
10.4264
10.5731
10.7416
10.9324
11.1445
11.3722
11.5518
10.9407
10.9783
11.3171
10.8853
11.2952
11.5927
10.6447
11.2526
11.5165
11.6936
17.6519
17.8726
18.098
18.3271
18.5603
18.7983
19.0412
19.2893
19.5433
19.8034
20.0702
20.3441
20.626
20.9162
21.215
21.5236
21.8442
22.1781
22.5254
22.8872
23.2671
23.6582
24.0731
24.504
24.9777
25.4702
25.9979
26.5776
27.2061
27.8667
28.55
29.3073
30.1919
31.2421
32.4654
33.724
35.1157
36.9472
)
;
    }
    top
    {
        type            empty;
    }
    bottom
    {
        type            empty;
    }
    procBoundary0to1
    {
        type            processor;
        value           uniform 0;
    }
    procBoundary0to3
    {
        type            processor;
        value           uniform 0;
    }
}


// ************************************************************************* //
