/*--------------------------------*- C++ -*----------------------------------*\
  =========                 |
  \\      /  F ield         | OpenFOAM: The Open Source CFD Toolbox
   \\    /   O peration     | Website:  https://openfoam.org
    \\  /    A nd           | Version:  10
     \\/     M anipulation  |
\*---------------------------------------------------------------------------*/
FoamFile
{
    format      ascii;
    class       volScalarField;
    location    "42000";
    object      k;
}
// * * * * * * * * * * * * * * * * * * * * * * * * * * * * * * * * * * * * * //

dimensions      [0 2 -2 0 0 0 0];

internalField   nonuniform List<scalar> 
17969
(
1.02622e-05
0.000257594
0.000719538
0.00136977
0.00205525
0.00281988
0.00373732
0.00486434
0.00625355
0.00796655
0.00988044
0.011777
0.013429
0.0146582
0.01543
0.0158106
0.015916
0.0158673
0.0157741
0.0157103
0.015704
0.0158103
0.0160479
0.016414
0.0168938
0.017467
0.0181123
0.0188087
0.0195376
0.020283
0.0210324
0.0217764
0.0225084
0.0232238
0.0239197
0.024594
0.0252457
0.025874
0.0264786
0.0270594
0.0276163
0.0281494
0.0286587
0.0291443
0.0296063
0.0300447
0.0304597
0.0308512
0.0312194
0.0315645
0.0318864
0.0321855
0.0324619
0.0327159
0.0329479
0.0331584
0.0333478
0.0335167
0.0336658
0.0337959
0.0339079
0.0340025
0.0340809
0.0341441
0.0341931
0.0342291
0.034253
0.034266
0.0342688
0.0342624
0.0342474
0.034224
0.0341923
0.0341522
0.0341037
0.0340479
0.0339855
0.0339166
0.0338387
0.0337522
0.0336594
0.0335631
0.0334668
0.0333744
0.0332906
0.0332204
0.0331695
0.0331438
0.03315
0.0331946
0.0332848
0.033429
0.0336387
0.033924
0.0342942
0.0347582
0.035319
0.0359797
0.0367499
0.0376355
4.81647e-06
0.000124372
0.000375999
0.000776499
0.00120096
0.00165563
0.00219676
0.00287548
0.00372922
0.00480789
0.00616154
0.00782831
0.00967185
0.0115271
0.0132613
0.0146763
0.015693
0.0163195
0.0166266
0.01671
0.0166648
0.0165763
0.0165051
0.0164734
0.0165334
0.0167069
0.0169973
0.0173963
0.017889
0.0184579
0.0190851
0.0197534
0.0204473
0.021153
0.0218598
0.0225592
0.0232451
0.0239132
0.0245608
0.0251857
0.025787
0.026364
0.0269162
0.0274437
0.0279464
0.0284243
0.0288778
0.0293068
0.0297116
0.0300925
0.0304495
0.030783
0.0310933
0.0313806
0.0316454
0.0318881
0.0321091
0.0323091
0.0324888
0.0326489
0.0327902
0.0329135
0.0330199
0.0331104
0.033186
0.0332478
0.0332968
0.0333339
0.0333602
0.0333764
0.033383
0.0333805
0.0333687
0.0333475
0.0333168
0.0332771
0.0332293
0.033174
0.0331076
0.0330316
0.0329483
0.0328608
0.0327724
0.0326871
0.0326099
0.032546
0.0325018
0.0324839
0.0324998
0.0325569
0.0326624
0.0328228
0.0330464
0.0333452
0.0337316
0.0342156
0.034801
0.035492
0.0362989
0.0372284
2.50413e-06
6.60607e-05
0.000207542
0.000463957
0.000741286
0.00102325
0.00133833
0.00172302
0.00220589
0.00282374
0.00361424
0.00461733
0.00587569
0.00743932
0.00919
0.0109895
0.0127621
0.0143457
0.0156146
0.0165252
0.0170947
0.0173814
0.0174615
0.0174128
0.0173093
0.0172047
0.0171309
0.0171391
0.0172532
0.0174799
0.0178138
0.0182427
0.0187506
0.0193205
0.0199353
0.02058
0.0212409
0.0219065
0.0225677
0.0232176
0.0238511
0.0244648
0.0250564
0.0256244
0.0261681
0.026687
0.0271808
0.0276496
0.0280935
0.0285126
0.0289072
0.0292774
0.0296237
0.0299462
0.0302455
0.0305219
0.0307759
0.0310082
0.0312194
0.0314102
0.0315814
0.031734
0.0318687
0.0319867
0.0320889
0.0321765
0.0322504
0.0323116
0.0323611
0.0323996
0.0324277
0.0324458
0.032454
0.0324519
0.0324393
0.0324165
0.0323842
0.0323436
0.0322911
0.0322282
0.0321576
0.0320821
0.0320051
0.0319308
0.0318639
0.0318101
0.0317759
0.0317688
0.0317971
0.0318695
0.0319948
0.0321807
0.0324331
0.032759
0.0331711
0.0336845
0.0343042
0.0350356
0.0358899
0.0368743
1.68942e-06
4.47161e-05
0.00013794
0.000321253
0.000522548
0.000715808
0.000915762
0.00114241
0.00141893
0.0017641
0.0022034
0.00276919
0.00349424
0.00441213
0.00555957
0.00698631
0.00862922
0.0103733
0.0121337
0.0138205
0.0152975
0.0164768
0.0173236
0.0178506
0.0181058
0.018157
0.018078
0.0179408
0.0177924
0.0176809
0.0176518
0.017726
0.0179094
0.0181968
0.018576
0.0190319
0.0195479
0.0201083
0.0206987
0.0213064
0.0219207
0.022533
0.0231364
0.0237258
0.0242974
0.0248487
0.0253778
0.0258835
0.0263652
0.0268225
0.0272551
0.0276632
0.0280468
0.028406
0.0287413
0.0290529
0.0293413
0.0296072
0.029851
0.0300734
0.0302754
0.0304577
0.0306212
0.030767
0.0308961
0.0310094
0.0311081
0.0311932
0.0312657
0.0313263
0.0313757
0.0314144
0.0314426
0.0314601
0.0314664
0.0314615
0.031446
0.0314206
0.0313857
0.0313397
0.0312854
0.0312257
0.0311643
0.0311052
0.0310533
0.0310142
0.0309948
0.0310029
0.0310476
0.0311388
0.0312868
0.0315015
0.0317907
0.0321596
0.0326137
0.0331664
0.0338303
0.0346127
0.0355257
0.0365768
0.0377707
0.0391086
0.0405882
0.0422039
1.40288e-06
3.7033e-05
0.000111176
0.000261051
0.000425848
0.000576391
0.00072146
0.000872794
0.00104321
0.00124898
0.00150235
0.00182094
0.00223067
0.0027597
0.00343699
0.0042922
0.00535667
0.00667038
0.0082234
0.00991567
0.0116356
0.0133535
0.0149601
0.0163407
0.0174241
0.0181813
0.0186278
0.0188139
0.0188087
0.0186875
0.0185197
0.0183423
0.0182104
0.0181601
0.0182071
0.0183548
0.0185975
0.0189241
0.019321
0.0197738
0.0202689
0.0207935
0.0213366
0.0218887
0.0224418
0.0229897
0.0235271
0.02405
0.0245554
0.025041
0.0255052
0.0259468
0.0263652
0.0267599
0.0271307
0.0274776
0.0278009
0.0281009
0.028378
0.0286329
0.0288662
0.0290788
0.0292716
0.0294455
0.0296016
0.0297408
0.0298644
0.0299733
0.0300687
0.0301513
0.0302222
0.0302818
0.0303307
0.0303688
0.0303956
0.0304107
0.0304147
0.0304086
0.0303932
0.030367
0.0303326
0.0302928
0.0302512
0.030212
0.0301799
0.0301609
0.0301618
0.030191
0.0302579
0.0303733
0.0305487
0.0307957
0.0311248
0.0315432
0.0320541
0.0326623
0.0333807
0.0342256
0.0352089
0.0363393
0.0376215
0.0390568
0.0406422
0.0423713
1.2872e-06
3.38761e-05
9.98268e-05
0.000233231
0.000379628
0.000509287
0.000628334
0.000745047
0.000866892
0.00100201
0.0011614
0.00135413
0.00159083
0.00189265
0.00228343
0.00278776
0.00343305
0.00424661
0.00525504
0.00648738
0.00797318
0.00963384
0.0113511
0.0130615
0.0147267
0.0162361
0.0174951
0.0184465
0.0190779
0.019418
0.0195244
0.0194665
0.0193148
0.0191284
0.0189373
0.0187911
0.0187176
0.0187293
0.0188292
0.019013
0.0192722
0.0195962
0.0199734
0.0203923
0.0208422
0.0213132
0.0217967
0.0222852
0.0227723
0.0232528
0.0237224
0.0241776
0.0246157
0.0250346
0.0254328
0.0258092
0.0261633
0.0264946
0.0268032
0.0270894
0.0273534
0.0275959
0.0278177
0.0280197
0.0282027
0.0283679
0.0285164
0.0286493
0.0287678
0.0288729
0.0289657
0.0290472
0.029118
0.0291784
0.0292279
0.0292657
0.0292922
0.0293081
0.0293141
0.0293119
0.0293015
0.029286
0.0292691
0.0292548
0.0292482
0.0292551
0.0292827
0.0293396
0.0294355
0.0295819
0.0297913
0.0300767
0.0304501
0.0309215
0.0314958
0.0321713
0.032957
0.0338764
0.0349433
0.0361669
0.0375522
0.0390998
0.040806
0.0426627
1.22784e-06
3.22537e-05
9.39194e-05
0.000217745
0.000353626
0.000472078
0.00057782
0.000677482
0.000776303
0.000878993
0.000990772
0.00111857
0.00127074
0.0014536
0.00167788
0.00196414
0.00233728
0.00282128
0.0034412
0.00422426
0.00519599
0.00638016
0.0078061
0.00942707
0.0111456
0.0128653
0.0145492
0.0161341
0.0175179
0.0186316
0.0194407
0.0199513
0.0202025
0.0202522
0.0201629
0.0199942
0.0197909
0.0195829
0.019411
0.0192985
0.0192579
0.0192939
0.0194049
0.0195856
0.0198282
0.0201237
0.0204624
0.0208347
0.0212316
0.0216445
0.0220661
0.0224899
0.0229104
0.0233229
0.0237237
0.0241098
0.0244789
0.0248292
0.0251598
0.0254697
0.0257587
0.0260268
0.0262744
0.0265019
0.0267102
0.0269001
0.0270727
0.0272291
0.0273706
0.0274985
0.0276138
0.027718
0.0278119
0.0278964
0.0279706
0.0280336
0.0280856
0.0281265
0.0281564
0.0281815
0.0281992
0.0282125
0.0282251
0.0282412
0.0282659
0.0283052
0.0283663
0.0284577
0.0285899
0.0287746
0.0290252
0.0293556
0.0297795
0.0303079
0.0309477
0.0316973
0.0325635
0.0335706
0.0347358
0.0360683
0.0375726
0.0392485
0.0410908
0.0430896
0.045231
1.19682e-06
3.14043e-05
9.07033e-05
0.000208704
0.000338445
0.000450708
0.000549327
0.000640057
0.000727106
0.000813751
0.000903028
0.00099832
0.00110401
0.00122643
0.00137114
0.00154354
0.00175555
0.00202544
0.00237545
0.00283393
0.00342294
0.0041693
0.00509855
0.00623351
0.00759906
0.00918175
0.010888
0.0126089
0.0142995
0.0159196
0.0173953
0.0186489
0.019632
0.0203298
0.0207585
0.0209574
0.0209778
0.0208724
0.0206903
0.0204631
0.0202269
0.0200164
0.019853
0.0197509
0.0197165
0.019751
0.0198515
0.0200126
0.0202269
0.020486
0.0207809
0.0211031
0.0214441
0.0217967
0.0221541
0.0225106
0.0228617
0.0232035
0.0235329
0.0238476
0.0241459
0.0244269
0.0246899
0.0249346
0.0251614
0.0253706
0.025563
0.0257397
0.0259017
0.0260503
0.0261869
0.0263128
0.0264295
0.0265381
0.0266377
0.0267273
0.0268071
0.0268767
0.0269357
0.0269877
0.0270372
0.0270836
0.0271308
0.0271829
0.027245
0.027323
0.0274242
0.0275571
0.0277322
0.0279618
0.0282601
0.0286421
0.0291226
0.0297141
0.0304243
0.0312522
0.0322078
0.0333179
0.0345973
0.036055
0.0376947
0.0395145
0.0415075
0.0436614
0.0459599
0.0483834
0.0509101
1.18922e-06
3.119e-05
8.95667e-05
0.000204611
0.00033145
0.000440832
0.000535986
0.0006222
0.000703201
0.00078164
0.000859654
0.000939254
0.00102265
0.00111259
0.00121291
0.0013292
0.00146552
0.00162651
0.00182386
0.00207411
0.0023976
0.00282035
0.003366
0.00406006
0.00492889
0.00599628
0.0072846
0.00880933
0.0104803
0.0121903
0.0138834
0.0155166
0.017055
0.0184251
0.0195712
0.0204612
0.02109
0.0214749
0.0216502
0.0216586
0.0215448
0.0213486
0.021095
0.0208281
0.0205768
0.0203635
0.0202024
0.0201013
0.0200633
0.0200876
0.0201704
0.0203054
0.0204851
0.0207016
0.0209465
0.0212118
0.0214906
0.0217764
0.0220639
0.0223482
0.022626
0.0228943
0.0231511
0.0233948
0.0236246
0.0238401
0.0240415
0.0242291
0.0244039
0.0245668
0.0247191
0.0248624
0.024998
0.0251276
0.0252504
0.0253653
0.025473
0.0255734
0.0256655
0.0257495
0.0258333
0.0259167
0.026003
0.0260962
0.0262013
0.0263239
0.026471
0.0266512
0.0268747
0.0271542
0.0275042
0.0279413
0.0284825
0.0291426
0.0299305
0.030847
0.0319052
0.0331322
0.0345406
0.0361384
0.0379277
0.0399049
0.0420605
0.0443798
0.0468438
0.0494303
0.0521152
0.0548738
1.21004e-06
3.17176e-05
9.06795e-05
0.000205383
0.000332
0.000440955
0.000535097
0.000619499
0.00069769
0.000772073
0.000844424
0.000916223
0.000988863
0.00106383
0.0011429
0.0012284
0.00132359
0.00143332
0.00156103
0.00171041
0.00189174
0.00211987
0.00241339
0.00279331
0.00328297
0.00390928
0.00469963
0.00567963
0.00687175
0.00830602
0.00991213
0.0115892
0.0132757
0.014926
0.0164985
0.0179567
0.0192401
0.0203089
0.0211397
0.0217299
0.0220951
0.0222642
0.0222723
0.0221579
0.021944
0.0216752
0.0213853
0.0211024
0.0208475
0.0206354
0.0204751
0.0203708
0.0203232
0.0203293
0.0203844
0.0204823
0.0206158
0.0207778
0.0209614
0.0211598
0.0213674
0.0215796
0.0217923
0.0220019
0.0222062
0.0224034
0.0225924
0.0227726
0.0229442
0.0231076
0.0232637
0.0234138
0.0235593
0.0237021
0.0238415
0.0239765
0.0241082
0.0242374
0.0243637
0.0244862
0.0246069
0.0247333
0.024863
0.0250016
0.0251542
0.025326
0.0255234
0.0257547
0.0260302
0.0263618
0.0267637
0.0272532
0.0278513
0.0285794
0.0294549
0.0304841
0.0316674
0.0330216
0.0345701
0.0363192
0.0382692
0.0404141
0.0427415
0.0452335
0.0478683
0.050621
0.0534653
0.0563745
0.059323
0.0622866
1.26331e-06
3.30815e-05
9.42406e-05
0.000210977
0.000339575
0.000449952
0.000544794
0.000629136
0.000706473
0.000779129
0.000848753
0.000916632
0.000983863
0.00105147
0.00112052
0.0011922
0.00126801
0.00134988
0.00144059
0.00154427
0.00166443
0.00180374
0.00196982
0.00217536
0.00243553
0.00276931
0.00319953
0.00375232
0.0044556
0.00533695
0.0064201
0.00773394
0.00924933
0.0108793
0.012536
0.0141901
0.0157931
0.0173046
0.0186931
0.0199097
0.0209224
0.0217136
0.0222813
0.0226395
0.0228112
0.0228264
0.0227043
0.0224881
0.0222135
0.0219121
0.0216091
0.021324
0.0210708
0.0208588
0.0206931
0.0205754
0.0205045
0.0204771
0.0204885
0.0205336
0.0206065
0.0207017
0.0208141
0.0209385
0.0210712
0.0212089
0.021349
0.0214893
0.0216291
0.021768
0.021906
0.0220437
0.0221822
0.0223231
0.0224657
0.0226092
0.0227548
0.022904
0.0230573
0.0232148
0.0233768
0.0235461
0.023729
0.0239205
0.0241255
0.0243502
0.0246003
0.0248824
0.0252056
0.0255853
0.0260367
0.0265795
0.027237
0.0280347
0.0289975
0.030141
0.0314684
0.0329755
0.0346736
0.036584
0.0387044
0.0410255
0.0435316
0.0462013
0.0490095
0.0519286
0.0549301
0.0579859
0.061069
0.0641548
0.0672212
0.0702486
0.0732204
0.0761225
1.35308e-06
3.5386e-05
0.000100526
0.000221421
0.000353716
0.000466825
0.000563487
0.000648861
0.000726527
0.000798795
0.000867282
0.000933242
0.000997676
0.00106144
0.00112535
0.00119019
0.00125683
0.00132628
0.00139979
0.00147898
0.00156614
0.00166456
0.00177811
0.00190857
0.00206064
0.00224522
0.00247522
0.00276702
0.00314098
0.00362129
0.004235
0.00501017
0.0059724
0.0071485
0.00855116
0.0101082
0.0117265
0.0133608
0.0149806
0.0165427
0.0180061
0.019334
0.020494
0.0214603
0.0222181
0.0227665
0.0231144
0.0232761
0.0232817
0.0231661
0.0229615
0.0226976
0.0223999
0.0220902
0.021786
0.0215005
0.0212434
0.0210204
0.0208347
0.020687
0.0205762
0.0204997
0.0204537
0.0204351
0.0204398
0.0204642
0.0205048
0.0205588
0.020624
0.0206989
0.0207827
0.0208753
0.0209774
0.0210901
0.0212128
0.0213441
0.0214853
0.0216376
0.0218019
0.0219787
0.0221683
0.0223719
0.0225925
0.0228351
0.0230974
0.0233804
0.0236889
0.024028
0.0244057
0.0248379
0.0253421
0.0259396
0.0266562
0.0275212
0.0285652
0.0298126
0.0312762
0.0329553
0.0348338
0.0369153
0.0392148
0.041719
0.0444082
0.0472576
0.0502384
0.0533206
0.0564736
0.0596681
0.0628764
0.0660737
0.0692378
0.0723498
0.0753935
0.0783556
1.48152e-06
3.86877e-05
0.000109687
0.000236627
0.000373866
0.000490622
0.000589747
0.000676724
0.000755247
0.00082775
0.00089592
0.000960998
0.00102396
0.0010856
0.00114662
0.00120769
0.00126943
0.00133252
0.00139768
0.00146577
0.00153785
0.00161527
0.00169987
0.00179431
0.00190241
0.00202608
0.00216763
0.00233553
0.00254076
0.00279705
0.00312187
0.00353669
0.00406667
0.00473938
0.00558208
0.00661938
0.00788569
0.00933732
0.0108996
0.0125025
0.0141121
0.015692
0.0172054
0.0186169
0.0198892
0.0209891
0.0218953
0.022598
0.0231022
0.0234233
0.0235822
0.0236035
0.0235127
0.0233347
0.0230935
0.0228103
0.0225039
0.0221899
0.021881
0.0215866
0.0213138
0.0210668
0.020848
0.0206587
0.0204987
0.0203669
0.0202614
0.0201807
0.0201231
0.0200871
0.0200714
0.0200757
0.0201007
0.0201469
0.0202145
0.0203029
0.0204121
0.0205423
0.020694
0.0208675
0.021063
0.0212813
0.0215236
0.0217928
0.0220928
0.0224264
0.0227927
0.023194
0.0236364
0.0241301
0.0246908
0.0253442
0.0261188
0.027048
0.0281675
0.0295097
0.0310961
0.0329351
0.0350128
0.0372972
0.0397816
0.0424725
0.0453455
0.048372
0.0515203
0.0547578
0.0580524
0.0613738
0.0646944
0.0679892
0.0712368
0.0744187
0.0775196
0.0805272
1.65287e-06
4.30699e-05
0.000121894
0.000256474
0.000399206
0.00051972
0.000621703
0.000710682
0.00079049
0.000863675
0.000932004
0.000996764
0.00105894
0.00111935
0.00117865
0.00123745
0.0012963
0.00135574
0.0014163
0.00147857
0.00154317
0.00161083
0.00168245
0.00175916
0.00184249
0.00193457
0.00203848
0.00215719
0.00229195
0.00244764
0.00263394
0.00286222
0.00314716
0.00350725
0.00396494
0.00454608
0.00527842
0.0061867
0.00729986
0.00862423
0.0100995
0.0116425
0.0132156
0.0147828
0.0163066
0.0177486
0.0190747
0.020254
0.0212641
0.0220951
0.022746
0.0232237
0.0235408
0.0237134
0.0237602
0.023701
0.0235557
0.0233433
0.0230817
0.0227867
0.0224723
0.0221501
0.0218297
0.0215185
0.0212227
0.0209462
0.0206917
0.0204612
0.0202564
0.0200783
0.0199281
0.0198061
0.0197135
0.019652
0.0196246
0.0196322
0.0196737
0.0197485
0.0198563
0.0199968
0.0201701
0.0203763
0.0206161
0.0208909
0.021203
0.0215556
0.0219531
0.0223994
0.0228974
0.0234532
0.0240787
0.0247933
0.0256264
0.0266181
0.0278094
0.0292403
0.0309391
0.0329203
0.0351799
0.0376842
0.0403832
0.0432597
0.0463117
0.0495074
0.0528125
0.0561924
0.059614
0.0630469
0.0664634
0.0698392
0.0731536
0.0763891
0.0795314
0.082569
1.86999e-06
4.86103e-05
0.000137391
0.000280112
0.000428914
0.000553752
0.000658759
0.000749813
0.000830984
0.000904973
0.000973642
0.00103834
0.0011001
0.00115973
0.00121792
0.00127525
0.00133224
0.00138939
0.00144714
0.00150597
0.00156634
0.00162876
0.00169376
0.00176198
0.00183417
0.0019113
0.00199461
0.00208582
0.00218735
0.00230273
0.00243332
0.00258105
0.0027538
0.0029612
0.00321542
0.003532
0.0039302
0.00443286
0.00506558
0.00585339
0.00681889
0.00799598
0.00934667
0.0108065
0.0123136
0.0138335
0.0153268
0.0167581
0.0180945
0.0193101
0.020386
0.0213094
0.022075
0.0226837
0.0231409
0.0234562
0.0236421
0.0237128
0.0236836
0.0235701
0.0233877
0.0231508
0.0228731
0.0225666
0.0222422
0.0219091
0.0215753
0.0212471
0.0209307
0.0206307
0.0203516
0.0200976
0.0198726
0.0196816
0.0195318
0.0194276
0.0193688
0.0193549
0.0193854
0.01946
0.0195786
0.0197412
0.0199482
0.0202003
0.0204992
0.020847
0.0212471
0.0217039
0.0222232
0.0228143
0.0234894
0.0242653
0.025165
0.0262225
0.0274857
0.0290022
0.0308063
0.0329169
0.0353359
0.038036
0.0409617
0.0440482
0.0472701
0.0506204
0.0540652
0.057569
0.0610984
0.0646232
0.0681162
0.0715543
0.0749176
0.0781897
0.0813573
0.0844101
0.0873401
2.13117e-06
5.52394e-05
0.000155725
0.000307489
0.000462928
0.000592123
0.000700057
0.000793084
0.000875552
0.000950328
0.00101938
0.00108412
0.00114563
0.00120474
0.00126214
0.00131844
0.00137414
0.00142971
0.00148559
0.0015422
0.00159993
0.0016592
0.0017204
0.00178398
0.0018504
0.0019202
0.00199403
0.00207267
0.00215718
0.00224897
0.00235002
0.0024632
0.00259121
0.00273489
0.00289869
0.00309133
0.00332281
0.00360606
0.00395719
0.00439572
0.00494427
0.00562753
0.00646654
0.00748629
0.00869124
0.0100326
0.0114381
0.0128717
0.0142974
0.0156801
0.0169914
0.0182076
0.0193102
0.0202866
0.0211285
0.0218322
0.0223992
0.0228335
0.0231423
0.0233352
0.023423
0.0234176
0.0233311
0.0231758
0.0229635
0.0227052
0.0224117
0.0220928
0.0217575
0.0214143
0.0210706
0.020734
0.0204119
0.0201121
0.019848
0.0196303
0.0194617
0.0193434
0.0192763
0.0192614
0.0192993
0.0193907
0.0195362
0.0197369
0.0199943
0.0203104
0.0206884
0.0211329
0.0216506
0.0222515
0.0229495
0.0237634
0.0247181
0.0258437
0.0271814
0.0287849
0.030694
0.0329283
0.0354899
0.0383552
0.0414734
0.0447713
0.0481769
0.0516632
0.0552233
0.0588266
0.0624399
0.0660334
0.0695813
0.0730614
0.0764548
0.0797465
0.082924
0.085978
0.0889013
2.44137e-06
6.30032e-05
0.000176626
0.000338444
0.000500691
0.000634084
0.000744739
0.000839568
0.000923212
0.000998704
0.00106812
0.00113293
0.00119425
0.00125296
0.00130977
0.00136527
0.00141999
0.0014744
0.00152892
0.00158396
0.0016399
0.0016971
0.00175591
0.0018167
0.0018798
0.00194558
0.00201445
0.00208685
0.00216333
0.00224454
0.00233136
0.00242496
0.00252696
0.00263966
0.00276647
0.00290855
0.00306742
0.00325035
0.00346589
0.00372467
0.00403998
0.00442803
0.00490764
0.00549965
0.00622361
0.00709583
0.00814275
0.00933218
0.0106122
0.0119305
0.0132576
0.0145623
0.0158172
0.0170003
0.0180943
0.0190853
0.0199642
0.0207253
0.0213661
0.0218873
0.0222926
0.0225869
0.0227774
0.0228723
0.0228806
0.0228115
0.0226747
0.02248
0.022237
0.0219553
0.0216438
0.0213117
0.0209685
0.0206244
0.0202973
0.0200035
0.0197505
0.019543
0.0193851
0.0192801
0.0192308
0.0192396
0.0193087
0.0194401
0.0196362
0.0199
0.0202353
0.0206476
0.0211448
0.0217383
0.0224444
0.0232842
0.0242845
0.0254759
0.0268941
0.0285877
0.0306036
0.0329595
0.0356535
0.0386591
0.0419254
0.0453849
0.0489598
0.0525789
0.0562263
0.0599014
0.0635718
0.067209
0.0707885
0.0742893
0.0776941
0.0809888
0.084162
0.0872052
0.0901119
2.80779e-06
7.20372e-05
0.000199943
0.000372635
0.000541619
0.000678938
0.000792062
0.000888502
0.000973184
0.00104931
0.00111903
0.00118391
0.00124508
0.00130345
0.00135975
0.00141459
0.0014685
0.00152196
0.00157541
0.00162925
0.00168385
0.00173957
0.00179674
0.00185569
0.00191672
0.00198012
0.0020462
0.00211524
0.00218757
0.00226357
0.00234366
0.00242843
0.0025186
0.00261517
0.00271954
0.00283362
0.00296024
0.0031021
0.00325978
0.00343724
0.00364244
0.00388399
0.00417274
0.00452165
0.00494576
0.00546182
0.00608752
0.00683557
0.00772075
0.00874543
0.00987407
0.0110566
0.0122612
0.0134623
0.0146341
0.0157553
0.0168086
0.0177809
0.0186617
0.0194437
0.0201229
0.0206973
0.0211669
0.0215343
0.0218032
0.0219782
0.0220655
0.0220719
0.0220049
0.0218725
0.0216826
0.0214441
0.0211663
0.0208597
0.0205432
0.0202365
0.0199519
0.0196983
0.0194833
0.0193135
0.0191949
0.0191324
0.0191305
0.0191933
0.019325
0.0195303
0.0198149
0.0201858
0.0206531
0.0212307
0.0219375
0.0227979
0.023841
0.0250989
0.0266039
0.0283974
0.0305231
0.032996
0.0358089
0.0389316
0.0423046
0.0458633
0.0495475
0.0532847
0.0570197
0.0607391
0.064438
0.0680918
0.0716777
0.0751767
0.0785729
0.0818536
0.0850086
0.0880301
0.0909124
0.0936514
3.23586e-06
8.24636e-05
0.000225548
0.000409624
0.000585077
0.000726005
0.000841358
0.000939235
0.00102484
0.00110151
0.00117151
0.00123643
0.00129745
0.0013555
0.00141133
0.00146556
0.00151875
0.00157138
0.00162389
0.00167671
0.00173021
0.00178476
0.0018407
0.00189833
0.00195797
0.00201987
0.00208428
0.00215144
0.00222158
0.00229492
0.00237172
0.00245228
0.00253695
0.00262624
0.00272077
0.00282142
0.0029294
0.00304634
0.00317455
0.00331747
0.00347623
0.00365195
0.00385126
0.00408145
0.00435111
0.0046705
0.00505125
0.0055059
0.00604753
0.00668718
0.00743182
0.00829451
0.00926008
0.0102983
0.0113663
0.0124445
0.0135119
0.0145478
0.0155354
0.016461
0.0173136
0.0180856
0.0187708
0.0193653
0.0198675
0.0202768
0.0205944
0.0208227
0.0209654
0.0210268
0.0210122
0.0209279
0.0207813
0.0205814
0.0203442
0.0200899
0.0198337
0.0195881
0.019364
0.0191713
0.0190185
0.0189138
0.0188642
0.0188762
0.0189568
0.0191131
0.019353
0.0196862
0.0201257
0.0206891
0.0213988
0.022283
0.0233739
0.024705
0.0263078
0.0282133
0.0304501
0.0330312
0.0359375
0.0391322
0.0425717
0.0461956
0.0499403
0.0537424
0.0575438
0.0613033
0.065006
0.0686471
0.0722121
0.0756835
0.0790473
0.0822922
0.0854089
0.0883907
0.0912359
0.0939444
3.72877e-06
9.43328e-05
0.000253277
0.000448827
0.000630386
0.000774642
0.000892034
0.000991221
0.00107766
0.00115483
0.00122506
0.00129
0.00135086
0.00140859
0.00146395
0.00151758
0.00157005
0.00162187
0.0016735
0.00172536
0.00177787
0.00183139
0.0018863
0.0019429
0.00200151
0.00206239
0.00212578
0.00219188
0.00226088
0.00233294
0.00240823
0.0024869
0.00256915
0.00265522
0.00274542
0.00284018
0.00294007
0.00304588
0.0031587
0.00327999
0.0034117
0.00355666
0.00371768
0.00389507
0.00409205
0.00431549
0.00457196
0.0048694
0.00521644
0.00562222
0.00609599
0.0066468
0.00727944
0.00799616
0.00880656
0.00968984
0.0106222
0.0115704
0.0125196
0.0134537
0.0143562
0.0152135
0.0160146
0.0167503
0.0174135
0.0179993
0.0185039
0.0189251
0.019262
0.0195151
0.0196858
0.019777
0.0197927
0.0197388
0.0196264
0.0194724
0.0192935
0.019104
0.0189169
0.0187444
0.0185975
0.0184865
0.0184213
0.0184104
0.0184629
0.0185894
0.0188008
0.0191096
0.0195326
0.0200914
0.0208131
0.0217301
0.0228778
0.0242915
0.0260019
0.0280314
0.030382
0.0330514
0.0360331
0.0392881
0.0427661
0.046411
0.0501657
0.0539741
0.0577844
0.0615532
0.0652511
0.0688622
0.0723777
0.0757907
0.0790944
0.0822819
0.0853468
0.0882836
0.0910883
0.093758
4.29801e-06
0.000107719
0.000283358
0.000489866
0.000677047
0.00082436
0.000943632
0.00104403
0.00113124
0.00120886
0.00127929
0.00134422
0.00140491
0.00146228
0.00151713
0.00157012
0.00162184
0.00167281
0.00172352
0.00177442
0.00182593
0.00187847
0.00193242
0.00198813
0.00204591
0.00210604
0.00216877
0.00223429
0.00230278
0.00237436
0.00244914
0.00252722
0.0026087
0.00269369
0.00278233
0.00287482
0.00297144
0.00307259
0.00317881
0.00329082
0.00340961
0.00353649
0.00367316
0.00382185
0.003986
0.00416674
0.00436445
0.00458451
0.00483239
0.00511383
0.00543536
0.00580352
0.00622453
0.00670423
0.00724799
0.0078562
0.00852761
0.00926715
0.0100571
0.010879
0.0117089
0.0125324
0.0133375
0.0141113
0.0148422
0.015521
0.0161398
0.0166922
0.0171732
0.0175794
0.0179087
0.0181599
0.0183337
0.0184324
0.0184606
0.0184301
0.0183565
0.0182545
0.0181379
0.0180198
0.0179124
0.0178277
0.0177771
0.0177721
0.0178232
0.0179426
0.0181451
0.0184473
0.0188694
0.0194374
0.0201832
0.0211434
0.0223563
0.0238576
0.0256751
0.0278204
0.0302869
0.033059
0.0361101
0.0394019
0.0428908
0.046524
0.050249
0.0540177
0.0577862
0.0615153
0.0651736
0.0687395
0.0722008
0.0755508
0.0787853
0.0819012
0.0848965
0.0877686
0.0905152
0.0931335
4.92893e-06
0.000122371
0.000315132
0.000532314
0.000724615
0.000874761
0.000995814
0.00109738
0.00118533
0.00126338
0.00133398
0.00139885
0.00145926
0.00151619
0.00157044
0.0016227
0.00167356
0.00172359
0.00177332
0.00182318
0.00187364
0.00192515
0.00197814
0.00203299
0.00209003
0.00214957
0.00221185
0.00227709
0.00234545
0.00241703
0.00249193
0.00257019
0.00265186
0.00273697
0.00282557
0.00291774
0.0030136
0.00311333
0.00321719
0.00332557
0.00343898
0.00355811
0.00368387
0.00381742
0.0039603
0.00411437
0.00428208
0.00446643
0.00466744
0.0048865
0.00512906
0.00539916
0.00570145
0.00604062
0.00642099
0.0068461
0.00731877
0.00784131
0.00841183
0.00902697
0.00968712
0.0103813
0.0110946
0.01181
0.0125126
0.0131934
0.013842
0.0144486
0.0150053
0.0155051
0.0159422
0.0163123
0.0166129
0.0168427
0.0170003
0.0170916
0.0171294
0.0171272
0.0170976
0.0170537
0.0170079
0.0169727
0.0169604
0.0169836
0.0170553
0.0171895
0.017403
0.017716
0.0181533
0.0187452
0.0195278
0.0205413
0.0218257
0.0234152
0.0253333
0.0275799
0.0301396
0.0329922
0.0361038
0.0394308
0.0429244
0.046534
0.0502106
0.0539092
0.0575966
0.0612456
0.0648274
0.068319
0.0717052
0.0749775
0.0781319
0.0811659
0.084079
0.086872
0.0895453
0.0920982
5.62529e-06
0.000138212
0.000347854
0.000575457
0.000772556
0.000925357
0.0010481
0.00115079
0.00123947
0.00131793
0.00138868
0.00145347
0.00151359
0.00157004
0.00162363
0.00167506
0.00172495
0.00177389
0.00182241
0.00187104
0.00192029
0.00197067
0.00202264
0.00207665
0.00213297
0.00219196
0.00225393
0.00231907
0.00238754
0.00245944
0.00253484
0.00261376
0.0026962
0.00278216
0.00287161
0.00296457
0.00306104
0.0031611
0.00326486
0.0033725
0.00348428
0.00360059
0.0037219
0.00384889
0.00398237
0.00412339
0.00427324
0.00443355
0.00460616
0.00479368
0.00499785
0.00521814
0.00545712
0.0057188
0.00600598
0.00632195
0.00666957
0.00705113
0.00746804
0.00792087
0.00840971
0.008932
0.00948351
0.0100619
0.0106616
0.0112701
0.011873
0.0124583
0.0130183
0.0135439
0.0140275
0.0144624
0.0148429
0.0151649
0.0154217
0.0156136
0.01575
0.0158418
0.0159001
0.015936
0.0159611
0.0159874
0.0160275
0.0160943
0.0162021
0.0163668
0.0166074
0.0169468
0.0174137
0.0180425
0.0188733
0.0199485
0.0213082
0.0229844
0.0249906
0.0273182
0.0299482
0.0328539
0.0359957
0.0393277
0.0428014
0.0463688
0.0499858
0.053613
0.0572176
0.0607721
0.0642539
0.0676453
0.0709332
0.0741082
0.0771653
0.080104
0.0829241
0.0856271
0.0882163
0.0906932
6.37947e-06
0.000155163
0.00038112
0.000618812
0.000820403
0.000975703
0.00110006
0.00120383
0.0012932
0.00137205
0.00144292
0.00150758
0.00156733
0.0016232
0.00167601
0.00172649
0.00177528
0.00182301
0.00187025
0.00191757
0.00196553
0.00201466
0.00206546
0.00211841
0.00217392
0.00223236
0.00229408
0.00235926
0.00242798
0.00250038
0.00257654
0.00265643
0.00274001
0.00282724
0.00291809
0.00301247
0.00311036
0.00321174
0.00331663
0.0034251
0.00353726
0.00365331
0.00377351
0.00389823
0.00402794
0.00416323
0.00430485
0.0044537
0.00461087
0.00477768
0.00495559
0.00514617
0.00535186
0.0055732
0.00580934
0.00606309
0.00633684
0.00663219
0.00695112
0.00729498
0.00766446
0.00805951
0.00847923
0.00892233
0.00938648
0.0098678
0.0103646
0.0108722
0.0113785
0.0118705
0.0123417
0.0127849
0.0131933
0.013561
0.0138779
0.0141389
0.0143492
0.0145169
0.014651
0.0147606
0.0148552
0.0149452
0.0150426
0.0151605
0.0153135
0.0155188
0.0157972
0.0161745
0.0166823
0.0173586
0.018246
0.0193881
0.0208235
0.0225799
0.0246593
0.0270465
0.0297221
0.0326527
0.0357956
0.0391043
0.0425319
0.0460337
0.0495692
0.0531033
0.0566062
0.0600536
0.0634262
0.0667088
0.0698904
0.0729631
0.0759217
0.0787629
0.0814848
0.0840872
0.0865789
0.0889679
7.18421e-06
0.000172961
0.000414431
0.000661836
0.000867661
0.00102534
0.00115125
0.00125606
0.0013461
0.00142529
0.00149621
0.00156064
0.00161992
0.00167507
0.00172696
0.00177632
0.00182385
0.00187019
0.00191599
0.00196186
0.00200842
0.00205624
0.00210587
0.00215783
0.00221257
0.00227046
0.00233183
0.00239692
0.00246588
0.00253887
0.002616
0.00269703
0.00278195
0.00287073
0.00296328
0.00305947
0.00315922
0.00326248
0.00336919
0.00347935
0.00359299
0.00371019
0.00383107
0.00395583
0.00408472
0.00421808
0.00435634
0.0045
0.00464971
0.00480618
0.00497028
0.00514298
0.00532543
0.00551875
0.00572384
0.00594253
0.00617462
0.00641899
0.00667777
0.0069523
0.00724322
0.00755122
0.00787638
0.0082181
0.00857562
0.00894779
0.0093335
0.0097312
0.0101396
0.0105585
0.0109752
0.0113814
0.0117717
0.0121404
0.0124766
0.0127718
0.0130272
0.0132475
0.0134385
0.0136076
0.0137625
0.0139111
0.014064
0.0142337
0.0144351
0.014686
0.0150088
0.0154313
0.0159878
0.0167187
0.0176679
0.0188788
0.0203876
0.0222111
0.024344
0.0267707
0.0294667
0.0323946
0.0355108
0.0387697
0.0421266
0.0455402
0.048974
0.0523965
0.0557815
0.0591078
0.0623588
0.0655217
0.0685871
0.0715483
0.0744008
0.0771419
0.0797701
0.0822852
0.0846842
0.0869767
8.0248e-06
0.000191304
0.00044727
0.000703968
0.000913814
0.00107377
0.00120119
0.00130702
0.00139768
0.00147715
0.00154804
0.00161214
0.0016708
0.00172508
0.00177585
0.00182391
0.00186997
0.00191474
0.00195891
0.00200317
0.00204818
0.00209459
0.00214299
0.00219394
0.00224792
0.00230535
0.00236653
0.00243172
0.00250106
0.00257467
0.00265254
0.00273466
0.00282096
0.00291142
0.00300591
0.00310408
0.00320592
0.00331138
0.00342029
0.00353262
0.00364833
0.00376744
0.00388998
0.00401603
0.00414571
0.00427921
0.00441674
0.00455858
0.00470508
0.00485662
0.00501368
0.00517676
0.00534646
0.00552339
0.00570816
0.00590151
0.00610395
0.00631565
0.00653744
0.00676917
0.00700998
0.00726062
0.00752134
0.00779132
0.00807058
0.00835899
0.00865603
0.00896156