# Residuals   
# Time        	k             	nut           	omega         	p             	Urelx         	Urely         
0             	N/A	N/A	N/A	N/A	N/A
1             	1.000000e+00	N/A	1.098273e-01	1.000000e+00	1.000000e+00	1.000000e+00
2             	7.645366e-01	N/A	5.949441e-03	6.305855e-02	8.799450e-01	8.745403e-01
3             	2.775659e-02	N/A	5.863505e-02	3.774883e-02	2.868399e-02	1.815393e-01
4             	6.169627e-02	N/A	3.077528e-02	1.599173e-02	4.499435e-02	2.645614e-01
5             	1.162656e-01	N/A	9.001937e-03	6.509583e-03	6.644057e-02	1.662881e-01
6             	1.232618e-01	N/A	4.689034e-03	5.390971e-03	3.601224e-02	6.498003e-02
7             	1.092548e-01	N/A	3.164477e-03	3.694094e-03	1.820934e-02	2.714807e-02
8             	9.285745e-02	N/A	2.657649e-03	3.439205e-03	1.449240e-02	1.952586e-02
9             	8.381035e-02	N/A	2.671474e-03	3.860047e-03	1.556136e-02	1.792536e-02
10            	7.744852e-02	N/A	2.910637e-03	4.249836e-03	1.746517e-02	1.864041e-02
11            	6.284746e-02	N/A	3.095945e-03	4.634665e-03	2.135457e-02	2.089651e-02
12            	6.637784e-02	N/A	3.539256e-03	5.418262e-03	2.539543e-02	2.765952e-02
13            	5.902913e-02	N/A	3.498554e-03	5.822098e-03	2.838216e-02	2.874992e-02
14            	5.462663e-02	N/A	3.346278e-03	6.806412e-03	3.048441e-02	3.266112e-02
15            	5.183916e-02	N/A	2.871441e-03	7.380927e-03	3.333094e-02	3.741439e-02
16            	4.616204e-02	N/A	2.169507e-03	7.092996e-03	3.380174e-02	3.778709e-02
17            	3.900174e-02	N/A	2.451505e-03	7.653882e-03	3.586633e-02	4.144352e-02
18            	3.807337e-02	N/A	2.081024e-03	8.539542e-03	3.854928e-02	4.416995e-02
19            	3.939504e-02	N/A	1.944479e-03	8.549041e-03	3.796259e-02	4.438254e-02
20            	3.293549e-02	N/A	2.233013e-03	8.739199e-03	3.779770e-02	4.605288e-02
21            	3.483664e-02	N/A	2.059974e-03	8.520844e-03	3.887214e-02	4.611199e-02
22            	3.224655e-02	N/A	2.187145e-03	7.979995e-03	3.777986e-02	4.381833e-02
23            	3.054145e-02	N/A	1.860007e-03	7.913078e-03	3.487595e-02	4.101960e-02
24            	3.120096e-02	N/A	2.326452e-03	7.485794e-03	3.200854e-02	4.112345e-02
25            	3.120195e-02	N/A	1.903287e-03	7.394837e-03	3.199161e-02	3.993578e-02
26            	2.956238e-02	N/A	2.357235e-03	7.109553e-03	3.109996e-02	3.483071e-02
27            	3.711957e-02	N/A	2.567090e-03	7.354090e-03	4.630856e-02	4.840227e-02
28            	3.576442e-02	N/A	2.835731e-03	6.506424e-03	3.804696e-02	4.022206e-02
29            	3.480555e-02	N/A	2.685133e-03	6.092413e-03	3.267608e-02	3.598284e-02
30            	3.374326e-02	N/A	2.976161e-03	5.794489e-03	3.068497e-02	3.299256e-02
31            	3.294624e-02	N/A	2.553426e-03	5.427007e-03	2.705290e-02	2.904296e-02
32            	2.649705e-02	N/A	2.603104e-03	4.980021e-03	2.394496e-02	2.701019e-02
33            	3.232317e-02	N/A	2.800182e-03	5.067756e-03	2.606854e-02	2.948296e-02
34            	2.904985e-02	N/A	2.628672e-03	4.728499e-03	2.177008e-02	2.345963e-02
35            	2.870221e-02	N/A	2.666508e-03	4.319710e-03	1.909162e-02	2.087680e-02
36            	2.911300e-02	N/A	2.581349e-03	4.171172e-03	1.618781e-02	1.911257e-02
37            	2.215070e-02	N/A	2.322640e-03	4.060291e-03	1.524940e-02	1.761729e-02
38            	2.567126e-02	N/A	2.376162e-03	3.727667e-03	1.412643e-02	1.530797e-02
39            	2.612813e-02	N/A	2.496801e-03	3.533862e-03	1.345251e-02	1.419919e-02
40            	2.619799e-02	N/A	2.523249e-03	3.512207e-03	1.562201e-02	1.818957e-02
41            	2.793991e-02	N/A	2.561792e-03	3.279450e-03	1.142966e-02	1.370750e-02
42            	2.278682e-02	N/A	2.359613e-03	3.145214e-03	1.020617e-02	1.188125e-02
43            	2.279402e-02	N/A	2.234978e-03	2.928100e-03	9.323268e-03	1.046217e-02
44            	2.362046e-02	N/A	2.297881e-03	2.675284e-03	8.403311e-03	9.439810e-03
45            	2.050754e-02	N/A	2.172867e-03	2.542310e-03	7.822619e-03	8.824758e-03
46            	2.131891e-02	N/A	2.040480e-03	2.361264e-03	7.090769e-03	8.296069e-03
47            	2.196888e-02	N/A	2.180532e-03	2.180240e-03	6.496842e-03	7.730968e-03
48            	2.105694e-02	N/A	2.154561e-03	2.027069e-03	6.386896e-03	7.278872e-03
49            	2.126957e-02	N/A	2.052685e-03	1.924686e-03	5.986195e-03	6.723199e-03
50            	2.019594e-02	N/A	2.055377e-03	1.781895e-03	5.447698e-03	6.292728e-03
51            	2.058537e-02	N/A	2.106330e-03	1.685801e-03	4.998645e-03	6.054013e-03
52            	2.025973e-02	N/A	2.018136e-03	1.592212e-03	4.802001e-03	5.688852e-03
53            	1.910092e-02	N/A	1.973967e-03	1.547330e-03	4.696456e-03	5.294927e-03
54            	1.979133e-02	N/A	2.022166e-03	1.456490e-03	4.421096e-03	5.120872e-03
55            	1.922336e-02	N/A	1.951968e-03	1.395767e-03	4.156576e-03	5.001601e-03
56            	1.816726e-02	N/A	1.903959e-03	1.377510e-03	3.981309e-03	4.818960e-03
57            	1.957579e-02	N/A	1.976064e-03	1.339988e-03	3.848059e-03	4.684875e-03
58            	1.858561e-02	N/A	1.929177e-03	1.298312e-03	3.687069e-03	4.533613e-03
59            	1.849666e-02	N/A	1.907353e-03	1.255305e-03	3.650129e-03	4.309840e-03
60            	1.946964e-02	N/A	2.003525e-03	1.212357e-03	3.549903e-03	4.164744e-03
61            	1.722328e-02	N/A	1.848906e-03	1.203315e-03	3.427563e-03	4.049075e-03
62            	1.834326e-02	N/A	1.871022e-03	1.153538e-03	3.337766e-03	3.941508e-03
63            	1.873230e-02	N/A	1.977644e-03	1.119851e-03	3.214635e-03	3.849733e-03
64            	1.656002e-02	N/A	1.804056e-03	1.101441e-03	3.233894e-03	3.851327e-03
65            	1.786843e-02	N/A	1.823699e-03	1.085025e-03	3.151810e-03	3.711730e-03
66            	1.803679e-02	N/A	1.944159e-03	1.065441e-03	3.076430e-03	3.611324e-03
67            	1.586707e-02	N/A	1.756665e-03	1.006366e-03	2.985555e-03	3.459191e-03
68            	1.753493e-02	N/A	1.785722e-03	1.017130e-03	2.908601e-03	3.363371e-03
69            	1.785779e-02	N/A	1.951277e-03	1.012231e-03	2.823279e-03	3.314058e-03
70            	1.658921e-02	N/A	1.807210e-03	9.635014e-04	2.745323e-03	3.238122e-03
71            	1.754101e-02	N/A	1.824387e-03	9.721058e-04	2.742604e-03	3.189738e-03
72            	1.693073e-02	N/A	1.900013e-03	9.599168e-04	2.670292e-03	3.100840e-03
73            	1.609373e-02	N/A	1.772671e-03	9.009505e-04	2.619686e-03	3.013299e-03
74            	1.623999e-02	N/A	1.745836e-03	9.265354e-04	2.564085e-03	2.937536e-03
75            	1.611509e-02	N/A	1.819345e-03	9.116407e-04	2.498967e-03	2.906358e-03
76            	1.576116e-02	N/A	1.738648e-03	8.511451e-04	2.427961e-03	2.840037e-03
77            	1.588541e-02	N/A	1.732565e-03	8.607203e-04	2.396362e-03	2.761153e-03
78            	1.612948e-02	N/A	1.825756e-03	8.738294e-04	2.411360e-03	2.749259e-03
79            	1.572452e-02	N/A	1.751826e-03	8.263850e-04	2.367811e-03	2.677832e-03
80            	1.518538e-02	N/A	1.692540e-03	7.989652e-04	2.302174e-03	2.633689e-03
81            	1.589068e-02	N/A	1.797804e-03	8.260826e-04	2.242494e-03	2.595565e-03
82            	1.500561e-02	N/A	1.726834e-03	7.784351e-04	2.195304e-03	2.521667e-03
83            	1.469170e-02	N/A	1.647664e-03	7.394498e-04	2.154094e-03	2.449706e-03
84            	1.567976e-02	N/A	1.765571e-03	7.692300e-04	2.128696e-03	2.398328e-03
85            	1.477192e-02	N/A	1.734578e-03	7.531216e-04	2.087809e-03	2.394924e-03
86            	1.445518e-02	N/A	1.641505e-03	7.234823e-04	2.029986e-03	2.356976e-03
87            	1.526184e-02	N/A	1.743655e-03	7.327388e-04	2.013042e-03	2.331040e-03
88            	1.408551e-02	N/A	1.688848e-03	7.364816e-04	1.983272e-03	2.278333e-03
89            	1.457283e-02	N/A	1.645186e-03	6.946728e-04	1.987087e-03	2.248304e-03
90            	1.521990e-02	N/A	1.768863e-03	6.993967e-04	1.978566e-03	2.233129e-03
91            	1.355442e-02	N/A	1.659558e-03	6.968288e-04	1.895309e-03	2.198882e-03
92            	1.441102e-02	N/A	1.629993e-03	6.880743e-04	1.858679e-03	2.169345e-03
93            	1.482068e-02	N/A	1.761271e-03	7.060439e-04	1.841181e-03	2.141519e-03
94            	1.313865e-02	N/A	1.633523e-03	6.685999e-04	1.818831e-03	2.068542e-03
95            	1.417793e-02	N/A	1.607604e-03	6.463501e-04	1.802092e-03	2.035784e-03
96            	1.419711e-02	N/A	1.729597e-03	6.862680e-04	1.775449e-03	2.038547e-03
97            	1.313870e-02	N/A	1.627050e-03	6.658474e-04	1.722530e-03	1.997559e-03
98            	1.397569e-02	N/A	1.609691e-03	6.365091e-04	1.714017e-03	1.981516e-03
99            	1.349315e-02	N/A	1.679893e-03	6.786813e-04	1.692164e-03	1.953316e-03
100           	1.304163e-02	N/A	1.607121e-03	6.670994e-04	1.664599e-03	1.913562e-03
101           	1.354014e-02	N/A	1.596773e-03	6.283209e-04	1.647228e-03	1.883282e-03
102           	1.305520e-02	N/A	1.641773e-03	6.404020e-04	1.628988e-03	1.890342e-03
103           	1.259771e-02	N/A	1.563920e-03	6.691526e-04	1.595123e-03	1.853874e-03
104           	1.308058e-02	N/A	1.564836e-03	6.642086e-04	1.573285e-03	1.827743e-03
105           	1.331159e-02	N/A	1.657439e-03	6.320083e-04	1.559580e-03	1.796598e-03
106           	1.249959e-02	N/A	1.591886e-03	6.459666e-04	1.543188e-03	1.773138e-03
107           	1.237327e-02	N/A	1.523694e-03	6.712848e-04	1.517203e-03	1.751598e-03
108           	1.279528e-02	N/A	1.607499e-03	6.468638e-04	1.505450e-03	1.743737e-03
109           	1.212106e-02	N/A	1.561148e-03	6.261800e-04	1.481562e-03	1.712510e-03
110           	1.223979e-02	N/A	1.518010e-03	6.747432e-04	1.465787e-03	1.696744e-03
111           	1.239442e-02	N/A	1.577901e-03	6.700084e-04	1.449004e-03	1.683965e-03
112           	1.166863e-02	N/A	1.516093e-03	6.478375e-04	1.433006e-03	1.657495e-03
113           	1.227456e-02	N/A	1.518605e-03	6.391025e-04	1.420790e-03	1.633201e-03
114           	1.262854e-02	N/A	1.629649e-03	7.078572e-04	1.408202e-03	1.634684e-03
115           	1.142195e-02	N/A	1.525275e-03	6.839252e-04	1.387676e-03	1.619900e-03
116           	1.172409e-02	N/A	1.468928e-03	6.403070e-04	1.380701e-03	1.588824e-03
117           	1.211203e-02	N/A	1.580276e-03	6.931543e-04	1.369919e-03	1.582660e-03
118           	1.133756e-02	N/A	1.519688e-03	7.053183e-04	1.342940e-03	1.571201e-03
119           	1.157187e-02	N/A	1.463274e-03	6.627457e-04	1.336257e-03	1.549712e-03
120           	1.177850e-02	N/A	1.548137e-03	6.769115e-04	1.334059e-03	1.534210e-03
121           	1.121936e-02	N/A	1.516799e-03	7.127766e-04	1.313939e-03	1.526728e-03
122           	1.155173e-02	N/A	1.481499e-03	6.747073e-04	1.297812e-03	1.509283e-03
123           	1.154760e-02	N/A	1.538580e-03	6.924519e-04	1.292344e-03	1.503105e-03
124           	1.080933e-02	N/A	1.473164e-03	6.826027e-04	1.275331e-03	1.480644e-03
125           	1.136203e-02	N/A	1.471284e-03	6.840035e-04	1.270696e-03	1.467205e-03
126           	1.144218e-02	N/A	1.543085e-03	7.118671e-04	1.256403e-03	1.464772e-03
127           	1.062862e-02	N/A	1.461428e-03	6.906876e-04	1.244047e-03	1.447674e-03
128           	1.103887e-02	N/A	1.439065e-03	6.637134e-04	1.242455e-03	1.422491e-03
129           	1.114404e-02	N/A	1.521957e-03	7.241687e-04	1.229518e-03	1.425612e-03
130           	1.071696e-02	N/A	1.478857e-03	7.112832e-04	1.206912e-03	1.412152e-03
131           	1.089324e-02	N/A	1.446729e-03	6.678358e-04	1.210903e-03	1.391545e-03
132           	1.067037e-02	N/A	1.471119e-03	7.124621e-04	1.200908e-03	1.383520e-03
133           	1.047998e-02	N/A	1.452912e-03	7.154724e-04	1.182603e-03	1.373250e-03
134           	1.084193e-02	N/A	1.451973e-03	6.770593e-04	1.175173e-03	1.361578e-03
135           	1.058843e-02	N/A	1.468738e-03	6.962008e-04	1.170552e-03	1.352808e-03
136           	1.016817e-02	N/A	1.427065e-03	7.121770e-04	1.160421e-03	1.336767e-03
137           	1.051088e-02	N/A	1.431231e-03	7.129334e-04	1.147275e-03	1.332011e-03
138           	1.070274e-02	N/A	1.486184e-03	7.097946e-04	1.138908e-03	1.324256e-03
139           	1.001271e-02	N/A	1.438873e-03	7.026962e-04	1.135579e-03	1.304889e-03
140           	1.011774e-02	N/A	1.379977e-03	6.998056e-04	1.123545e-03	1.295588e-03
141           	1.038428e-02	N/A	1.459077e-03	7.299369e-04	1.117310e-03	1.296933e-03
142           	9.866094e-03	N/A	1.419092e-03	7.097160e-04	1.104528e-03	1.277305e-03
143           	1.013995e-02	N/A	1.393774e-03	7.046244e-04	1.098854e-03	1.271798e-03
144           	1.031112e-02	N/A	1.459372e-03	7.523241e-04	1.094957e-03	1.271622e-03
145           	9.828783e-03	N/A	1.438853e-03	7.318100e-04	1.084598e-03	1.253601e-03
146           	1.004598e-02	N/A	1.406610e-03	7.000844e-04	1.078619e-03	1.242236e-03
147           	1.006781e-02	N/A	1.443452e-03	7.463066e-04	1.071119e-03	1.242307e-03
148           	9.509490e-03	N/A	1.395187e-03	7.457563e-04	1.058424e-03	1.226118e-03
149           	9.976090e-03	N/A	1.400448e-03	7.062243e-04	1.058900e-03	1.216886e-03
150           	1.001628e-02	N/A	1.461684e-03	7.559947e-04	1.053661e-03	1.224552e-03
151           	9.147456e-03	N/A	1.372921e-03	7.677199e-04	1.037132e-03	1.211900e-03
152           	9.533785e-03	N/A	1.341845e-03	7.131984e-04	1.037140e-03	1.192671e-03
153           	9.941363e-03	N/A	1.447591e-03	7.428890e-04	1.034987e-03	1.192201e-03
154           	9.514640e-03	N/A	1.426037e-03	7.740290e-04	1.014923e-03	1.189008e-03
155           	9.622380e-03	N/A	1.376628e-03	7.290337e-04	1.021486e-03	1.183645e-03
156           	9.449726e-03	N/A	1.402166e-03	7.428488e-04	1.020310e-03	1.175401e-03
157           	9.150479e-03	N/A	1.383763e-03	7.647442e-04	1.002946e-03	1.167827e-03
158           	9.716533e-03	N/A	1.382881e-03	7.208578e-04	9.970598e-04	1.165192e-03
159           	9.633056e-03	N/A	1.434784e-03	7.556855e-04	9.996498e-04	1.164189e-03
160           	8.969123e-03	N/A	1.381995e-03	7.355221e-04	9.938496e-04	1.151696e-03
161           	9.348169e-03	N/A	1.358711e-03	7.362125e-04	9.889012e-04	1.150289e-03
162           	9.152059e-03	N/A	1.369663e-03	7.558957e-04	9.820551e-04	1.147292e-03
163           	9.125722e-03	N/A	1.389260e-03	7.455278e-04	9.725879e-04	1.128745e-03
164           	9.667055e-03	N/A	1.403587e-03	7.128223e-04	9.728867e-04	1.132631e-03
165           	8.952378e-03	N/A	1.378083e-03	7.847147e-04	9.690660e-04	1.141669e-03
166           	8.723881e-03	N/A	1.337631e-03	7.441875e-04	9.647934e-04	1.120401e-03
167           	9.279189e-03	N/A	1.353555e-03	7.092429e-04	9.606605e-04	1.116748e-03
168           	8.995990e-03	N/A	1.376311e-03	8.002007e-04	9.512831e-04	1.115683e-03
169           	9.031303e-03	N/A	1.378176e-03	7.593043e-04	9.492974e-04	1.105091e-03
170           	9.019533e-03	N/A	1.358445e-03	7.246422e-04	9.471117e-04	1.101993e-03
171           	8.802315e-03	N/A	1.352235e-03	7.796694e-04	9.385603e-04	1.102831e-03
172           	8.800940e-03	N/A	1.364064e-03	7.744562e-04	9.402184e-04	1.101499e-03
173           	8.778845e-03	N/A	1.328931e-03	7.236901e-04	9.327358e-04	1.091758e-03
174           	9.063804e-03	N/A	1.380542e-03	7.641482e-04	9.295597e-04	1.091860e-03
175           	8.549239e-03	N/A	1.372823e-03	7.793194e-04	9.249159e-04	1.084206e-03
176           	8.599249e-03	N/A	1.305231e-03	7.362723e-04	9.203051e-04	1.077987e-03
177           	8.878004e-03	N/A	1.359070e-03	7.631598e-04	9.254027e-04	1.081239e-03
178           	8.538765e-03	N/A	1.363585e-03	7.711408e-04	9.126346e-04	1.070890e-03
179           	9.259752e-03	N/A	1.394157e-03	7.452071e-04	9.161221e-04	1.077261e-03
180           	8.811043e-03	N/A	1.402764e-03	7.805261e-04	9.168183e-04	1.075009e-03
181           	8.132135e-03	N/A	1.320923e-03	7.511833e-04	9.031733e-04	1.062667e-03
182           	8.877925e-03	N/A	1.347112e-03	7.346609e-04	9.073603e-04	1.064718e-03
183           	8.623593e-03	N/A	1.374539e-03	7.749772e-04	9.018624e-04	1.063929e-03
184           	8.560223e-03	N/A	1.367091e-03	7.568538e-04	8.953173e-04	1.054610e-03
185           	8.792228e-03	N/A	1.366443e-03	7.265680e-04	9.039884e-04	1.053391e-03
186           	8.127224e-03	N/A	1.322157e-03	7.667681e-04	8.920503e-04	1.054714e-03
187           	8.649848e-03	N/A	1.360419e-03	7.625163e-04	8.898324e-04	1.048720e-03
188           	8.916424e-03	N/A	1.407938e-03	7.339361e-04	8.983228e-04	1.050703e-03
189           	8.465798e-03	N/A	1.364585e-03	7.621273e-04	8.882692e-04	1.050817e-03
190           	8.470954e-03	N/A	1.373327e-03	7.296505e-04	8.889984e-04	1.052271e-03
191           	8.381801e-03	N/A	1.350445e-03	7.465251e-04	8.940729e-04	1.040798e-03
192           	8.328786e-03	N/A	1.327290e-03	7.677024e-04	8.841317e-04	1.045464e-03
193           	8.651137e-03	N/A	1.395691e-03	7.187722e-04	8.805324e-04	1.046560e-03
194           	8.662065e-03	N/A	1.399748e-03	7.214650e-04	8.882934e-04	1.039921e-03
195           	8.365211e-03	N/A	1.346492e-03	7.657461e-04	8.814537e-04	1.042287e-03
196           	8.278982e-03	N/A	1.378258e-03	7.163666e-04	8.778916e-04	1.041056e-03
197           	8.409189e-03	N/A	1.350665e-03	7.308395e-04	8.863233e-04	1.036128e-03
198           	8.505737e-03	N/A	1.370265e-03	7.535080e-04	8.797269e-04	1.041083e-03
199           	8.478630e-03	N/A	1.415239e-03	7.549664e-04	8.723932e-04	1.037947e-03
200           	8.386173e-03	N/A	1.369750e-03	7.232793e-04	8.793851e-04	1.035573e-03
201           	8.272952e-03	N/A	1.344965e-03	7.723110e-04	8.810859e-04	1.042417e-03
202           	8.437348e-03	N/A	1.410318e-03	7.332155e-04	8.799395e-04	1.038919e-03
203           	8.809437e-03	N/A	1.434620e-03	7.395551e-04	8.790134e-04	1.031590e-03
204           	8.309654e-03	N/A	1.389594e-03	7.735594e-04	8.758487e-04	1.039880e-03
205           	8.165203e-03	N/A	1.378813e-03	7.497497e-04	8.725416e-04	1.030070e-03
206           	8.417449e-03	N/A	1.393387e-03	7.098659e-04	8.877347e-04	1.032914e-03
207           	8.017800e-03	N/A	1.337716e-03	7.775669e-04	8.719156e-04	1.041387e-03
208           	8.651627e-03	N/A	1.430711e-03	7.659665e-04	8.664260e-04	1.033873e-03
209           	8.774857e-03	N/A	1.473443e-03	7.331387e-04	8.835541e-04	1.033398e-03
210           	7.832159e-03	N/A	1.345537e-03	7.568411e-04	8.758042e-04	1.035600e-03
211           	8.706626e-03	N/A	1.442598e-03	7.919708e-04	8.753075e-04	1.036581e-03
212           	8.578109e-03	N/A	1.469740e-03	7.404120e-04	8.792430e-04	1.041561e-03
213           	8.143884e-03	N/A	1.365114e-03	7.172740e-04	8.752865e-04	1.034610e-03
214           	8.866787e-03	N/A	1.515653e-03	7.886988e-04	8.849905e-04	1.038591e-03
215           	8.020247e-03	N/A	1.426415e-03	7.687670e-04	8.737318e-04	1.042077e-03
216           	7.927498e-03	N/A	1.307453e-03	7.102275e-04	8.705597e-04	1.028318e-03
217           	8.634126e-03	N/A	1.477659e-03	7.471673e-04	8.820158e-04	1.028315e-03
218           	8.652356e-03	N/A	1.502464e-03	7.823109e-04	8.757211e-04	1.042323e-03
219           	8.622309e-03	N/A	1.443513e-03	7.550714e-04	8.694907e-04	1.040603e-03
220           	8.255545e-03	N/A	1.488273e-03	7.373297e-04	8.834554e-04	1.036999e-03
221           	8.264868e-03	N/A	1.422396e-03	7.702847e-04	8.760934e-04	1.034309e-03
222           	8.282166e-03	N/A	1.415893e-03	7.803845e-04	8.688890e-04	1.034846e-03
223           	8.463421e-03	N/A	1.492432e-03	7.330448e-04	8.700180e-04	1.027518e-03
224           	8.492459e-03	N/A	1.470671e-03	7.539269e-04	8.798293e-04	1.034466e-03
225           	7.852129e-03	N/A	1.374252e-03	7.706532e-04	8.700693e-04	1.035886e-03
226           	8.370980e-03	N/A	1.466112e-03	7.272708e-04	8.683534e-04	1.022231e-03
227           	8.541365e-03	N/A	1.486028e-03	7.578053e-04	8.692490e-04	1.028579e-03
228           	8.061433e-03	N/A	1.407730e-03	7.770030e-04	8.642369e-04	1.030456e-03
229           	8.758570e-03	N/A	1.510777e-03	7.438039e-04	8.656657e-04	1.025013e-03
230           	8.336524e-03	N/A	1.504683e-03	7.445080e-04	8.661448e-04	1.029773e-03
231           	7.673294e-03	N/A	1.354290e-03	7.607167e-04	8.609403e-04	1.018964e-03
232           	8.618914e-03	N/A	1.478331e-03	7.215999e-04	8.612479e-04	1.014708e-03
233           	8.236560e-03	N/A	1.490187e-03	7.551935e-04	8.649853e-04	1.028770e-03
234           	8.075035e-03	N/A	1.381150e-03	7.399788e-04	8.562900e-04	1.016730e-03
235           	8.683091e-03	N/A	1.542033e-03	7.557892e-04	8.562509e-04	1.019380e-03
236           	7.799844e-03	N/A	1.445592e-03	7.480180e-04	8.477883e-04	1.020262e-03
237           	7.992844e-03	N/A	1.349092e-03	7.214405e-04	8.563823e-04	1.007615e-03
238           	8.436053e-03	N/A	1.519449e-03	7.351157e-04	8.526175e-04	1.009831e-03
239           	8.320173e-03	N/A	1.498880e-03	7.512898e-04	8.403155e-04	1.013559e-03
240           	8.365819e-03	N/A	1.446020e-03	7.374950e-04	8.510930e-04	1.011591e-03
241           	7.853913e-03	N/A	1.477267e-03	7.433650e-04	8.464654e-04	1.011350e-03
242           	8.045404e-03	N/A	1.429433e-03	7.112360e-04	8.490816e-04	1.007722e-03
243           	8.037145e-03	N/A	1.404182e-03	7.437775e-04	8.373258e-04	1.007798e-03
244           	8.462764e-03	N/A	1.544652e-03	7.053164e-04	8.311763e-04	9.987304e-04
245           	8.496112e-03	N/A	1.535505e-03	7.319369e-04	8.408316e-04	1.001579e-03
246           	7.465615e-03	N/A	1.359489e-03	7.412724e-04	8.331499e-04	1.005693e-03
247           	8.182427e-03	N/A	1.479862e-03	6.999649e-04	8.342396e-04	9.931838e-04
248           	8.310292e-03	N/A	1.511405e-03	7.030765e-04	8.267320e-04	9.940236e-04
249           	7.895785e-03	N/A	1.423212e-03	7.410281e-04	8.244807e-04	9.928839e-04
250           	8.270540e-03	N/A	1.520401e-03	7.292905e-04	8.296233e-04	9.878845e-04
251           	7.754939e-03	N/A	1.451695e-03	7.176987e-04	8.309982e-04	9.987932e-04
252           	7.933082e-03	N/A	1.395907e-03	7.047411e-04	8.237467e-04	9.847735e-04
253           	8.307562e-03	N/A	1.555410e-03	7.451561e-04	8.184057e-04	9.822018e-04
254           	8.187175e-03	N/A	1.507949e-03	7.203767e-04	8.156440e-04	9.871036e-04
255           	7.941812e-03	N/A	1.447958e-03	7.134830e-04	8.255990e-04	9.850213e-04
256           	7.612642e-03	N/A	1.464416e-03	7.449181e-04	8.125458e-04	9.769146e-04
257           	7.867569e-03	N/A	1.435929e-03	7.109958e-04	8.140513e-04	9.777779e-04
258           	7.811820e-03	N/A	1.412249e-03	7.337298e-04	8.075561e-04	9.793333e-04
259           	8.112525e-03	N/A	1.522285e-03	7.399285e-04	8.074385e-04	9.693058e-04
260           	8.339327e-03	N/A	1.541127e-03	7.136956e-04	8.133269e-04	9.750980e-04
261           	7.472772e-03	N/A	1.410175e-03	7.503012e-04	8.092759e-04	9.770685e-04
262           	7.823990e-03	N/A	1.474107e-03	7.332905e-04	8.005271e-04	9.652977e-04
263           	8.199506e-03	N/A	1.526300e-03	7.025381e-04	8.027872e-04	9.639176e-04
264           	7.637478e-03	N/A	1.430061e-03	7.259680e-04	7.967451e-04	9.624669e-04
265           	8.049231e-03	N/A	1.523246e-03	7.542636e-04	8.121220e-04	9.747170e-04
266           	7.883631e-03	N/A	1.501501e-03	7.403249e-04	8.163093e-04	9.722339e-04
267           	7.188071e-03	N/A	1.357103e-03	7.383279e-04	7.986327e-04	9.779046e-04
268           	8.093149e-03	N/A	1.506187e-03	7.379888e-04	7.902375e-04	9.582970e-04
269           	7.967567e-03	N/A	1.543822e-03	7.466831e-04	8.033529e-04	9.641092e-04
270           	7.368856e-03	N/A	1.367356e-03	7.695904e-04	7.873980e-04	9.607737e-04
271           	8.058814e-03	N/A	1.523959e-03	7.490365e-04	7.884974e-04	9.590258e-04
272           	7.746956e-03	N/A	1.516936e-03	7.408708e-04	7.900488e-04	9.570654e-04
273           	7.447446e-03	N/A	1.394798e-03	7.650604e-04	7.864342e-04	9.481755e-04
274           	7.912777e-03	N/A	1.520332e-03	7.906583e-04	7.821070e-04	9.494076e-04
275           	7.585711e-03	N/A	1.486559e-03	7.551367e-04	7.985809e-04	9.635373e-04
276           	7.480767e-03	N/A	1.395249e-03	7.652252e-04	7.903198e-04	9.453351e-04
277           	7.916420e-03	N/A	1.543333e-03	8.166106e-04	7.830694e-04	9.420019e-04
278           	7.703162e-03	N/A	1.500520e-03	7.954359e-04	7.722743e-04	9.472622e-04
279           	7.533369e-03	N/A	1.420692e-03	7.654586e-04	7.772059e-04	9.418575e-04
280           	7.659889e-03	N/A	1.519797e-03	7.896152e-04	7.699274e-04	9.388348e-04
281           	7.566728e-03	N/A	1.480031e-03	8.065788e-04	7.735016e-04	9.395348e-04
282           	7.407706e-03	N/A	1.405744e-03	7.668934e-04	7.681132e-04	9.409584e-04
283           	7.526675e-03	N/A	1.495308e-03	7.709549e-04	7.582515e-04	9.333620e-04
284           	7.753739e-03	N/A	1.495114e-03	7.911095e-04	7.664415e-04	9.269287e-04
285           	7.506597e-03	N/A	1.439050e-03	7.621041e-04	7.626883e-04	9.296460e-04
286           	7.479709e-03	N/A	1.502077e-03	7.480211e-04	7.548768e-04	9.208970e-04
287           	7.737155e-03	N/A	1.514803e-03	7.781329e-04	7.591646e-04	9.202726e-04
288           	7.145133e-03	N/A	1.389087e-03	7.586224e-04	7.487665e-04	9.132872e-04
289           	7.408518e-03	N/A	1.482146e-03	7.559504e-04	7.413825e-04	9.036267e-04
290           	7.872614e-03	N/A	1.539582e-03	7.863871e-04	7.487406e-04	9.125150e-04
291           	7.027924e-03	N/A	1.402818e-03	7.744506e-04	7.401887e-04	9.110902e-04
292           	7.345705e-03	N/A	1.460116e-03	7.380726e-04	7.398049e-04	8.961045e-04
293           	7.650458e-03	N/A	1.518101e-03	7.959447e-04	7.395319e-04	9.041246e-04
294           	6.980604e-03	N/A	1.375171e-03	8.010994e-04	7.335362e-04	9.038648e-04
295           	7.689526e-03	N/A	1.506327e-03	7.419917e-04	7.344392e-04	8.915668e-04
296           	7.440027e-03	N/A	1.516934e-03	7.727443e-04	7.340974e-04	8.949041e-04
297           	6.749354e-03	N/A	1.328260e-03	8.126248e-04	7.205397e-04	8.924431e-04
298           	7.709092e-03	N/A	1.506090e-03	7.356432e-04	7.294942e-04	8.846088e-04
299           	7.333132e-03	N/A	1.512320e-03	7.407348e-04	7.288491e-04	8.868671e-04
300           	6.860143e-03	N/A	1.334961e-03	7.943045e-04	7.242466e-04	8.859573e-04
301           	7.545971e-03	N/A	1.502363e-03	7.873241e-04	7.227558e-04	8.839266e-04
302           	7.301600e-03	N/A	1.490738e-03	7.473325e-04	7.229651e-04	8.800444e-04
303           	7.231016e-03	N/A	1.408339e-03	7.850114e-04	7.243384e-04	8.732589e-04
304           	7.475515e-03	N/A	1.532851e-03	7.984245e-04	7.124139e-04	8.768532e-04
305           	7.190521e-03	N/A	1.463696e-03	7.461309e-04	7.167311e-04	8.738775e-04
306           	7.077207e-03	N/A	1.388009e-03	7.819756e-04	7.119408e-04	8.708030e-04
307           	7.341811e-03	N/A	1.519437e-03	7.936772e-04	7.047956e-04	8.665004e-04
308           	7.160566e-03	N/A	1.457503e-03	7.535200e-04	7.081105e-04	8.674772e-04
309           	6.870205e-03	N/A	1.358191e-03	7.812683e-04	7.191662e-04	8.659751e-04
310           	7.372645e-03	N/A	1.510752e-03	7.958002e-04	6.987237e-04	8.635877e-04
311           	7.325127e-03	N/A	1.498978e-03	7.794195e-04	7.039788e-04	8.606362e-04
312           	6.889809e-03	N/A	1.376410e-03	7.694245e-04	6.988916e-04	8.565157e-04
313           	7.113856e-03	N/A	1.480044e-03	8.141549e-04	6.939446e-04	8.565948e-04
314           	7.127946e-03	N/A	1.471457e-03	7.793478e-04	7.009729e-04	8.565678e-04
315           	6.873243e-03	N/A	1.367955e-03	7.671330e-04	6.877610e-04	8.477922e-04
316           	7.189190e-03	N/A	1.494617e-03	8.166491e-04	6.900808e-04	8.492396e-04
317           	7.243155e-03	N/A	1.504835e-03	8.191833e-04	6.944161e-04	8.470555e-04
318           	6.714466e-03	N/A	1.361559e-03	7.689534e-04	6.856003e-04	8.459106e-04
319           	7.128354e-03	N/A	1.479538e-03	8.068522e-04	7.060980e-04	8.465051e-04
320           	7.277844e-03	N/A	1.520183e-03	8.419250e-04	6.926709e-04	8.467001e-04
321           	6.538963e-03	N/A	1.343222e-03	7.968920e-04	6.819130e-04	8.450403e-04
322           	7.207450e-03	N/A	1.478331e-03	7.936922e-04	6.890565e-04	8.360275e-04
323           	7.200489e-03	N/A	1.527345e-03	8.532658e-04	6.829443e-04	8.416985e-04
324           	6.467260e-03	N/A	1.346810e-03	8.270195e-04	6.766814e-04	8.421959e-04
325           	7.232113e-03	N/A	1.481461e-03	7.879609e-04	6.792668e-04	8.335698e-04
326           	7.026833e-03	N/A	1.505435e-03	8.349555e-04	6.823494e-04	8.334826e-04
327           	6.640365e-03	N/A	1.363661e-03	8.471547e-04	6.739501e-04	8.338315e-04
328           	7.263647e-03	N/A	1.515705e-03	7.986200e-04	6.709986e-04	8.310765e-04
329           	6.783261e-03	N/A	1.472234e-03	8.075658e-04	6.760142e-04	8.278465e-04
330           	6.592655e-03	N/A	1.352809e-03	8.492627e-04	6.717914e-04	8.196851e-04
331           	7.097123e-03	N/A	1.499600e-03	8.115864e-04	6.594417e-04	8.165238e-04
332           	6.920358e-03	N/A	1.483297e-03	7.745586e-04	6.635379e-04	8.164869e-04
333           	6.687686e-03	N/A	1.379620e-03	8.525869e-04	6.568262e-04	8.124078e-04
334           	6.873877e-03	N/A	1.490276e-03	8.298697e-04	6.600049e-04	8.103993e-04
335           	6.958693e-03	N/A	1.475171e-03	8.073819e-04	6.543830e-04	8.151868e-04
336           	6.582906e-03	N/A	1.374280e-03	8.299878e-04	6.606218e-04	8.086656e-04
337           	6.813174e-03	N/A	1.478151e-03	8.311011e-04	6.566731e-04	8.041747e-04
338           	6.990857e-03	N/A	1.491491e-03	8.137793e-04	6.569420e-04	8.063494e-04
339           	6.418249e-03	N/A	1.355946e-03	8.253794e-04	6.556183e-04	8.005451e-04
340           	6.868311e-03	N/A	1.478774e-03	8.286455e-04	6.442516e-04	7.996970e-04
341           	6.829967e-03	N/A	1.476531e-03	8.405718e-04	6.581240e-04	8.150120e-04
342           	6.280709e-03	N/A	1.324054e-03	8.401941e-04	6.430652e-04	7.974042e-04
343           	7.106991e-03	N/A	1.510947e-03	8.440144e-04	6.427370e-04	7.959679e-04
344           	6.768803e-03	N/A	1.501981e-03	8.488243e-04	6.516066e-04	7.998576e-04
345           	6.214071e-03	N/A	1.314638e-03	8.308072e-04	6.384629e-04	7.867944e-04
346           	7.016138e-03	N/A	1.502076e-03	8.479413e-04	6.436852e-04	7.864965e-04
347           	6.613544e-03	N/A	1.477179e-03	8.474589e-04	6.386687e-04	8.071159e-04
348           	6.405904e-03	N/A	1.333391e-03	8.448572e-04	6.383356e-04	7.886046e-04
349           	6.864200e-03	N/A	1.510514e-03	8.627941e-04	6.373533e-04	7.825830e-04
350           	6.537102e-03	N/A	1.458051e-03	8.646805e-04	6.268153e-04	7.854126e-04
351           	6.438608e-03	N/A	1.345427e-03	8.156424e-04	6.323054e-04	7.797135e-04
352           	6.694870e-03	N/A	1.495404e-03	8.615069e-04	6.302353e-04	7.771770e-04
353           	6.641098e-03	N/A	1.458844e-03	8.938575e-04	6.202849e-04	7.790407e-04
354           	6.355043e-03	N/A	1.352123e-03	8.340404e-04	6.240061e-04	7.784456e-04
355           	6.611750e-03	N/A	1.475555e-03	8.408373e-04	6.271707e-04	7.697536e-04