# Residuals   
# Time        	k             	nut           	omega         	p             	Urelx         	Urely         
0             	N/A	N/A	N/A	N/A	N/A
1             	1.000000e+00	N/A	5.098443e-02	1.000000e+00	1.000000e+00	1.000000e+00
2             	4.616643e-01	N/A	9.176235e-02	1.605650e-01	5.844404e-01	7.536939e-01
3             	4.013157e-01	N/A	7.330440e-02	1.683610e-01	3.989155e-01	3.935279e-01
4             	3.285414e-01	N/A	4.252636e-02	1.483652e-01	3.153305e-01	3.590659e-01
5             	2.988557e-01	N/A	2.754199e-02	1.479188e-01	2.511806e-01	2.898774e-01
6             	2.523143e-01	N/A	2.095716e-02	1.470532e-01	2.185552e-01	2.398949e-01
7             	2.203350e-01	N/A	1.831110e-02	1.445776e-01	2.104283e-01	2.085041e-01
8             	2.201348e-01	N/A	1.547316e-02	1.463463e-01	1.720424e-01	1.837265e-01
9             	2.316110e-01	N/A	1.298432e-02	1.535982e-01	1.500346e-01	1.554205e-01
10            	2.387876e-01	N/A	1.213885e-02	1.323259e-01	1.304028e-01	1.416294e-01
11            	2.416540e-01	N/A	1.000865e-02	1.126862e-01	1.209291e-01	1.387603e-01
12            	2.399887e-01	N/A	9.075655e-03	1.027650e-01	1.174644e-01	1.238113e-01
13            	2.028902e-01	N/A	9.504210e-03	1.019034e-01	1.090278e-01	1.106398e-01
14            	1.835545e-01	N/A	9.550120e-03	1.017389e-01	1.030629e-01	1.007129e-01
15            	1.761690e-01	N/A	9.645211e-03	9.964267e-02	9.141903e-02	9.516167e-02
16            	1.886263e-01	N/A	7.712585e-03	1.015752e-01	7.745890e-02	9.453959e-02
17            	1.832249e-01	N/A	8.022933e-03	9.747718e-02	7.366592e-02	9.010427e-02
18            	1.789568e-01	N/A	7.523948e-03	9.736150e-02	7.181136e-02	7.975215e-02
19            	1.760813e-01	N/A	7.879621e-03	9.995967e-02	7.161491e-02	7.163609e-02
20            	1.725780e-01	N/A	7.969098e-03	9.843235e-02	6.768167e-02	6.421265e-02
21            	1.672095e-01	N/A	8.019660e-03	9.325436e-02	6.146610e-02	6.116534e-02
22            	1.638738e-01	N/A	7.426188e-03	8.947754e-02	5.626782e-02	5.882576e-02
23            	1.534025e-01	N/A	6.867720e-03	8.215047e-02	5.237531e-02	5.789102e-02
24            	1.785205e-01	N/A	7.004547e-03	8.175556e-02	4.899338e-02	5.545604e-02
25            	1.492544e-01	N/A	6.466449e-03	7.043476e-02	4.651729e-02	5.272153e-02
26            	1.652685e-01	N/A	5.402280e-03	6.849033e-02	4.629167e-02	4.701339e-02
27            	1.637112e-01	N/A	5.473246e-03	6.391630e-02	4.343908e-02	4.087142e-02
28            	1.576721e-01	N/A	5.140955e-03	5.950201e-02	4.011741e-02	3.810493e-02
29            	1.573729e-01	N/A	5.087001e-03	5.470155e-02	3.740962e-02	3.627526e-02
30            	1.556816e-01	N/A	5.614356e-03	5.231526e-02	3.340399e-02	3.288590e-02
31            	1.779959e-01	N/A	5.138878e-03	5.069270e-02	3.032334e-02	3.058850e-02
32            	1.493879e-01	N/A	5.214090e-03	4.343243e-02	2.765237e-02	2.740643e-02
33            	1.687565e-01	N/A	4.458001e-03	4.120894e-02	2.397103e-02	2.451394e-02
34            	1.697537e-01	N/A	4.653150e-03	3.939462e-02	2.116242e-02	2.253916e-02
35            	1.397626e-01	N/A	3.872650e-03	3.914318e-02	2.004822e-02	2.096702e-02
36            	1.829569e-01	N/A	3.562869e-03	4.100720e-02	1.847525e-02	2.077001e-02
37            	1.328861e-01	N/A	3.279856e-03	3.699573e-02	1.764812e-02	2.033638e-02
38            	1.656318e-01	N/A	2.601276e-03	3.388937e-02	1.637712e-02	1.975238e-02
39            	1.504534e-01	N/A	2.902514e-03	3.262881e-02	1.604630e-02	1.893271e-02
40            	1.458047e-01	N/A	2.555837e-03	3.155568e-02	1.513662e-02	1.725955e-02
41            	1.949711e-01	N/A	2.744576e-03	2.944756e-02	1.437932e-02	1.559984e-02
42            	1.253884e-01	N/A	3.033430e-03	2.642278e-02	1.296750e-02	1.429703e-02
43            	1.017402e-01	N/A	2.077881e-03	2.402841e-02	1.221887e-02	1.358500e-02
44            	2.024619e-01	N/A	2.480323e-03	2.170402e-02	1.132702e-02	1.303858e-02
45            	1.192958e-01	N/A	3.216640e-03	1.921773e-02	1.090405e-02	1.236289e-02
46            	1.101427e-01	N/A	1.813750e-03	1.704572e-02	1.032527e-02	1.114177e-02
47            	1.781080e-01	N/A	2.320889e-03	1.616593e-02	9.837197e-03	1.031123e-02
48            	1.376582e-01	N/A	3.096295e-03	1.750575e-02	9.421471e-03	1.028456e-02
49            	9.375050e-02	N/A	2.020659e-03	2.098390e-02	9.450141e-03	1.068652e-02
50            	1.151601e-01	N/A	1.933482e-03	2.243054e-02	9.418064e-03	1.154499e-02
51            	1.845453e-01	N/A	2.531386e-03	2.047463e-02	9.753621e-03	1.259942e-02
52            	1.220250e-01	N/A	3.190630e-03	2.061037e-02	9.640142e-03	1.287136e-02
53            	1.001927e-01	N/A	2.172026e-03	2.122023e-02	1.076000e-02	1.280500e-02
54            	1.650861e-01	N/A	2.340733e-03	2.208835e-02	1.125910e-02	1.289791e-02
55            	1.083259e-01	N/A	2.578590e-03	2.237445e-02	1.157866e-02	1.354124e-02
56            	1.007034e-01	N/A	1.933281e-03	2.189580e-02	1.074689e-02	1.405539e-02
57            	1.653294e-01	N/A	2.344336e-03	1.980963e-02	1.089348e-02	1.367071e-02
58            	1.112635e-01	N/A	2.884895e-03	1.774024e-02	1.083021e-02	1.276662e-02
59            	1.037955e-01	N/A	2.239635e-03	1.923229e-02	1.050429e-02	1.331938e-02
60            	1.526081e-01	N/A	2.437169e-03	2.124483e-02	1.082623e-02	1.444797e-02
61            	1.127768e-01	N/A	2.800953e-03	2.256371e-02	1.099899e-02	1.486258e-02
62            	1.216331e-01	N/A	2.175042e-03	2.205529e-02	1.119987e-02	1.420937e-02
63            	1.446431e-01	N/A	2.364435e-03	1.941545e-02	1.142257e-02	1.393267e-02
64            	1.219169e-01	N/A	2.577731e-03	2.002308e-02	1.036434e-02	1.385544e-02
65            	1.197404e-01	N/A	2.349645e-03	2.095026e-02	1.009061e-02	1.411860e-02
66            	1.278790e-01	N/A	2.368642e-03	2.173762e-02	1.040404e-02	1.482451e-02
67            	1.219503e-01	N/A	2.302625e-03	2.136237e-02	1.100391e-02	1.447128e-02
68            	9.134714e-02	N/A	2.034486e-03	1.957858e-02	1.076236e-02	1.463042e-02
69            	1.341647e-01	N/A	2.189125e-03	1.738074e-02	1.033424e-02	1.400715e-02
70            	1.459740e-01	N/A	3.182612e-03	1.552017e-02	1.070984e-02	1.283224e-02
71            	8.544804e-02	N/A	2.862143e-03	1.651048e-02	1.026249e-02	1.345419e-02
72            	9.456502e-02	N/A	2.043191e-03	1.997796e-02	1.042635e-02	1.436753e-02
73            	1.391974e-01	N/A	2.574692e-03	2.243296e-02	1.140123e-02	1.545895e-02
74            	1.086469e-01	N/A	2.876494e-03	2.128146e-02	1.154586e-02	1.614337e-02
75            	1.136538e-01	N/A	2.607153e-03	2.151089e-02	1.048630e-02	1.578283e-02
76            	7.773296e-02	N/A	2.330328e-03	2.131002e-02	1.055979e-02	1.490342e-02
77            	1.451110e-01	N/A	2.341319e-03	2.118933e-02	1.063011e-02	1.477144e-02
78            	1.494113e-01	N/A	2.959635e-03	2.086516e-02	1.140478e-02	1.475953e-02
79            	7.174588e-02	N/A	2.453473e-03	1.949126e-02	1.096493e-02	1.519413e-02
80            	5.691888e-02	N/A	1.816172e-03	1.784314e-02	1.048354e-02	1.453531e-02
81            	1.106458e-01	N/A	2.158638e-03	1.596687e-02	1.073704e-02	1.297785e-02
82            	1.523003e-01	N/A	2.819329e-03	1.661355e-02	1.112477e-02	1.315386e-02
83            	1.096188e-01	N/A	2.657446e-03	1.921634e-02	1.047016e-02	1.437171e-02
84            	7.342187e-02	N/A	2.284321e-03	2.176068e-02	1.096428e-02	1.560978e-02
85            	7.261669e-02	N/A	1.985658e-03	2.075158e-02	1.118237e-02	1.571645e-02
86            	1.519422e-01	N/A	2.329121e-03	2.102827e-02	1.081055e-02	1.551611e-02
87            	1.143733e-01	N/A	3.099380e-03	2.114774e-02	1.104114e-02	1.529788e-02
88            	8.513758e-02	N/A	2.225781e-03	2.079287e-02	1.072196e-02	1.486377e-02
89            	7.199357e-02	N/A	1.819012e-03	2.071730e-02	1.099133e-02	1.437372e-02
90            	1.285393e-01	N/A	2.049508e-03	1.952485e-02	1.085165e-02	1.503093e-02
91            	1.118793e-01	N/A	2.650495e-03	1.757553e-02	1.080786e-02	1.475265e-02
92            	1.030385e-01	N/A	2.221129e-03	1.529986e-02	1.070987e-02	1.322700e-02
93            	7.791310e-02	N/A	2.236913e-03	1.560217e-02	1.091074e-02	1.248281e-02
94            	1.049766e-01	N/A	2.039804e-03	1.840157e-02	1.014027e-02	1.390069e-02
95            	1.147248e-01	N/A	2.792090e-03	2.111981e-02	1.099381e-02	1.566693e-02
96            	7.651332e-02	N/A	2.549315e-03	2.070905e-02	1.168884e-02	1.644800e-02
97            	1.227401e-01	N/A	2.262918e-03	2.011411e-02	1.137119e-02	1.640729e-02
98            	5.748463e-02	N/A	2.593569e-03	2.090313e-02	1.154690e-02	1.497688e-02
99            	7.026896e-02	N/A	2.143094e-03	2.068091e-02	1.093573e-02	1.512050e-02
100           	1.269152e-01	N/A	2.114709e-03	2.052286e-02	1.164484e-02	1.514472e-02
101           	7.558134e-02	N/A	2.270535e-03	1.929110e-02	1.216236e-02	1.561277e-02
102           	1.175655e-01	N/A	2.238026e-03	1.782974e-02	1.103953e-02	1.545334e-02
103           	6.889996e-02	N/A	2.458741e-03	1.541524e-02	1.154741e-02	1.416832e-02
104           	7.103723e-02	N/A	2.049177e-03	1.529342e-02	1.118997e-02	1.397651e-02
105           	1.067424e-01	N/A	1.972205e-03	1.786836e-02	1.124053e-02	1.439050e-02
106           	6.933513e-02	N/A	2.640795e-03	2.075675e-02	1.245751e-02	1.680679e-02
107           	1.310716e-01	N/A	2.417327e-03	2.112808e-02	1.248999e-02	1.783728e-02
108           	9.313812e-02	N/A	2.604203e-03	2.019543e-02	1.312584e-02	1.819329e-02
109           	5.948007e-02	N/A	2.193983e-03	2.105503e-02	1.217686e-02	1.673530e-02
110           	1.047831e-01	N/A	2.176193e-03	2.038126e-02	1.202076e-02	1.571905e-02
111           	8.476539e-02	N/A	2.254431e-03	2.026670e-02	1.285145e-02	1.663976e-02
112           	1.302333e-01	N/A	2.142958e-03	1.915751e-02	1.186106e-02	1.617192e-02
113           	6.707667e-02	N/A	2.548551e-03	1.756448e-02	1.186288e-02	1.656560e-02
114           	8.385853e-02	N/A	2.051091e-03	1.509858e-02	1.123657e-02	1.497893e-02
115           	5.980209e-02	N/A	2.118220e-03	1.470703e-02	1.170718e-02	1.320687e-02
116           	5.316943e-02	N/A	1.773146e-03	1.681913e-02	1.070591e-02	1.421049e-02
117           	7.547239e-02	N/A	1.839019e-03	1.979486e-02	1.124167e-02	1.599101e-02
118           	1.427360e-01	N/A	2.318514e-03	2.082337e-02	1.283200e-02	1.734008e-02
119           	7.596216e-02	N/A	2.841259e-03	1.948128e-02	1.237140e-02	1.792094e-02
120           	6.871942e-02	N/A	2.316805e-03	2.007602e-02	1.208293e-02	1.647035e-02
121           	6.350399e-02	N/A	2.003741e-03	1.961665e-02	1.154606e-02	1.579487e-02
122           	4.101705e-02	N/A	1.621348e-03	1.938853e-02	1.186150e-02	1.576986e-02
123           	8.577034e-02	N/A	1.719942e-03	1.869133e-02	1.196091e-02	1.553523e-02
124           	1.439715e-01	N/A	2.466481e-03	1.732388e-02	1.159933e-02	1.627871e-02
125           	7.877476e-02	N/A	2.649607e-03	1.503607e-02	1.219178e-02	1.482061e-02
126           	4.425098e-02	N/A	2.170105e-03	1.419368e-02	1.105192e-02	1.371398e-02
127           	5.881627e-02	N/A	1.635584e-03	1.635345e-02	1.090445e-02	1.388301e-02
128           	9.254024e-02	N/A	1.942366e-03	1.900397e-02	1.146814e-02	1.589290e-02
129           	9.828794e-02	N/A	2.324041e-03	2.045184e-02	1.295365e-02	1.775009e-02
130           	8.806833e-02	N/A	2.428033e-03	1.886154e-02	1.262340e-02	1.794282e-02
131           	5.814174e-02	N/A	2.327012e-03	1.973535e-02	1.172614e-02	1.710284e-02
132           	1.152310e-01	N/A	2.370272e-03	1.949175e-02	1.184487e-02	1.625669e-02
133           	6.258897e-02	N/A	2.451315e-03	1.956217e-02	1.249026e-02	1.637449e-02
134           	6.791716e-02	N/A	1.817710e-03	1.863921e-02	1.228423e-02	1.673907e-02
135           	8.594589e-02	N/A	1.937032e-03	1.736964e-02	1.241494e-02	1.668978e-02
136           	5.961905e-02	N/A	2.189337e-03	1.531973e-02	1.225082e-02	1.557996e-02
137           	5.062494e-02	N/A	1.928630e-03	1.413530e-02	1.160105e-02	1.412398e-02
138           	1.234918e-01	N/A	1.926306e-03	1.577995e-02	1.190336e-02	1.456175e-02
139           	8.909143e-02	N/A	2.484817e-03	1.894564e-02	1.197679e-02	1.676459e-02
140           	5.524781e-02	N/A	2.121374e-03	2.034598e-02	1.287949e-02	1.837584e-02
141           	4.142173e-02	N/A	1.856746e-03	1.872778e-02	1.295157e-02	1.855625e-02
142           	9.668808e-02	N/A	2.167038e-03	1.956569e-02	1.190695e-02	1.769215e-02
143           	7.037343e-02	N/A	2.616837e-03	1.955429e-02	1.325630e-02	1.687315e-02
144           	1.054888e-01	N/A	2.296321e-03	1.950287e-02	1.243135e-02	1.705928e-02
145           	6.002254e-02	N/A	2.130473e-03	1.872164e-02	1.321155e-02	1.691046e-02
146           	3.977914e-02	N/A	1.757221e-03	1.740172e-02	1.315296e-02	1.673661e-02
147           	7.350624e-02	N/A	1.829446e-03	1.541156e-02	1.149516e-02	1.650714e-02
148           	8.093342e-02	N/A	2.130396e-03	1.407852e-02	1.276498e-02	1.528882e-02
149           	5.377770e-02	N/A	2.062143e-03	1.533513e-02	1.173118e-02	1.517237e-02
150           	7.906365e-02	N/A	1.824470e-03	1.796438e-02	1.173047e-02	1.660250e-02
151           	7.253604e-02	N/A	2.274771e-03	2.066503e-02	1.397349e-02	1.877772e-02
152           	8.361915e-02	N/A	2.105592e-03	1.886237e-02	1.343740e-02	1.939191e-02
153           	8.081925e-02	N/A	2.332840e-03	1.915183e-02	1.278679e-02	1.853218e-02
154           	5.845299e-02	N/A	2.181832e-03	1.926473e-02	1.271123e-02	1.705558e-02
155           	4.991293e-02	N/A	1.846619e-03	1.906867e-02	1.248709e-02	1.662886e-02
156           	9.625694e-02	N/A	1.750631e-03	1.863144e-02	1.275497e-02	1.633827e-02
157           	8.564181e-02	N/A	2.073349e-03	1.731806e-02	1.270639e-02	1.746413e-02
158           	6.507537e-02	N/A	2.023178e-03	1.558064e-02	1.175745e-02	1.636317e-02
159           	4.421653e-02	N/A	1.839788e-03	1.384298e-02	1.199892e-02	1.476614e-02
160           	7.478467e-02	N/A	1.864966e-03	1.439211e-02	1.161012e-02	1.414636e-02
161           	7.661664e-02	N/A	2.088936e-03	1.734560e-02	1.185780e-02	1.617897e-02
162           	1.022011e-01	N/A	2.469100e-03	2.007406e-02	1.328521e-02	1.857133e-02
163           	5.722138e-02	N/A	2.210590e-03	1.900434e-02	1.423222e-02	1.965790e-02
164           	3.641249e-02	N/A	2.008786e-03	1.913405e-02	1.326289e-02	1.878921e-02
165           	4.008786e-02	N/A	1.900925e-03	1.922619e-02	1.298979e-02	1.706912e-02
166           	1.346069e-01	N/A	2.150551e-03	1.956526e-02	1.336716e-02	1.728776e-02
167           	6.887528e-02	N/A	2.794224e-03	1.949434e-02	1.483047e-02	1.815303e-02
168           	6.998249e-02	N/A	1.972639e-03	1.792585e-02	1.363565e-02	1.829538e-02
169           	5.654271e-02	N/A	1.786513e-03	1.627978e-02	1.274326e-02	1.817319e-02
170           	6.788663e-02	N/A	1.908260e-03	1.430036e-02	1.280866e-02	1.600162e-02
171           	4.301932e-02	N/A	1.965125e-03	1.414808e-02	1.263137e-02	1.471464e-02
172           	3.517567e-02	N/A	1.589039e-03	1.653076e-02	1.202511e-02	1.591247e-02
173           	8.715657e-02	N/A	2.043578e-03	1.953336e-02	1.316255e-02	1.822153e-02
174           	8.956293e-02	N/A	2.640499e-03	2.002116e-02	1.454817e-02	2.053534e-02
175           	7.552479e-02	N/A	2.345451e-03	1.886566e-02	1.428811e-02	1.993581e-02
176           	4.516984e-02	N/A	2.067937e-03	1.972597e-02	1.333737e-02	1.839942e-02
177           	3.133962e-02	N/A	1.861686e-03	1.927731e-02	1.305317e-02	1.777352e-02
178           	7.744531e-02	N/A	1.734899e-03	1.906740e-02	1.336602e-02	1.715537e-02
179           	4.147860e-02	N/A	1.972575e-03	1.796538e-02	1.391447e-02	1.753258e-02
180           	9.662696e-02	N/A	2.053480e-03	1.645057e-02	1.254655e-02	1.776401e-02
181           	8.758579e-02	N/A	2.456519e-03	1.436885e-02	1.303044e-02	1.632977e-02
182           	4.989991e-02	N/A	2.287006e-03	1.369448e-02	1.290810e-02	1.479766e-02
183           	4.652356e-02	N/A	1.689589e-03	1.578493e-02	1.177146e-02	1.597832e-02
184           	1.310995e-01	N/A	1.932945e-03	1.840771e-02	1.264558e-02	1.840313e-02
185           	5.817738e-02	N/A	2.716404e-03	2.025238e-02	1.564918e-02	2.010791e-02
186           	5.753242e-02	N/A	2.095661e-03	1.844017e-02	1.425476e-02	2.106427e-02
187           	4.993488e-02	N/A	2.038281e-03	1.936284e-02	1.450451e-02	1.953620e-02
188           	3.265121e-02	N/A	1.901473e-03	1.926697e-02	1.391185e-02	1.884213e-02
189           	2.908882e-02	N/A	1.645984e-03	1.895717e-02	1.354907e-02	1.934826e-02
190           	1.085763e-01	N/A	1.797106e-03	1.866595e-02	1.465846e-02	1.851027e-02
191           	7.956437e-02	N/A	2.563846e-03	1.726343e-02	1.502355e-02	1.952920e-02
192           	5.876633e-02	N/A	2.057957e-03	1.486422e-02	1.349060e-02	1.818300e-02
193           	6.699274e-02	N/A	1.889069e-03	1.375081e-02	1.360001e-02	1.497008e-02
194           	3.986343e-02	N/A	1.690564e-03	1.519984e-02	1.322378e-02	1.616980e-02
195           	4.586902e-02	N/A	1.579102e-03	1.773978e-02	1.264898e-02	1.923089e-02
196           	6.685471e-02	N/A	1.896761e-03	2.012961e-02	1.528913e-02	2.012663e-02
197           	8.589206e-02	N/A	2.095778e-03	1.851304e-02	1.492836e-02	2.082980e-02
198           	6.392723e-02	N/A	2.384165e-03	1.887015e-02	1.426617e-02	2.088915e-02
199           	3.372872e-02	N/A	2.005731e-03	1.912501e-02	1.436103e-02	1.890672e-02
200           	5.833267e-02	N/A	1.756502e-03	1.904848e-02	1.342867e-02	1.862888e-02
201           	6.153735e-02	N/A	1.682926e-03	1.850985e-02	1.483264e-02	1.864787e-02
202           	4.149177e-02	N/A	1.678619e-03	1.739955e-02	1.395124e-02	1.883552e-02
203           	8.628799e-02	N/A	1.783117e-03	1.556161e-02	1.316985e-02	1.789020e-02
204           	5.141118e-02	N/A	2.247719e-03	1.410100e-02	1.395889e-02	1.613351e-02
205           	6.529706e-02	N/A	2.054594e-03	1.442577e-02	1.296107e-02	1.554743e-02
206           	4.986506e-02	N/A	1.722235e-03	1.701338e-02	1.286510e-02	1.813652e-02
207           	6.558033e-02	N/A	2.075105e-03	1.963277e-02	1.455476e-02	2.009560e-02
208           	3.376327e-02	N/A	2.032714e-03	1.912357e-02	1.539974e-02	2.070148e-02
209           	2.778500e-02	N/A	1.827791e-03	1.870627e-02	1.415966e-02	2.039166e-02
210           	9.754832e-02	N/A	2.061978e-03	1.932356e-02	1.390447e-02	1.851344e-02
211           	8.061338e-02	N/A	2.660275e-03	1.914807e-02	1.464254e-02	1.924272e-02
212           	5.295440e-02	N/A	2.124296e-03	1.911731e-02	1.436743e-02	1.927441e-02
213           	8.039112e-02	N/A	1.754780e-03	1.764511e-02	1.418136e-02	1.939496e-02
214           	9.520869e-02	N/A	2.147990e-03	1.638615e-02	1.414184e-02	1.891240e-02
215           	4.408094e-02	N/A	2.060927e-03	1.453754e-02	1.389624e-02	1.730850e-02
216           	3.192803e-02	N/A	1.907055e-03	1.380097e-02	1.343270e-02	1.574936e-02
217           	2.855742e-02	N/A	1.432643e-03	1.584884e-02	1.263679e-02	1.641227e-02
218           	7.340290e-02	N/A	1.686388e-03	1.852054e-02	1.332868e-02	1.896570e-02
219           	6.485799e-02	N/A	2.218107e-03	1.984435e-02	1.541076e-02	2.096768e-02
220           	8.783441e-02	N/A	2.192876e-03	1.838117e-02	1.494514e-02	2.079135e-02
221           	7.406831e-02	N/A	2.403857e-03	1.923189e-02	1.428890e-02	2.007442e-02
222           	4.027467e-02	N/A	2.040831e-03	1.877641e-02	1.383921e-02	1.919557e-02
223           	3.506272e-02	N/A	1.643380e-03	1.877167e-02	1.388537e-02	1.857366e-02
224           	2.910216e-02	N/A	1.363663e-03	1.811453e-02	1.433592e-02	1.866807e-02
225           	5.328231e-02	N/A	1.523121e-03	1.702200e-02	1.379242e-02	1.931170e-02
226           	1.332403e-01	N/A	2.128600e-03	1.515238e-02	1.321546e-02	1.800919e-02
227           	7.310109e-02	N/A	2.850976e-03	1.363891e-02	1.482472e-02	1.703062e-02
228           	4.340768e-02	N/A	2.107172e-03	1.479620e-02	1.373762e-02	1.705103e-02
229           	3.903632e-02	N/A	1.534595e-03	1.729107e-02	1.376240e-02	1.861215e-02
230           	3.044847e-02	N/A	1.769635e-03	1.978872e-02	1.499798e-02	2.086879e-02
231           	2.704732e-02	N/A	1.666902e-03	1.884465e-02	1.560761e-02	2.116321e-02
232           	1.053677e-01	N/A	1.911184e-03	1.936727e-02	1.514501e-02	1.997332e-02
233           	7.364601e-02	N/A	2.714916e-03	1.937285e-02	1.605245e-02	2.040912e-02
234           	7.780665e-02	N/A	2.187754e-03	1.913642e-02	1.485488e-02	2.062209e-02
235           	4.161069e-02	N/A	1.796687e-03	1.923012e-02	1.597658e-02	1.989864e-02
236           	2.935593e-02	N/A	1.578084e-03	1.807149e-02	1.566132e-02	2.049022e-02
237           	5.653717e-02	N/A	1.644894e-03	1.628221e-02	1.419473e-02	2.065255e-02
238           	3.647982e-02	N/A	1.808452e-03	1.443310e-02	1.516404e-02	1.786398e-02
239           	6.753813e-02	N/A	1.916376e-03	1.400091e-02	1.403958e-02	1.660810e-02
240           	4.843970e-02	N/A	1.846676e-03	1.630982e-02	1.415589e-02	1.846180e-02
241           	4.840928e-02	N/A	1.721604e-03	1.901415e-02	1.499972e-02	2.023233e-02
242           	3.872412e-02	N/A	1.672078e-03	1.948149e-02	1.564930e-02	2.176859e-02
243           	5.068611e-02	N/A	1.666283e-03	1.842155e-02	1.589563e-02	2.091718e-02
244           	4.685727e-02	N/A	1.978252e-03	1.939324e-02	1.470671e-02	1.980085e-02
245           	4.262579e-02	N/A	1.874598e-03	1.874816e-02	1.443811e-02	1.952524e-02
246           	8.213866e-02	N/A	1.836611e-03	1.882007e-02	1.487573e-02	1.936665e-02
247           	4.939086e-02	N/A	1.885319e-03	1.815663e-02	1.554116e-02	1.963077e-02
248           	4.662443e-02	N/A	1.740096e-03	1.705105e-02	1.421550e-02	2.005958e-02
249           	3.230432e-02	N/A	1.541213e-03	1.502861e-02	1.391757e-02	1.850409e-02
250           	6.731099e-02	N/A	1.866086e-03	1.358817e-02	1.344496e-02	1.578029e-02
251           	8.401011e-02	N/A	2.102864e-03	1.480615e-02	1.397769e-02	1.690589e-02
252           	6.972318e-02	N/A	1.918718e-03	1.745275e-02	1.362678e-02	1.961090e-02
253           	4.075062e-02	N/A	2.077831e-03	1.965995e-02	1.514336e-02	2.052389e-02
254           	2.619720e-02	N/A	1.760582e-03	1.836573e-02	1.528630e-02	2.065310e-02
255           	2.311364e-02	N/A	1.579172e-03	1.871686e-02	1.457930e-02	1.988598e-02
256           	9.917311e-02	N/A	1.979863e-03	1.900970e-02	1.422514e-02	1.895489e-02
257           	7.263309e-02	N/A	2.484715e-03	1.896549e-02	1.526146e-02	2.022608e-02
258           	6.212367e-02	N/A	1.829455e-03	1.856811e-02	1.505233e-02	1.953047e-02
259           	3.147336e-02	N/A	1.531843e-03	1.773330e-02	1.503928e-02	2.010240e-02
260           	2.923142e-02	N/A	1.580426e-03	1.653099e-02	1.399933e-02	1.987102e-02
261           	3.993113e-02	N/A	1.560992e-03	1.447666e-02	1.352800e-02	1.727233e-02
262           	5.961594e-02	N/A	1.882768e-03	1.377797e-02	1.352291e-02	1.600589e-02
263           	4.641340e-02	N/A	1.712192e-03	1.606150e-02	1.389378e-02	1.764541e-02
264           	1.088415e-01	N/A	1.932468e-03	1.850539e-02	1.443865e-02	2.029352e-02
265           	4.732891e-02	N/A	2.490630e-03	1.980953e-02	1.745582e-02	2.221401e-02
266           	3.938348e-02	N/A	1.953241e-03	1.837632e-02	1.638082e-02	2.170329e-02
267           	3.511982e-02	N/A	1.833608e-03	1.927362e-02	1.587146e-02	2.170993e-02
268           	7.279325e-02	N/A	1.849186e-03	1.910450e-02	1.597849e-02	2.053871e-02
269           	5.396735e-02	N/A	1.936248e-03	1.913552e-02	1.586304e-02	2.059604e-02
270           	8.300205e-02	N/A	1.699215e-03	1.846821e-02	1.597070e-02	2.026774e-02
271           	3.396756e-02	N/A	1.929900e-03	1.783890e-02	1.568039e-02	2.114944e-02
272           	3.824867e-02	N/A	1.737434e-03	1.608796e-02	1.426962e-02	1.939513e-02
273           	3.149669e-02	N/A	1.607682e-03	1.413428e-02	1.417550e-02	1.710155e-02
274           	4.336917e-02	N/A	1.510027e-03	1.446335e-02	1.366928e-02	1.724911e-02
275           	3.315506e-02	N/A	1.486824e-03	1.697289e-02	1.434553e-02	1.891528e-02
276           	2.777532e-02	N/A	1.541203e-03	1.952895e-02	1.508880e-02	2.044555e-02
277           	3.219374e-02	N/A	1.571237e-03	1.912372e-02	1.619098e-02	2.122275e-02
278           	1.041403e-01	N/A	1.895804e-03	1.858643e-02	1.555042e-02	2.122942e-02
279           	6.662736e-02	N/A	2.756247e-03	1.946392e-02	1.621368e-02	2.096495e-02
280           	6.186497e-02	N/A	2.198824e-03	1.906735e-02	1.552744e-02	2.084559e-02
281           	6.196312e-02	N/A	1.734536e-03	1.934590e-02	1.584092e-02	2.174306e-02
282           	3.899297e-02	N/A	1.514906e-03	1.856815e-02	1.677406e-02	2.086504e-02
283           	4.238982e-02	N/A	1.500717e-03	1.724881e-02	1.568753e-02	2.016685e-02
284           	4.797387e-02	N/A	1.513031e-03	1.514409e-02	1.482352e-02	1.875370e-02
285           	5.243501e-02	N/A	1.792373e-03	1.368395e-02	1.436777e-02	1.707803e-02
286           	6.535723e-02	N/A	1.803662e-03	1.515554e-02	1.455716e-02	1.778772e-02
287           	5.637558e-02	N/A	1.950831e-03	1.770927e-02	1.442289e-02	2.045443e-02
288           	4.527292e-02	N/A	2.018674e-03	1.996300e-02	1.612096e-02	2.099867e-02
289           	3.962132e-02	N/A	1.806440e-03	1.864360e-02	1.664784e-02	2.196277e-02
290           	3.695236e-02	N/A	1.665397e-03	1.902027e-02	1.553329e-02	2.156341e-02
291           	1.052961e-01	N/A	1.963951e-03	1.917476e-02	1.515142e-02	2.025474e-02
292           	3.319197e-02	N/A	2.317243e-03	1.908686e-02	1.616618e-02	2.067815e-02
293           	2.868550e-02	N/A	1.589787e-03	1.870003e-02	1.589201e-02	2.101847e-02
294           	2.490265e-02	N/A	1.216749e-03	1.844072e-02	1.683040e-02	2.046484e-02
295           	2.797349e-02	N/A	1.359889e-03	1.710091e-02	1.483243e-02	2.124990e-02
296           	2.940167e-02	N/A	1.426695e-03	1.487457e-02	1.480284e-02	1.941059e-02
297           	3.027112e-02	N/A	1.485967e-03	1.410713e-02	1.497358e-02	1.720673e-02
298           	5.524186e-02	N/A	1.472798e-03	1.579143e-02	1.460222e-02	1.902025e-02
299           	4.725272e-02	N/A	1.732096e-03	1.853506e-02	1.560530e-02	2.153462e-02
300           	6.215211e-02	N/A	1.904729e-03	2.001284e-02	1.661458e-02	2.181993e-02
301           	7.636612e-02	N/A	2.109837e-03	1.858278e-02	1.684566e-02	2.175516e-02
302           	4.437292e-02	N/A	2.127593e-03	1.936922e-02	1.618243e-02	2.160292e-02
303           	8.501104e-02	N/A	2.068203e-03	1.907454e-02	1.578237e-02	2.116961e-02
304           	5.770911e-02	N/A	2.150076e-03	1.885498e-02	1.631315e-02	2.168489e-02
305           	5.497202e-02	N/A	1.790220e-03	1.851766e-02	1.661380e-02	2.045036e-02
306           	3.980507e-02	N/A	1.513605e-03	1.783939e-02	1.609855e-02	2.099021e-02
307           	2.420188e-02	N/A	1.488661e-03	1.645015e-02	1.499851e-02	2.036060e-02
308           	2.218315e-02	N/A	1.482537e-03	1.430232e-02	1.479593e-02	1.746923e-02
309           	3.107447e-02	N/A	1.550480e-03	1.424500e-02	1.439765e-02	1.723322e-02
310           	6.055835e-02	N/A	1.526551e-03	1.649208e-02	1.426673e-02	1.891724e-02
311           	6.502882e-02	N/A	1.817393e-03	1.910052e-02	1.551063e-02	2.129536e-02
312           	4.894424e-02	N/A	1.876864e-03	1.955057e-02	1.653046e-02	2.190673e-02
313           	3.553153e-02	N/A	1.594914e-03	1.840082e-02	1.632336e-02	2.123208e-02
314           	2.533368e-02	N/A	1.672384e-03	1.939683e-02	1.560250e-02	2.106031e-02
315           	7.969157e-02	N/A	1.782690e-03	1.898436e-02	1.529152e-02	2.055266e-02
316           	6.425077e-02	N/A	2.147361e-03	1.938627e-02	1.569858e-02	2.169320e-02
317           	5.079629e-02	N/A	1.711173e-03	1.891688e-02	1.648488e-02	2.051842e-02
318           	2.558212e-02	N/A	1.452343e-03	1.770799e-02	1.550861e-02	2.119455e-02
319           	2.443043e-02	N/A	1.483778e-03	1.595929e-02	1.458774e-02	1.968117e-02
320           	3.551398e-02	N/A	1.547606e-03	1.387910e-02	1.410102e-02	1.714718e-02
321           	5.636389e-02	N/A	1.571918e-03	1.443959e-02	1.420837e-02	1.720968e-02
322           	4.298677e-02	N/A	1.667487e-03	1.703951e-02	1.485750e-02	1.940271e-02
323           	8.648058e-02	N/A	1.902773e-03	1.931402e-02	1.560251e-02	2.137610e-02
324           	6.020184e-02	N/A	2.200994e-03	1.937965e-02	1.776407e-02	2.205735e-02
325           	3.940354e-02	N/A	1.850292e-03	1.866493e-02	1.735441e-02	2.214661e-02
326           	3.004333e-02	N/A	1.783720e-03	1.936277e-02	1.640213e-02	2.196549e-02
327           	3.810901e-02	N/A	1.552131e-03	1.902976e-02	1.619598e-02	2.091126e-02
328           	1.025704e-01	N/A	1.798293e-03	1.918470e-02	1.605009e-02	2.096614e-02
329           	5.113287e-02	N/A	2.054357e-03	1.942911e-02	1.840982e-02	2.249756e-02
330           	6.326717e-02	N/A	1.772028e-03	1.825192e-02	1.630724e-02	2.253945e-02
331           	4.079331e-02	N/A	1.804292e-03	1.607608e-02	1.622443e-02	2.079717e-02
332           	2.684043e-02	N/A	1.678519e-03	1.410523e-02	1.538594e-02	1.852638e-02
333           	2.158031e-02	N/A	1.317351e-03	1.495175e-02	1.505363e-02	1.921422e-02
334           	5.968383e-02	N/A	1.443142e-03	1.763454e-02	1.508725e-02	2.026533e-02
335           	4.925362e-02	N/A	1.862447e-03	2.015400e-02	1.709070e-02	2.205479e-02
336           	3.761011e-02	N/A	1.720880e-03	1.923482e-02	1.728063e-02	2.279987e-02
337           	3.757714e-02	N/A	1.500369e-03	1.876891e-02	1.655513e-02	2.193995e-02
338           	4.864430e-02	N/A	1.780783e-03	1.950203e-02	1.593133e-02	2.151257e-02
339           	3.277557e-02	N/A	1.722309e-03	1.906319e-02	1.561646e-02	2.161790e-02
340           	2.433195e-02	N/A	1.490635e-03	1.943727e-02	1.553001e-02	2.141941e-02
341           	5.463686e-02	N/A	1.328387e-03	1.938347e-02	1.629247e-02	2.105593e-02
342           	3.811737e-02	N/A	1.620358e-03	1.791501e-02	1.649151e-02	2.129477e-02
343           	2.629988e-02	N/A	1.574527e-03	1.563932e-02	1.473596e-02	1.987004e-02
344           	3.048866e-02	N/A	1.561422e-03	1.387929e-02	1.440114e-02	1.730617e-02
345           	5.222148e-02	N/A	1.492948e-03	1.486262e-02	1.415694e-02	1.800495e-02
346           	4.952598e-02	N/A	1.553128e-03	1.737113e-02	1.511072e-02	1.996089e-02
347           	4.925963e-02	N/A	1.626654e-03	1.997490e-02	1.634419e-02	2.112744e-02
348           	7.935648e-02	N/A	1.808478e-03	1.917931e-02	1.690800e-02	2.187783e-02
349           	4.355379e-02	N/A	1.991876e-03	1.900414e-02	1.708162e-02	2.229250e-02
350           	2.955452e-02	N/A	1.921488e-03	1.943223e-02	1.623879e-02	2.148452e-02
351           	2.314761e-02	N/A	1.521286e-03	1.904365e-02	1.582247e-02	2.158411e-02
352           	6.130738e-02	N/A	1.553741e-03	1.958517e-02	1.665851e-02	2.109899e-02
353           	7.098264e-02	N/A	1.711009e-03	1.914113e-02	1.756715e-02	2.171632e-02
354           	3.768395e-02	N/A	1.656110e-03	1.765621e-02	1.705488e-02	2.181873e-02
355           	2.265482e-02	N/A	1.546232e-03	1.567937e-02	1.513990e-02	2.023778e-02