/*--------------------------------*- C++ -*----------------------------------*\
  =========                 |
  \\      /  F ield         | OpenFOAM: The Open Source CFD Toolbox
   \\    /   O peration     | Website:  https://openfoam.org
    \\  /    A nd           | Version:  10
     \\/     M anipulation  |
\*---------------------------------------------------------------------------*/
FoamFile
{
    format      ascii;
    class       volScalarField;
    location    "34000";
    object      Co;
}
// * * * * * * * * * * * * * * * * * * * * * * * * * * * * * * * * * * * * * //

dimensions      [0 0 0 0 0 0 0];

internalField   nonuniform List<scalar> 
17981
(
187.811
189.787
191.71
193.583
195.415
197.21
198.976
200.716
202.437
204.143
205.836
207.522
209.204
210.884
212.566
214.252
215.944
217.646
219.359
221.085
222.826
224.585
226.363
228.162
229.985
231.831
233.704
235.606
237.537
239.499
241.495
243.526
245.594
247.7
249.846
252.034
254.265
256.543
258.867
261.241
263.665
266.143
268.675
271.265
273.913
276.622
279.395
282.233
195.728
197.616
199.45
201.238
202.989
204.708
206.403
208.078
209.74
211.392
213.038
214.684
216.331
217.982
219.642
221.311
222.993
224.69
226.403
228.135
229.888
231.663
233.462
235.286
237.139
239.02
240.932
242.877
244.855
246.869
248.92
251.01
253.141
255.313
257.53
259.792
262.102
264.46
266.87
269.333
271.85
274.424
277.056
279.749
282.505
285.325
288.213
291.17
202.817
204.581
206.294
207.966
209.604
211.217
212.81
214.391
215.965
217.535
219.107
220.685
222.271
223.868
225.479
227.107
228.753
230.419
232.108
233.821
235.56
237.326
239.12
240.945
242.802
244.692
246.617
248.577
250.576
252.613
254.692
256.812
258.976
261.185
263.442
265.746
268.101
270.508
272.969
275.485
278.059
280.692
283.386
286.143
288.966
291.856
294.816
297.848
215.25
216.728
218.194
219.653
221.112
222.575
224.047
225.532
227.032
228.55
230.09
231.652
233.239
234.853
236.494
238.165
239.867
241.602
243.369
245.171
247.01
248.885
250.798
252.751
254.745
256.782
258.861
260.985
263.156
265.374
267.641
269.959
272.33
274.754
277.233
279.77
282.366
285.023
287.743
290.527
293.378
296.298
299.289
302.353
219.88
221.193
222.499
223.807
225.122
226.45
227.794
229.158
230.546
231.96
233.403
234.875
236.379
237.917
239.488
241.095
242.738
244.419
246.138
247.895
249.693
251.531
253.411
255.334
257.3
259.312
261.369
263.473
265.625
267.826
270.079
272.383
274.741
277.154
279.623
282.15
284.737
287.386
290.098
292.875
295.719
298.632
301.616
304.673
223.467
224.581
225.696
226.819
227.959
229.12
230.307
231.524
232.773
234.058
235.38
236.74
238.139
239.579
241.061
242.583
244.148
245.756
247.407
249.101
250.839
252.622
254.45
256.324
258.243
260.21
262.225
264.288
266.4
268.564
270.778
273.046
275.367
277.744
280.177
282.669
285.22
287.831
290.506
293.245
296.05
298.923
301.867
304.882
226.809
227.692
228.594
229.523
230.484
231.484
232.525
233.61
234.742
235.92
237.147
238.423
239.747
241.12
242.542
244.013
245.532
247.1
248.716
250.38
252.092
253.853
255.662
257.519
259.426
261.382
263.388
265.444
267.552
269.711
271.924
274.189
276.51
278.886
281.32
283.812
286.363
288.976
291.652
294.391
297.197
300.071
303.014
228.989
229.675
230.409
231.196
232.039
232.941
233.901
234.921
236.001
237.139
238.336
239.591
240.902
242.269
243.69
245.166
246.694
248.275
249.908
251.592
253.327
255.113
256.949
258.836
260.773
262.761
264.801
266.892
269.035
271.231
273.481
275.785
278.144
280.56
283.034
285.566
288.158
290.811
293.528
296.309
299.156
228.221
228.712
229.273
229.908
230.617
231.4
232.256
233.183
234.181
235.247
236.38
237.577
238.837
240.158
241.538
242.976
244.47
246.02
247.623
249.279
250.988
252.749
254.561
256.423
258.337
260.301
262.315
264.381
266.498
268.666
270.887
273.161
275.488
277.87
280.307
282.8
285.352
287.962
290.633
293.365
225.574
226.005
226.527
227.138
227.836
228.618
229.481
230.422
231.439
232.527
233.685
234.91
236.198
237.549
238.959
240.428
241.953
243.532
245.164
246.849
248.585
250.372
252.208
254.093
256.028
258.011
260.043
262.124
264.255
266.434
268.664
270.945
273.277
275.661
278.099
280.59
283.137
285.74
221.646
222.298
223.041
223.872
224.786
225.779
226.846
227.986
229.193
230.466
231.8
233.195
234.646
236.153
237.713
239.324
240.986
242.696
244.455
246.26
248.112
250.009
251.952
253.94
255.973
258.052
260.175
262.345
264.56
266.822
269.132
271.489
273.896
276.353
213.731
214.275
214.921
215.661
216.492
217.407
218.402
219.472
220.613
221.821
223.093
224.425
225.814
227.258
228.753
230.299
231.892
233.532
235.216
236.944
238.713
240.525
242.377
244.269
246.2
248.172
250.182
252.232
254.321
256.451
258.62
260.83
263.081
265.375
204.187
204.652
205.226
205.902
206.674
207.536
208.48
209.503
210.599
211.763
212.99
214.277
215.621
217.017
218.463
219.956
221.493
223.073
224.694
226.352
228.049
229.781
231.547
233.348
235.182
237.048
238.946
240.877
242.839
244.832
246.858
248.915
251.005
253.128
193.166
193.588
194.124
194.769
195.513
196.351
197.274
198.276
199.353
200.497
201.705
202.971
204.291
205.661
207.078
208.538
210.038
211.576
213.149
214.754
216.391
218.057
219.75
221.47
223.216
224.986
226.78
228.597
230.437
232.299
234.184
236.092
238.022
239.974
181.307
181.845
182.493
183.245
184.092
185.026
186.04
187.128
188.284
189.501
190.774
192.098
193.469
194.882
196.334
197.82
199.337
200.883
202.456
204.051
205.668
207.305
208.96
210.632
212.319
214.021
215.737
217.465
219.206
220.959
222.724
224.501
226.289
168.1
168.673
169.36
170.152
171.04
172.017
173.075
174.206
175.404
176.662
177.974
179.333
180.735
182.173
183.643
185.142
186.665
188.209
189.77
191.347
192.936
194.535
196.144
197.759
199.38
201.005
202.633
204.264
205.896
207.529
209.162
210.796
212.429
154.343
154.992
155.753
156.619
157.582
158.632
159.762
160.964
162.231
163.554
164.928
166.345
167.798
169.283
170.793
172.323
173.87
175.43
176.999
178.574
180.152
181.731
183.309
184.884
186.453
188.016
189.572
191.118
192.654
194.18
195.695
197.197
198.687
141.195
142.042
142.99
144.033
145.162
146.371
147.652
148.998
150.401
151.855
153.351
154.882
156.439
158.013
159.597
161.187
162.78
164.373
165.962
167.545
169.119
170.681
172.229
173.762
175.278
176.774
178.251
179.706
181.139
182.549
183.935
185.295
127.272
128.216
129.252
130.376
131.584
132.869
134.223
135.64
137.111
138.631
140.191
141.785
143.405
145.043
146.696
148.358
150.024
151.687
153.339
154.973
156.584
158.169
159.727
161.257
162.757
165.009
169.015
173.946
178.741
183.403
187.937
192.345
112.906
113.996
115.173
116.434
117.774
119.187
120.663
122.196
123.776
125.397
127.051
128.73
130.43
132.146
133.874
135.612
137.353
139.088
141.503
146.29
152.703
158.942
165.014
170.929
176.691
182.306
187.778
193.108
198.302
203.362
208.293
213.1
98.5937
99.8842
101.259
102.717
104.25
105.854
107.517
109.233
110.991
112.783
114.602
116.439
118.287
120.139
124.57
132.022
139.752
147.268
154.57
161.662
168.548
175.236
181.737
188.06
194.218
200.221
206.075
211.784
217.353
222.784
228.083
233.253
85.1703
86.7202
88.3489
90.0541
91.8311
93.6725
95.5687
97.5096
99.4858
101.488
103.509
108.991
118.012
126.917
135.598
144.055
152.289
160.302
168.096
175.674
183.04
190.199
197.155
203.915
210.49
216.891
223.131
229.216
235.153
240.946
246.597
252.112
73.0391
74.8907
76.8123
78.8035
80.8612
82.9783
85.1451
87.3504
90.3513
97.3062
107.395
117.269
126.921
136.346
145.541
154.507
163.242
171.749
180.029
188.085
195.92
203.539
210.945
218.145
225.145
231.956
238.587
245.051
251.355
257.505
263.503
269.356
62.3304
64.514
66.7558
69.0584
71.4209
73.8378
76.2998
82.1406
92.2287
103.043
113.655
124.051
134.222
144.161
153.865
163.333
172.565
181.561
190.323
198.854
207.156
215.232
223.086
230.724
238.15
245.373
252.401
259.246
265.918
272.423
278.767
284.953
53.0235
55.5653
58.1513
60.7872
63.4753
66.2125
73.0669
84.3744
95.8658
107.19
118.32
129.236
139.924
150.377
160.59
170.56
180.288
189.773
199.017
208.022
216.79
225.324
233.627
241.703
249.557
257.195
264.625
271.856
278.9
285.763
292.451
298.97
45.0561
47.9911
50.949
53.9413
56.9751
63.1735
73.9126
85.971
97.9374
109.76
121.402
132.834
144.04
155.008
165.73
176.205
186.43
196.407
206.136
215.619
224.858
233.854
242.611
251.131
259.418
267.477
275.316
282.94
290.362
297.588
304.624
311.476
38.3925
41.7588
45.1218
48.4962
52.6061
61.1686
73.5774
86.0278
98.4395
110.744
122.889
134.836
146.561
158.047
169.284
180.269
190.999
201.475
211.697
221.666
231.384
240.852
250.071
259.045
267.775
276.266
284.523
292.552
300.362
307.961
315.353
322.545
33.0663
36.8658
40.6516
44.428
49.598
59.1381
71.7837
84.5628
97.3782
110.141
122.779
135.239
147.486
159.496
171.257
182.761
194.006
204.991
215.717
226.185
236.395
246.349
256.047
265.489
274.679
283.617
292.308
300.757
308.971
316.956
324.717
332.259
29.1158
33.3236
37.5199
41.6997
46.6704
55.8353
68.6106
81.6328
94.7914
107.976
121.089
134.058
146.831
159.375
171.669
183.705
195.478
206.987
218.233
229.216
239.936
250.394
260.589
270.521
280.19
289.596
298.742
307.631
316.269
324.659
332.806
340.713
31.107
35.6928
40.2597
44.809
52.3684
64.1811
77.3404
90.7592
104.31
117.869
131.336
144.636
157.721
170.563
183.145
195.462
207.512
219.295
230.813
242.064
253.048
263.764
274.209
284.382
294.281
303.908
313.263
322.348
331.166
339.719
348.013
30.1271
35.09
40.0263
44.9374
49.831
58.6768
71.8326
85.408
99.2455
113.201
127.142
140.965
154.598
167.999
181.144
194.022
206.632
218.973
231.046
242.851
254.387
265.649
276.635
287.341
297.763
307.898
317.745
327.303
336.574
345.56
354.266
30.2573
35.5881
40.8818
46.14
51.3679
56.5797
65.5556
78.9005
92.9256
107.203
121.576
135.904
150.088
164.059
177.782
191.241
204.43
217.35
230.002
242.386
254.5
266.339
277.897
289.166
300.14
310.812
321.178
331.236
340.987
350.433
359.577
31.3544
37.041
42.6799
48.273
53.8233
59.3399
64.8434
72.9651
85.5218
100.029
114.767
129.566
144.289
158.838
173.155
187.213
201.003
214.524
227.779
240.769
253.49
265.938
278.1
289.964
301.519
312.756
323.67
334.259
344.519
354.454
364.064
51.1772
57.0372
62.8491
68.6263
74.3958
80.8681
91.8507
106.869
122.083
137.318
152.441
167.365
182.042
196.454
210.6
224.484
238.107
251.467
264.554
277.351
289.841
302.009
313.845
325.341
336.492
347.294
357.747
367.853
54.6957
60.8471
66.9408
72.9834
78.9952
85.0098
91.0398
99.9038
113.6
129.303
144.983
160.517
175.829
190.886
205.68
220.217
234.502
248.531
262.29
275.756
288.907
301.725
314.195
326.308
338.055
349.431
360.435
371.067
58.6781
65.1016
71.4562
77.7491
83.991
90.2173
96.4627
102.722
109.096
120.379
136.582
152.717
168.674
184.395
199.861
215.076
230.05
244.782
259.249
273.42
287.269
300.775
313.917
326.683
339.062
351.046
362.632
373.819
62.9736
69.65
76.2461
82.7703
89.2317
95.654
102.08
108.534
114.997
121.425
130.182
144.08
160.681
177.08
193.238
209.153
224.847
240.319
255.53
270.446
285.034
299.266
313.119
326.577
339.623
352.25
364.451
376.224
67.4433
74.3528
81.1707
87.9078
94.5764
101.19
107.778
114.388
121.032
127.677
134.263
140.732
152.196
169.021
185.892
202.536
218.983
235.229
251.224
266.926
282.294
297.296
311.903
326.093
339.848
353.154
366.004
378.394
71.9751
79.1001
86.1211
93.0508
99.9036
106.695
113.442
120.189
126.98
133.803
140.605
147.322
153.896
163.136
177.882
195.288
212.524
229.583
246.405
262.938
279.135
294.956
310.365
325.335
339.843
353.872
367.412
380.455
76.4644
83.7886
90.9959
98.1001
105.117
112.065
118.961
125.838
132.747
139.71
146.694
153.631
160.458
167.128
174.439
187.46
205.52
223.431
241.125
258.54
275.618
292.312
308.58
324.385
339.7
354.504
368.781
382.523
80.8162
88.324
95.7014
102.964
110.128
117.217
124.251
131.254
138.267
145.337
152.465
159.594
166.653
173.586
180.38
187.087
198.901
216.79
235.397
253.741
271.753
289.376
306.558
323.256
339.435
355.068
370.135
384.625
84.9593
92.6387
100.174
107.581
114.879
122.092
129.245
136.365
143.481
150.644
157.886
165.173
172.439
179.619
186.692
193.715
200.784
211.903
229.22
248.538
267.536
286.143
304.297
321.946
339.046
355.564
371.475
386.761
88.8343
96.6754
104.359
111.901
119.322
126.647
133.903
141.121
148.333
155.581
162.912
170.326
177.769
185.176
192.519
199.856
207.281
214.828
225.73
242.938
262.974
282.624
301.812
320.476
338.561
356.026
372.839
388.977
92.4146
100.387
108.21
115.879
123.413
130.839
138.187
145.491
152.787
160.113
167.517
175.027
182.616
190.224
197.822
205.472
213.259
221.204
229.297
240.483
258.063
278.819
299.109
318.857
337.998
356.48
374.262
391.315
98.214
103.74
111.697
119.486
127.129
134.651
142.082
149.46
156.825
164.22
171.688
179.272
186.974
194.752
202.589
210.547
218.693
227.036
235.57
244.284
256.273
274.721
296.188
317.098
337.373
356.947
375.772
393.809
106.035
106.714
114.798
122.704
130.451
138.065
145.577
153.024
160.448
167.895
175.412
183.047
190.826
198.744
206.805
215.059
223.548
232.28
241.255
250.461
259.879
273.217
293.042
315.197
336.689
357.439
377.386
396.484
112.984
109.296
117.497
125.511
133.357
141.057
148.642
156.15
163.624
171.113
178.668
186.339
194.174
202.203
210.457
218.972
227.778
236.887
246.301
256.009
265.991
276.217
291.449
313.139
335.937
357.952
379.107
399.346
119.018
113.084
119.795
127.908
135.843
143.621
151.27
158.829
166.341
173.861
181.444
189.151
197.04
205.166
213.576
222.313
231.408
240.878
250.727
260.943
271.505
282.38
293.525
311.116
335.065
358.442
380.901
402.372
124.129
118.416
121.719
129.921
137.937
145.787
153.496
161.101
168.648
176.191
183.796
191.53
199.465
207.67
216.21
225.137
234.494
244.303
254.574
265.297
276.449
287.993
299.882
313.648
333.999
358.849
382.721
405.526
128.335
123.397
123.307
131.587
139.678
147.596
155.363
163.014
170.593
178.158
185.776
193.525
201.487
209.748
218.385
227.469
237.053
247.174
257.848
269.07
280.817
293.05
305.714
318.745
335.737
359.12
384.523
408.777
131.676
127.485
124.605
132.953
141.113
149.094
156.918
164.614
172.224
179.806
187.43
195.179
203.146
211.43
220.128
229.326
239.099
249.496
260.547
272.254
284.595
297.53
310.999
324.927
339.231
359.707
386.266
412.093
134.215
130.728
126.757
134.072
142.291
150.33
158.207
165.946
173.587
181.182
188.803
196.537
204.485
212.758
221.473
230.739
240.649
251.278
262.668
274.834
287.762
301.408
315.708
330.578
345.919
363.755
387.908
415.447
136.047
133.196
129.739
134.998
143.266
151.356
159.28
167.059
174.727
182.333
189.944
197.648
205.552
213.78
222.466
231.744
241.733
252.534
264.214
276.803
290.297
304.655
319.808
335.661
352.102
369.002
390.993
418.809
134.989
132.183
135.786
144.093
152.223
160.186
168
175.692
183.304
190.899
198.561
206.4
214.549
223.159
232.387
242.387
253.29
265.194
278.154
292.181
307.24
323.26
340.136
357.738
375.918
396.007
422.147
136.232
133.985
136.49
144.824
152.984
160.977
168.817
176.527
184.141
191.714
199.325
207.081
215.121
223.607
232.723
242.656
253.577
265.623
278.884
293.394
309.13
326.022
343.954
362.78
382.327
402.401
427.159
137.162
145.511
153.69
161.702
169.558
177.277
184.887
192.433
199.985
207.644
215.548
223.868
232.81
242.594
253.438
265.527
278.998
293.919
310.289
328.044
347.06
367.172
388.177
409.85
433.523
137.849
146.201
154.386
162.405
170.267
177.984
185.581
193.093
200.58
208.132
215.88
223.998
232.707
242.259
252.921
264.938
278.505
293.742
310.681
329.273
349.389
370.844
393.405
416.805
440.754
146.935
155.114
163.128
170.983
178.687
186.26
193.73
201.145
208.583
216.161
224.049
232.473
241.714
252.084
263.898
277.425
292.854
310.27
329.649
350.866
373.718
397.937
423.205
449.175
147.752
155.909
163.905
171.74
179.419
186.955
194.372
201.707
209.024
216.423
224.062
232.163
241.021
250.992
262.461
275.789
291.256
309.023
329.11
351.41
375.703
401.682
428.973
457.158
148.679
156.802
164.765
172.566
180.206
187.693
195.044
202.289
209.477
216.693
224.071
231.821
240.24
249.713
260.693
273.643
288.961
306.913
327.595
350.931
376.695
404.538
434.022
464.64
157.813
165.728
173.481
181.068
188.492
195.764
202.906
209.957
216.983
224.096
231.481
239.42
248.313
258.667
271.049
285.999
303.927
325.043
349.333
376.575
406.386
438.247
471.548
158.957
166.81
174.498
182.016
189.364
196.543
203.569
210.471
217.301
224.146
231.16
238.6
246.853
256.461
268.084
282.422
300.071
321.405
346.515
375.216
407.087
441.527
477.794
168.016
175.624
183.057
190.311
197.384
204.281
211.022
217.644
224.218
230.863
237.797
245.378
254.147
264.838
278.305
295.372
316.644
342.382
372.474
406.486
443.72
483.279
169.346
176.858
184.19
191.333
198.283
205.036
211.602
218.007
224.302
230.581
237.015
243.914
251.788
261.402
273.745
289.892
310.752
336.844
368.201
404.406
444.665
487.89
170.794
178.194
185.406
192.42
199.228
205.822
212.2
218.375
224.382
230.293
236.237
242.463
249.425
257.863
268.857
283.727
303.755
329.832
362.245
400.651
444.172
491.493
179.62
186.694
193.559
200.204
206.619
212.794
218.728
224.438
229.974
235.434
241.009
247.069
254.289
263.763
277.01
295.726
321.312
354.457
395.004
442.022
493.938
181.122
188.037
194.732
201.193
207.406
213.356
219.034
224.439
229.595
234.572
239.514
244.706
250.713
258.569
269.897
286.793
311.293
344.705
387.229
437.962
495.046
182.684
189.418
195.919
202.171
208.157
213.858
219.257
224.342
229.115
233.612
237.934
242.293
247.131
253.347
262.546
277.131
299.853
332.892
377.079
431.699
494.611
190.817
197.099
203.116
208.847
214.271
219.364
224.105
228.48
232.496
236.208
239.766
243.496
248.117
255.093
266.956
287.15
318.982
364.312
422.899
492.389
192.213
198.249
204.001
209.447
214.562
219.318
223.686
227.639
231.16
234.264
237.041
239.721
242.841
247.616
256.495
273.429
303.036
348.711
411.183
488.089
193.582
199.342
204.797
209.923
214.693
219.075
223.034
226.534
229.541
232.035
234.046
235.72
237.438
240.132
245.943
259.009
285.237
330.123
396.129
481.356
194.897
200.349
205.472
210.24
214.622
218.587
222.094
225.101
227.561
229.434
230.702
231.424
231.838
232.608
235.441
244.249
265.915
308.503
377.289
471.755
196.112
201.225
205.979
210.348
214.299
217.798
220.805
223.272
225.145
226.37
226.897
226.718
225.937
224.961
225.035
229.489
245.558
283.99
354.221
458.748
197.15
201.889
206.237
210.164
213.637
216.622
219.077
220.955
222.2
222.746
222.522
221.466
219.572
217.043
214.68
215.01
224.802
256.996
326.545
441.642
197.856
202.179
206.074
209.51
212.453
214.868
216.715
217.948
218.513
218.344
217.362
215.475
212.606
208.778
204.399
201.134
204.529
228.436
294.123
419.523
197.887
201.725
205.096
207.968
210.31
212.086
213.259
213.789
213.627
212.716
210.985
208.344
204.691
199.949
194.201
188.258
185.957
200.17
257.58
391.302
196.366
199.573
202.276
204.448
206.062
207.09
207.504
207.275
206.369
204.745
202.355
199.136
195.002
189.82
186.21
181.591
173.497
174.045
218.056
355.878
190.488
192.667
194.321
195.442
196.026
196.068
195.571
194.541
192.981
190.883
188.243
185.045
183.742
182.42
183.629
184.085
177.896
163.117
177.459
312.962
168.932
168.829
168.24
167.222
165.844
164.188
162.341
160.396
158.428
157.019
156.562
156.587
159.774
164.419
170.55
178.078
185.553
179.135
157.449
265.66
76.8022
73.6696
70.6909
67.9572
65.564
63.6121
62.209
61.473
61.541
63.1053
66.7046
72.1088
79.8514
90.7139
105.632
125.717
153.287
184.194
191.409
196.7
2123.64
2112.17
2100.76
2089.41
2078.12
2066.87
2055.67
2044.49
2033.33
2022.18
2011.04
1999.87
1988.69
1977.46
1966.19
1954.84
1943.4
1931.87
1920.2
1908.39
1896.41
1884.24
1871.85
1859.2
1846.28
1833.03
1819.43
1805.44
1791
1776.08
1760.62
1744.55
1727.84
1710.4
1692.18
1673.1
1653.09
1632.08
1609.98
1586.74
1562.29
1536.56
1509.51
1481.09
1451.28
1420.06
1387.38
1353.17
1317.22
1279.07
1237.65
1190.38
1130.5
1033.56
792.357
2062.46
2051.29
2040.19
2029.14
2018.15
2007.2
1996.29
1985.41
1974.54
1963.69
1952.84
1941.98
1931.09
1920.17
1909.2
1898.16
1887.04
1875.82
1864.48
1853
1841.36
1829.54
1817.51
1805.23
1792.69
1779.84
1766.66
1753.09
1739.11
1724.66
1709.7
1694.18
1678.03
1661.2
1643.63
1625.26
1606.02
1585.83
1564.65
1542.4
1519.02
1494.47
1468.7
1441.68
1413.37
1383.73
1352.71
1320.17
1285.82
1249.04
1208.39
1160.38
1095.61
983.306
721.713
2003.01
1992.14
1981.34
1970.59
1959.89
1949.23
1938.61
1928.02
1917.44
1906.88
1896.32
1885.76
1875.16
1864.54
1853.87
1843.14
1832.33
1821.42
1810.4
1799.25
1787.95
1776.47
1764.79
1752.88
1740.71
1728.26
1715.48
1702.34
1688.8
1674.82
1660.35
1645.35
1629.76
1613.53
1596.6
1578.91
1560.4
1541.02
1520.7
1499.39
1477.04
1453.59
1429
1403.24
1376.26
1347.99
1318.32
1287.06
1253.77
1217.56
1176.49
1126.03
1054.41
928.759
670.808
1945.26
1934.68
1924.16
1913.7
1903.29
1892.92
1882.58
1872.28
1861.99
1851.72
1841.44
1831.16
1820.87
1810.54
1800.16
1789.73
1779.22
1768.63
1757.93
1747.1
1736.13
1724.99
1713.65
1702.1
1690.31
1678.24
1665.86
1653.13
1640.03
1626.51
1612.53
1598.04
1582.99
1567.34
1551.03
1534
1516.21
1497.6
1478.12
1457.7
1436.31
1413.9
1390.42
1365.82
1340.04
1312.99
1284.5
1254.29
1221.76
1185.73
1143.76
1090.24
1011.79
877.463
637.825
1889.15
1878.86
1868.62
1858.44
1848.31
1838.22
1828.17
1818.14
1808.14
1798.14
1788.16
1778.16
1768.15
1758.11
1748.03
1737.89
1727.69
1717.4
1707.01
1696.5
1685.85
1675.04
1664.05
1652.86
1641.42
1629.73
1617.74
1605.43
1592.76
1579.69
1566.18
1552.19
1537.67
1522.58
1506.88
1490.5
1473.4
1455.54
1436.86
1417.3
1396.84
1375.41
1352.96
1329.45
1304.78
1278.83
1251.38
1222.02
1190
1153.84
1110.52
1053.61
969.303
832.055
617.795
1834.64
1824.63
1814.67
1804.77
1794.91
1785.1
1775.32
1765.57
1755.84
1746.12
1736.41
1726.7
1716.97
1707.21
1697.42
1687.58
1677.67
1667.68
1657.6
1647.4
1637.08
1626.6
1615.94
1605.09
1594.02
1582.7
1571.1
1559.19
1546.93
1534.3
1521.26
1507.76
1493.76
1479.23
1464.11
1448.36
1431.94
1414.8
1396.89
1378.16
1358.58
1338.09
1316.63
1294.13
1270.48
1245.52
1218.94
1190.24
1158.45
1121.8
1076.76
1016.38
927.906
793.08
605.617
1781.68
1771.94
1762.26
1752.63
1743.04
1733.5
1723.99
1714.51
1705.06
1695.61
1686.18
1676.74
1667.29
1657.81
1648.3
1638.75
1629.13
1619.44
1609.66
1599.77
1589.76
1579.6
1569.28
1558.77
1548.05
1537.09
1525.87
1514.35
1502.51
1490.31
1477.72
1464.7
1451.21
1437.22
1422.67
1407.54
1391.77
1375.33
1358.17
1340.25
1321.51
1301.9
1281.37
1259.8
1237.08
1212.97
1187.09
1158.81
1126.98
1089.49
1042.47
979.031
888.606
760.223
597.654
1730.24
1720.77
1711.35
1701.99
1692.67
1683.39
1674.15
1664.93
1655.74
1646.57
1637.4
1628.24
1619.06
1609.86
1600.63
1591.36
1582.03
1572.63
1563.14
1553.56
1543.85
1534.01
1524.02
1513.84
1503.46
1492.86
1482.01
1470.88
1459.45
1447.67
1435.53
1422.98
1409.98
1396.52
1382.53
1368
1352.87
1337.1
1320.66
1303.5
1285.56
1266.79
1247.11
1226.39
1204.47
1181.05
1155.69
1127.59
1095.42
1056.83
1007.81
942.154
852.119
732.591
591.67
1680.27
1671.06
1661.91
1652.8
1643.74
1634.73
1625.74
1616.79
1607.87
1598.95
1590.05
1581.15
1572.24
1563.32
1554.36
1545.36
1536.32
1527.2
1518.01
1508.72
1499.32
1489.79
1480.11
1470.26
1460.23
1449.98
1439.49
1428.74
1417.7
1406.34
1394.63
1382.54
1370.03
1357.08
1343.64
1329.68
1315.17
1300.05
1284.3
1267.86
1250.68
1232.68
1213.76
1193.78
1172.52
1149.63
1124.57
1096.42
1063.67
1023.83
973.076
906.368
818.74
709.073
586.426
1631.73
1622.78
1613.88
1605.03
1596.23
1587.47
1578.74
1570.05
1561.38
1552.73
1544.08
1535.45
1526.8
1518.14
1509.45
1500.73
1491.96
1483.13
1474.22
1465.22
1456.12
1446.89
1437.52
1428
1418.29
1408.39
1398.26
1387.88
1377.22
1366.27
1354.98
1343.34
1331.3
1318.85
1305.94
1292.54
1278.62
1264.12
1249.02
1233.26
1216.76
1199.45
1181.2
1161.84
1141.1
1118.57
1093.61
1065.19
1031.68
990.622
938.68
872.165
788.407
688.636
581.268
1584.59
1575.89
1567.24
1558.64
1550.09
1541.58
1533.1
1524.66
1516.24
1507.85
1499.46
1491.08
1482.69
1474.29
1465.87
1457.41
1448.91
1440.35
1431.73
1423.01
1414.2
1405.27
1396.21
1387
1377.62
1368.05
1358.27
1348.25
1337.97
1327.41
1316.54
1305.33
1293.76
1281.78
1269.38
1256.52
1243.15
1229.24
1214.75
1199.6
1183.72
1167.02
1149.33
1130.47
1110.1
1087.75
1062.71
1033.86
999.528
957.47
905.048
839.835
760.834
670.443
575.866
1538.8
1530.34
1521.94
1513.59
1505.28
1497.02
1488.79
1480.59
1472.42
1464.28
1456.14
1448.01
1439.88
1431.73
1423.57
1415.38
1407.14
1398.85
1390.5
1382.06
1373.54
1364.9
1356.14
1347.24
1338.17
1328.93
1319.48
1309.82
1299.91
1289.73
1279.26
1268.47
1257.34
1245.83
1233.91
1221.55
1208.71
1195.34
1181.4
1166.8
1151.47
1135.28
1118.05
1099.55
1079.41
1057.1
1031.83
1002.44
967.353
924.684
872.516
809.465
735.641
653.863
570.056
1494.32
1486.11
1477.95
1469.84
1461.77
1453.75
1445.76
1437.81
1429.88
1421.98
1414.09
1406.2
1398.32
1390.43
1382.52
1374.58
1366.6
1358.58
1350.49
1342.33
1334.08
1325.73
1317.26
1308.65
1299.9
1290.97
1281.86
1272.54
1262.98
1253.18
1243.09
1232.71
1221.99
1210.92
1199.46
1187.57
1175.22
1162.34
1148.89
1134.79
1119.92
1104.14
1087.27
1069.01
1048.97
1026.56
1000.95
971.016
935.37
892.553
841.296
781
712.439
638.431
563.759
1451.32
1443.2
1435.23
1427.35
1419.52
1411.74
1403.99
1396.27
1388.58
1380.92
1373.26
1365.62
1357.98
1350.34
1342.67
1334.98
1327.26
1319.49
1311.67
1303.77
1295.79
1287.72
1279.53
1271.22
1262.76
1254.15
1245.35
1236.36
1227.15
1217.7
1207.99
1197.99
1187.67
1177.01
1165.97
1154.52
1142.61
1130.18
1117.16
1103.47
1088.98
1073.54
1056.91
1038.79
1018.73
996.118
970.127
939.73
903.806
861.305
811.487
754.302
690.875
623.813
556.946
1410.09
1402.15
1394.24
1386.36
1378.57
1370.94
1363.43
1355.94
1348.49
1341.05
1333.64
1326.23
1318.83
1311.42
1304
1296.56
1289.08
1281.56
1273.99
1266.35
1258.64
1250.83
1242.92
1234.89
1226.73
1218.41
1209.92
1201.25
1192.37
1183.25
1173.89
1164.25
1154.31
1144.04
1133.39
1122.34
1110.82
1098.78
1086.14
1072.79
1058.6
1043.39
1026.92
1008.83
988.661
965.791
939.442
908.749
872.863
831.092
783.097
729.194
670.648
609.769
549.618
1370.05
1362.34
1354.66
1347.02
1339.4
1331.81
1324.24
1316.81
1309.56
1302.36
1295.17
1287.99
1280.82
1273.65
1266.46
1259.26
1252.02
1244.75
1237.42
1230.04
1222.58
1215.03
1207.39
1199.63
1191.74
1183.71
1175.52
1167.15
1158.58
1149.79
1140.76
1131.46
1121.87
1111.95
1101.66
1090.95
1079.78
1068.08
1055.75
1042.68
1028.71
1013.66
997.249
979.113
958.774
935.634
909.015
878.237
842.699
801.995
756.082
705.495
651.512
596.129
541.797
1331.15
1323.67
1316.22
1308.8
1301.41
1294.04
1286.69
1279.35
1272.02
1264.83
1257.82
1250.87
1243.93
1236.98
1230.02
1223.05
1216.05
1209.01
1201.92
1194.78
1187.57
1180.28
1172.89
1165.39
1157.77
1150.02
1142.11
1134.03
1125.75
1117.27
1108.55
1099.56
1090.28
1080.68
1070.71
1060.32
1049.45
1038.02
1025.94
1013.08
999.273
984.303
967.883
949.637
929.097
905.728
878.977
848.338
813.421
774.04
730.36
683.031
633.268
582.773
533.514
1293.37
1286.11
1278.88
1271.69
1264.51
1257.36
1250.22
1243.09
1235.97
1228.85
1221.75
1214.84
1208.11
1201.39
1194.65
1187.9
1181.12
1174.31
1167.46
1160.55
1153.58
1146.53
1139.39
1132.14
1124.78
1117.29
1109.64
1101.83
1093.84
1085.63
1077.2
1068.5
1059.51
1050.19
1040.5
1030.38
1019.76
1008.56
996.673
983.96
970.243
955.291
938.804
920.412
899.684
876.171
849.448
819.164
785.092
747.216
706.411
662.815
616.352
569.616
524.805
1256.67
1249.63
1242.62
1235.63
1228.67
1221.73
1214.8
1207.88
1200.97
1194.05
1187.13
1180.2
1173.4
1166.83
1160.31
1153.77
1147.22
1140.63
1134
1127.31
1120.57
1113.75
1106.84
1099.84
1092.72
1085.47
1078.08
1070.53
1062.79
1054.84
1046.67
1038.23
1029.5
1020.43
1010.98
1001.08
990.672
979.649
967.902
955.281
941.597
926.608
910.016
891.473
870.606
847.062
820.532
790.788
757.736
722.798
686.091
645.597
600.906
556.599
515.71
1221.02
1214.19
1207.39
1200.62
1193.86
1187.12
1180.4
1173.68
1166.97
1160.26
1153.53
1146.8
1140.05
1133.39
1126.96
1120.64
1114.29
1107.91
1101.5
1095.03
1088.5
1081.91
1075.22
1068.45
1061.56
1054.54
1047.38
1040.06
1032.56
1024.85
1016.91
1008.71
1000.2
991.354
982.106
972.396
962.144
951.252
939.594
927.015
913.315
898.252
881.539
862.869
841.941
818.49
792.304
763.256
733.18
702.067
667.588
629.31
587.238
544.881
506.269
1186.39
1179.77
1173.18
1166.61
1160.05
1153.51
1146.99
1140.47
1133.95
1127.44
1120.91
1114.37
1107.81
1101.22
1094.72
1088.45
1082.31
1076.14
1069.92
1063.66
1057.35
1050.96
1044.49
1037.92
1031.25
1024.45
1017.51
1010.41
1003.12
995.626
987.896
979.895
971.585
962.918
953.838
944.274
934.142
923.336
911.725
899.143
885.39
870.23
853.404
834.66
813.765
790.528
764.987
739.056
712.436
682.83
650.014
613.878
574.467
533.61
496.522
1152.76
1146.34
1139.95
1133.57
1127.21
1120.87
1114.54
1108.21
1101.89
1095.56
1089.23
1082.88
1076.51
1070.12
1063.69
1057.34
1051.24
1045.26
1039.25
1033.18
1027.06
1020.87
1014.6
1008.24
1001.76
995.161
988.419
981.514
974.423
967.119
959.573
951.749
943.604
935.088
926.14
916.686
906.636
895.877
884.271
871.652
857.821
842.562
825.658
806.907
786.139
763.934
741.625
718.45
692.812
664.484
633.309
599.231
562.316
522.757
486.721
1120.1
1113.87
1107.67
1101.49
1095.32
1089.17
1083.03
1076.89
1070.75
1064.62
1058.47
1052.31
1046.12
1039.92
1033.67
1027.39
1021.2
1015.26
1009.43
1003.55
997.618
991.613
985.527
979.347
973.057
966.64
960.079
953.351
946.433
939.297
931.91
924.235
916.226
907.83
898.982
889.603
879.598
868.85
857.218
844.535
830.618
815.28
798.346
779.664
760.471
741.389
721.045
698.663
674.034
646.988
617.419
585.308
550.731
513.864
478.488
1088.36
1082.33
1076.32
1070.32
1064.34
1058.38
1052.42
1046.47
1040.52
1034.56
1028.6
1022.62
1016.62
1010.6
1004.54
998.443
992.301
986.25
980.444
974.74
968.979
963.147
957.234
951.224
945.102
938.852
932.452
925.882
919.116
912.124
904.872
897.32
889.419
881.113
872.334
862.999
853.007
842.24
830.555
817.796
803.802
788.42
771.836
755.405
738.916
720.926
701.243
679.68
656.075
630.302
602.295
572.058
539.67
505.288
470.192
1057.54
1051.69
1045.87
1040.05
1034.26
1028.47
1022.7
1016.93
1011.15
1005.38
999.593
993.793
987.975
982.131
976.256
970.343
964.386
958.376
952.427
946.713
941.113
935.442
929.687
923.832
917.864
911.762
905.506
899.074
892.439
885.568
878.427
870.972
863.153
854.91
846.171
836.85
826.844
816.032
804.28
791.447
777.4
763.266
749.401
734.644
718.634
701.208
682.208
661.482
638.904
614.387
587.891
559.433
529.094
497.012
463.379
1027.6
1021.94
1016.29
1010.66
1005.04
999.431
993.832
988.236
982.64
977.039
971.43
965.807
960.165