/*--------------------------------*- C++ -*----------------------------------*\
  =========                 |
  \\      /  F ield         | OpenFOAM: The Open Source CFD Toolbox
   \\    /   O peration     | Website:  https://openfoam.org
    \\  /    A nd           | Version:  10
     \\/     M anipulation  |
\*---------------------------------------------------------------------------*/
FoamFile
{
    format      ascii;
    class       volVectorField;
    location    "34000";
    object      Urel;
}
// * * * * * * * * * * * * * * * * * * * * * * * * * * * * * * * * * * * * * //

dimensions      [0 1 -1 0 0 0 0];

internalField   nonuniform List<vector> 
17981
(
(0.10975 -0.29699 1.11958e-21)
(0.106937 -0.306538 -1.11515e-21)
(0.10418 -0.31601 0)
(0.10148 -0.325421 -6.99975e-21)
(0.0988387 -0.33478 1.53527e-20)
(0.0962595 -0.344093 -8.28652e-21)
(0.0937449 -0.353365 0)
(0.0912969 -0.362596 7.1331e-22)
(0.0889173 -0.371786 0)
(0.0866077 -0.38093 0)
(0.0843691 -0.390026 -8.69434e-22)
(0.0822024 -0.399067 1.60435e-20)
(0.0801078 -0.408048 -1.45102e-20)
(0.0780854 -0.416962 0)
(0.076135 -0.425801 0)
(0.0742558 -0.43456 0)
(0.0724471 -0.443233 0)
(0.0707079 -0.451811 -1.6417e-20)
(0.0690367 -0.46029 1.57315e-20)
(0.0674323 -0.468665 3.27112e-20)
(0.0658929 -0.476929 -3.08634e-20)
(0.064417 -0.485079 -4.94803e-22)
(0.0630027 -0.49311 0)
(0.0616482 -0.501019 0)
(0.0603516 -0.508803 3.12635e-20)
(0.0591109 -0.516458 -2.95502e-20)
(0.0579242 -0.523983 3.04007e-20)
(0.0567896 -0.531376 -2.92179e-20)
(0.0557051 -0.538635 -4.54204e-22)
(0.0546687 -0.54576 0)
(0.0536786 -0.552749 2.19529e-22)
(0.0527328 -0.559603 -2.15599e-22)
(0.0518296 -0.566321 -2.11602e-22)
(0.0509672 -0.572903 2.66244e-20)
(0.0501438 -0.579351 -2.56454e-20)
(0.0493577 -0.585664 -1.99381e-22)
(0.0486073 -0.591844 0)
(0.047891 -0.597892 0)
(0.0472072 -0.603809 1.87088e-22)
(0.0465546 -0.609597 -2.37857e-20)
(0.0459315 -0.615257 -1.19319e-22)
(0.0453368 -0.620792 2.20965e-20)
(0.044769 -0.626203 8.55062e-23)
(0.0442269 -0.631492 0)
(0.0437093 -0.636662 0)
(0.043215 -0.641713 0)
(0.042743 -0.64665 0)
(0.0422922 -0.651473 -1.97573e-20)
(0.124089 -0.282758 -6.62531e-21)
(0.121187 -0.2921 0)
(0.118347 -0.301384 -1.96019e-20)
(0.115573 -0.310626 4.80163e-20)
(0.112868 -0.319836 -2.71625e-20)
(0.110233 -0.329022 4.08272e-20)
(0.107673 -0.338189 -3.93283e-20)
(0.105189 -0.347338 7.15754e-22)
(0.102782 -0.356467 1.59494e-21)
(0.100455 -0.365574 -5.77672e-20)
(0.0982079 -0.374653 1.14992e-19)
(0.096041 -0.383697 -5.89098e-20)
(0.0939545 -0.3927 0)
(0.0919481 -0.401654 1.98261e-21)
(0.0900211 -0.410551 -6.68309e-20)
(0.0881725 -0.419382 6.39819e-20)
(0.0864009 -0.428141 6.79369e-20)
(0.0847048 -0.436818 -6.50561e-20)
(0.0830826 -0.445408 1.03824e-21)
(0.0815323 -0.453903 0)
(0.080052 -0.462298 -5.1913e-22)
(0.0786395 -0.470586 6.75215e-20)
(0.0772926 -0.478762 -6.32458e-20)
(0.0760091 -0.486821 6.66925e-20)
(0.0747868 -0.494761 -1.27938e-19)
(0.0736233 -0.502576 6.18166e-20)
(0.0725164 -0.510265 -6.31135e-20)
(0.0714637 -0.517824 6.06507e-20)
(0.0704631 -0.525251 4.72887e-22)
(0.0695123 -0.532546 0)
(0.0686092 -0.539706 2.27394e-22)
(0.0677516 -0.54673 2.24432e-22)
(0.0669375 -0.553619 -5.66375e-20)
(0.0661648 -0.560371 5.49733e-20)
(0.0654317 -0.566988 -6.34629e-22)
(0.0647363 -0.573469 5.37261e-20)
(0.0640766 -0.579815 -5.15898e-20)
(0.0634511 -0.586028 0)
(0.062858 -0.592108 4.99846e-20)
(0.0622957 -0.598056 -9.69183e-20)
(0.0617627 -0.603874 4.68025e-20)
(0.0612575 -0.609564 -4.67208e-20)
(0.0607787 -0.615128 -8.14986e-22)
(0.0603249 -0.620567 4.4087e-20)
(0.0598948 -0.625882 0)
(0.0594873 -0.631078 0)
(0.0591012 -0.636154 1.61945e-22)
(0.0587352 -0.641115 -8.0269e-23)
(0.137135 -0.26727 0)
(0.134109 -0.276416 1.10987e-20)
(0.131156 -0.285522 -1.17775e-20)
(0.128279 -0.294605 2.80463e-20)
(0.125483 -0.303678 -2.89855e-20)
(0.12277 -0.31275 -2.3165e-21)
(0.120142 -0.321826 0)
(0.117602 -0.330906 -1.539e-21)
(0.115151 -0.339991 -4.9511e-21)
(0.11279 -0.349075 0)
(0.11052 -0.358153 1.88183e-21)
(0.108342 -0.367218 3.86654e-21)
(0.106253 -0.376261 0)
(0.104255 -0.385273 -2.21158e-23)
(0.102344 -0.394245 2.08825e-21)
(0.100521 -0.403167 0)
(0.0987821 -0.41203 1.40672e-19)
(0.0971266 -0.420825 -1.32497e-19)
(0.0955517 -0.429544 -1.42101e-19)
(0.094055 -0.438179 1.35059e-19)
(0.0926341 -0.446721 -2.13911e-21)
(0.0912864 -0.455165 0)
(0.090009 -0.463504 1.05019e-21)
(0.0887994 -0.471732 -1.04964e-21)
(0.0876549 -0.479845 1.03383e-21)
(0.0865726 -0.487838 -1.31747e-19)
(0.0855499 -0.495707 1.27526e-19)
(0.0845842 -0.503448 -9.93213e-22)
(0.0836729 -0.51106 0)
(0.0828134 -0.51854 1.23742e-19)
(0.0820033 -0.525886 3.01769e-21)
(0.0812401 -0.533097 -1.18843e-19)
(0.0805215 -0.540171 0)
(0.0798452 -0.547108 0)
(0.0792092 -0.553908 -1.13898e-19)
(0.0786112 -0.560571 1.10205e-19)
(0.0780493 -0.567097 -4.2156e-22)
(0.0775215 -0.573487 0)
(0.0770261 -0.579742 4.04134e-22)
(0.0765612 -0.585863 -3.96005e-22)
(0.0761252 -0.591851 -9.97522e-20)
(0.0757165 -0.597708 9.62953e-20)
(0.0753335 -0.603435 1.85129e-22)
(0.0749749 -0.609034 -1.80548e-22)
(0.0746392 -0.614507 -3.5319e-22)
(0.0743251 -0.619856 0)
(0.0740314 -0.625083 -1.68617e-22)
(0.073757 -0.63019 -8.59074e-20)
(0.136666 -0.286366 -1.79004e-21)
(0.133851 -0.29534 2.43544e-21)
(0.131136 -0.304341 9.6366e-20)
(0.128522 -0.313371 -1.99088e-19)
(0.126011 -0.322428 1.05623e-19)
(0.123603 -0.331509 -3.60682e-21)
(0.121299 -0.340605 1.24894e-19)
(0.119098 -0.34971 -1.27161e-19)
(0.117 -0.358812 0)
(0.115002 -0.367902 -2.1379e-21)
(0.113103 -0.376969 1.40683e-19)
(0.1113 -0.386002 -1.3661e-19)
(0.109593 -0.394991 -1.40969e-19)
(0.107976 -0.403924 -1.11828e-20)
(0.106449 -0.412792 1.39557e-19)
(0.105007 -0.421586 -1.4541e-19)
(0.103647 -0.430296 1.39292e-19)
(0.102367 -0.438916 0)
(0.101163 -0.447437 1.40205e-19)
(0.100031 -0.455852 -2.7751e-19)
(0.0989692 -0.464157 1.32021e-19)
(0.0979736 -0.472345 1.36426e-19)
(0.097041 -0.480412 -1.29967e-19)
(0.0961685 -0.488354 -1.0256e-21)
(0.0953531 -0.496167 -1.31436e-19)
(0.0945918 -0.503849 -8.54449e-22)
(0.0938817 -0.511397 -4.62628e-21)
(0.0932202 -0.518809 1.24184e-19)
(0.0926045 -0.526084 1.22428e-19)
(0.0920322 -0.533221 -2.38011e-19)
(0.0915008 -0.540219 1.16621e-19)
(0.091008 -0.547078 -1.1538e-19)
(0.0905515 -0.553797 1.11678e-19)
(0.0901292 -0.560378 -1.10657e-19)
(0.0897391 -0.566821 -2.81643e-21)
(0.0893793 -0.573127 1.04512e-19)
(0.0890479 -0.579297 1.20641e-21)
(0.0887432 -0.585332 -1.00955e-19)
(0.0884636 -0.591234 9.74862e-20)
(0.0882075 -0.597004 3.76192e-22)
(0.0879733 -0.602645 3.67618e-22)
(0.0877598 -0.608157 9.20359e-20)
(0.0875656 -0.613544 -8.93015e-20)
(0.0873894 -0.618808 0)
(0.146374 -0.267987 -4.88308e-20)
(0.143436 -0.276882 -4.70579e-21)
(0.140613 -0.285828 0)
(0.137907 -0.294827 1.08966e-19)
(0.135319 -0.303879 -1.04344e-19)
(0.13285 -0.312977 7.46702e-21)
(0.130499 -0.322114 7.89654e-21)
(0.128266 -0.331281 0)
(0.126149 -0.340467 0)
(0.124146 -0.349659 -4.35361e-21)
(0.122254 -0.358845 0)
(0.12047 -0.368013 0)
(0.118792 -0.37715 -4.58767e-21)
(0.117215 -0.386245 2.30513e-21)
(0.115737 -0.395286 -1.50543e-19)
(0.114352 -0.404262 1.44097e-19)
(0.113058 -0.413163 -1.47168e-19)
(0.11185 -0.421981 1.43206e-19)
(0.110725 -0.430705 2.25631e-21)
(0.109678 -0.43933 0)
(0.108705 -0.447847 -1.44055e-19)
(0.107804 -0.45625 -6.12981e-21)
(0.106969 -0.464535 -5.84095e-21)
(0.106199 -0.472696 1.36966e-19)
(0.105488 -0.480729 -1.36112e-19)
(0.104834 -0.488631 -4.01715e-21)
(0.104233 -0.496398 1.31886e-19)
(0.103682 -0.504028 -1.30295e-19)
(0.103179 -0.51152 1.24505e-19)
(0.102721 -0.518872 0)
(0.102303 -0.526082 1.22141e-19)
(0.101925 -0.533151 -1.19596e-19)
(0.101584 -0.540078 0)
(0.101277 -0.546863 8.9011e-22)
(0.101002 -0.553507 8.7298e-22)
(0.100756 -0.560011 8.53483e-22)
(0.100539 -0.566374 1.06858e-19)
(0.100348 -0.572599 -2.10545e-19)
(0.10018 -0.578687 1.0293e-19)
(0.100036 -0.58464 0)
(0.0999117 -0.590459 0)
(0.0998074 -0.596145 9.64826e-20)
(0.099721 -0.601702 -9.2905e-20)
(0.0996514 -0.607131 0)
(0.154589 -0.248601 -5.15449e-20)
(0.151504 -0.257436 -8.13757e-20)
(0.148551 -0.266348 1.82374e-19)
(0.145733 -0.275339 -9.53845e-20)
(0.143051 -0.284408 -1.20831e-19)
(0.140506 -0.293549 1.11609e-19)
(0.138096 -0.302754 -4.08156e-21)
(0.135822 -0.31201 0)
(0.133679 -0.321306 -1.45641e-19)
(0.131666 -0.330628 2.92624e-19)
(0.129779 -0.339961 9.2555e-21)
(0.128014 -0.349292 -1.44799e-19)
(0.126366 -0.358606 -4.68426e-21)
(0.124832 -0.367889 -1.55111e-19)
(0.123407 -0.37713 1.48364e-19)
(0.122085 -0.386314 -1.54898e-19)
(0.120863 -0.395431 -5.90742e-21)
(0.119735 -0.404471 1.47756e-19)
(0.118696 -0.413423 -6.99985e-21)
(0.117743 -0.42228 0)
(0.11687 -0.431032 9.34817e-24)
(0.116072 -0.439672 2.26997e-21)
(0.115347 -0.448195 1.45112e-19)
(0.114688 -0.456596 3.57939e-21)
(0.114093 -0.464868 -2.78418e-19)
(0.113558 -0.473008 1.33381e-19)
(0.113078 -0.481012 -4.21484e-21)
(0.11265 -0.488878 0)
(0.112271 -0.496603 -2.63138e-19)
(0.111937 -0.504186 2.53532e-19)
(0.111646 -0.511624 0)
(0.111394 -0.518918 9.63222e-22)
(0.111179 -0.526067 2.43506e-19)
(0.110998 -0.53307 -2.35851e-19)
(0.110848 -0.539927 0)
(0.110728 -0.54664 -8.87742e-22)
(0.110636 -0.55321 8.67989e-22)
(0.110568 -0.559636 8.50339e-22)
(0.110523 -0.565922 -2.14985e-19)
(0.1105 -0.572067 2.06924e-19)
(0.110496 -0.578074 -7.94659e-22)
(0.110511 -0.583944 -2.00783e-19)
(0.110542 -0.58968 1.93372e-19)
(0.110588 -0.595284 0)
(0.157998 -0.237053 -4.69655e-21)
(0.154889 -0.245956 -5.63169e-21)
(0.151937 -0.254968 0)
(0.149144 -0.264085 -7.12839e-21)
(0.146509 -0.273301 -7.71088e-21)
(0.144031 -0.282605 0)
(0.141707 -0.291985 -1.44779e-19)
(0.139536 -0.301426 1.38117e-19)
(0.137511 -0.310912 0)
(0.13563 -0.320427 -3.11494e-19)
(0.133886 -0.329954 3.02189e-19)
(0.132274 -0.339477 4.85836e-21)
(0.130789 -0.348981 0)
(0.129425 -0.358452 0)
(0.128176 -0.367875 -4.86777e-21)
(0.127036 -0.377237 0)
(0.125999 -0.386527 3.16105e-19)
(0.12506 -0.395734 -6.16702e-19)
(0.124213 -0.404848 6.11718e-19)
(0.123452 -0.413859 -2.95936e-19)
(0.122772 -0.422761 0)
(0.122169 -0.431545 2.97729e-19)
(0.121637 -0.440206 -2.88415e-19)
(0.121172 -0.448737 0)
(0.120769 -0.457135 2.89253e-19)
(0.120424 -0.465396 -5.56488e-19)
(0.120133 -0.473515 2.69783e-19)
(0.119892 -0.48149 -2.72748e-19)
(0.119698 -0.48932 2.60786e-19)
(0.119546 -0.497002 -2.6284e-19)
(0.119435 -0.504535 2.53484e-19)
(0.11936 -0.511919 0)
(0.119318 -0.519153 2.45829e-19)
(0.119308 -0.526237 -2.39146e-19)
(0.119327 -0.533172 0)
(0.119371 -0.539959 -2.33581e-19)
(0.119439 -0.546598 2.25655e-19)
(0.11953 -0.55309 -8.6442e-22)
(0.11964 -0.559438 -2.17869e-19)
(0.119768 -0.565642 4.23626e-19)
(0.119912 -0.571705 -2.0515e-19)
(0.120071 -0.577629 2.04279e-19)
(0.120244 -0.583416 2.02586e-21)
(0.156428 -0.233764 -6.50204e-21)
(0.15351 -0.242969 1.94299e-22)
(0.150777 -0.252302 8.02218e-21)
(0.148226 -0.26175 0)
(0.145855 -0.271296 -3.04978e-19)
(0.143656 -0.280924 5.79261e-19)
(0.141627 -0.290616 2.18957e-20)
(0.139759 -0.300352 2.0268e-20)
(0.138047 -0.310115 -3.19744e-19)
(0.136483 -0.319886 -4.94583e-21)
(0.135061 -0.329647 0)
(0.133772 -0.339383 -3.28881e-19)
(0.13261 -0.349077 -8.8395e-21)
(0.131569 -0.358717 3.19636e-19)
(0.130639 -0.368287 0)
(0.129816 -0.377778 2.41068e-23)
(0.129092 -0.387176 4.91955e-21)
(0.128462 -0.396473 -4.87624e-21)
(0.127918 -0.40566 0)
(0.127455 -0.414729 3.07742e-19)
(0.127067 -0.423672 -2.98187e-19)
(0.126749 -0.432485 0)
(0.126497 -0.441161 2.2919e-21)
(0.126304 -0.449696 2.92469e-19)
(0.126167 -0.458086 -2.77282e-19)
(0.126081 -0.466329 0)
(0.126043 -0.474422 2.7779e-19)
(0.126047 -0.482362 -2.67888e-19)
(0.126092 -0.490149 2.07173e-21)
(0.126172 -0.497781 0)
(0.126286 -0.505259 1.9968e-21)
(0.12643 -0.512582 0)
(0.126602 -0.51975 -2.47139e-19)
(0.126798 -0.526765 4.80773e-19)
(0.127016 -0.533626 -4.70796e-19)
(0.127255 -0.540336 2.30795e-19)
(0.127512 -0.546895 0)
(0.127785 -0.553305 8.62071e-22)
(0.128072 -0.559569 -2.16945e-19)
(0.128371 -0.565688 4.21086e-19)
(0.128682 -0.571664 -2.08145e-19)
(0.156027 -0.221166 -2.46849e-19)
(0.153202 -0.230669 2.34252e-19)
(0.150588 -0.240312 0)
(0.148179 -0.250076 9.10817e-21)
(0.145969 -0.25994 1.36875e-22)
(0.143951 -0.269885 0)
(0.142115 -0.279889 0)
(0.140453 -0.28993 2.01418e-20)
(0.138957 -0.299989 5.1195e-21)
(0.137618 -0.310047 5.11716e-21)
(0.136426 -0.320085 0)
(0.135374 -0.330086 -3.38065e-19)
(0.134452 -0.340036 3.18577e-19)
(0.133653 -0.349918 3.35679e-19)
(0.132968 -0.359721 -3.1678e-19)
(0.13239 -0.369432 -5.09699e-21)
(0.131911 -0.379041 5.05359e-21)
(0.131523 -0.388537 0)
(0.131222 -0.397913 4.94886e-21)
(0.131 -0.407162 3.16512e-19)
(0.130851 -0.416275 -3.0459e-19)
(0.130769 -0.425249 -3.12462e-19)
(0.130749 -0.434077 2.98731e-19)
(0.130786 -0.442756 -4.61136e-21)
(0.130875 -0.451283 0)
(0.131012 -0.459654 4.46206e-21)
(0.131192 -0.467867 2.85381e-19)
(0.13141 -0.475922 -2.75442e-19)
(0.131665 -0.483816 2.72853e-19)
(0.131951 -0.491549 -5.31108e-19)
(0.132267 -0.499122 2.58505e-19)
(0.132608 -0.506534 -2.57181e-19)
(0.132972 -0.513786 2.48529e-19)
(0.133356 -0.520879 -9.58033e-22)
(0.133759 -0.527814 -7.37898e-25)
(0.134177 -0.534593 9.17706e-22)
(0.134609 -0.541217 0)
(0.135052 -0.547688 -8.78701e-22)
(0.135506 -0.554008 0)
(0.135968 -0.56018 8.52597e-22)
(0.151043 -0.218467 0)
(0.148625 -0.2285 9.11924e-21)
(0.146431 -0.238652 9.65132e-21)
(0.144451 -0.248897 0)
(0.142675 -0.259213 -3.35196e-19)
(0.141093 -0.269576 3.09469e-19)
(0.139693 -0.279964 -1.04044e-20)
(0.138466 -0.290356 -5.29415e-21)
(0.137399 -0.300732 -3.47475e-19)
(0.136484 -0.311074 -1.51302e-20)
(0.13571 -0.321365 3.3839e-19)
(0.135068 -0.331589 0)
(0.134548 -0.341733 -3.43917e-19)
(0.134141 -0.351783 -1.13077e-20)
(0.13384 -0.361728 6.71706e-19)
(0.133636 -0.371559 -3.25372e-19)
(0.133521 -0.381265 -3.31509e-19)
(0.133489 -0.390839 6.41477e-19)
(0.133533 -0.400274 -3.20306e-19)
(0.133645 -0.409563 -2.45279e-21)
(0.133821 -0.418702 -2.43027e-21)
(0.134054 -0.427685 -3.04609e-19)
(0.134339 -0.43651 -6.07878e-21)
(0.134672 -0.445174 2.91412e-19)
(0.135047 -0.453674 -2.28017e-21)
(0.13546 -0.462008 0)
(0.135908 -0.470175 -2.19789e-21)
(0.136385 -0.478175 0)
(0.13689 -0.486008 0)
(0.137419 -0.493673 0)
(0.137968 -0.501172 2.03654e-21)
(0.138535 -0.508505 0)
(0.139117 -0.515673 -9.78445e-22)
(0.139712 -0.522678 -6.22951e-25)
(0.140318 -0.529522 -9.37477e-22)
(0.140933 -0.536207 2.38085e-19)
(0.141555 -0.542734 -2.28636e-19)
(0.142182 -0.549106 2.29269e-19)
(0.141473 -0.238528 3.42928e-19)
(0.140006 -0.249252 -3.16707e-19)
(0.138738 -0.260005 1.0761e-20)
(0.137656 -0.270766 0)
(0.136748 -0.281512 -3.57091e-19)
(0.136003 -0.292225 3.41901e-19)
(0.135409 -0.302886 -3.16995e-23)
(0.134954 -0.313479 5.44837e-21)
(0.134629 -0.323989 0)
(0.134424 -0.334403 -5.40426e-21)
(0.134329 -0.344707 -5.38973e-21)
(0.134335 -0.354892 -3.46612e-19)
(0.134434 -0.364948 3.33499e-19)
(0.134618 -0.374865 5.23799e-21)
(0.134879 -0.384638 1.35055e-23)
(0.13521 -0.394259 3.35787e-19)
(0.135604 -0.403723 -3.18796e-19)
(0.136056 -0.413026 -2.4861e-21)
(0.13656 -0.422163 -2.44473e-21)
(0.13711 -0.431131 0)
(0.137701 -0.439929 3.06175e-19)
(0.138328 -0.448554 -2.9571e-19)
(0.138988 -0.457005 2.95631e-19)
(0.139676 -0.465281 -2.87934e-19)
(0.140388 -0.473382 -2.84876e-19)
(0.141121 -0.481309 2.77596e-19)
(0.141871 -0.489061 -2.12699e-21)
(0.142637 -0.496641 -2.66514e-19)
(0.143414 -0.504049 2.57808e-19)
(0.144202 -0.511287 -2.5677e-19)
(0.144996 -0.518356 2.51422e-19)
(0.145796 -0.525259 2.46083e-19)
(0.146599 -0.531998 -2.40092e-19)
(0.147404 -0.538576 -9.32515e-22)
(0.138587 -0.218033 0)
(0.137274 -0.229152 -1.10729e-22)
(0.136176 -0.240303 3.61737e-19)
(0.135278 -0.251462 -3.56924e-19)
(0.134565 -0.262606 0)
(0.134025 -0.273715 -1.12106e-20)
(0.133644 -0.284771 5.58584e-21)
(0.133411 -0.295754 3.6755e-19)
(0.133313 -0.306651 1.32763e-20)
(0.13334 -0.317446 -3.46269e-19)
(0.133481 -0.328127 -3.56187e-19)
(0.133726 -0.338683 3.48033e-19)
(0.134066 -0.349103 3.55414e-19)
(0.134492 -0.359379 -3.36922e-19)
(0.134996 -0.369503 3.5304e-19)
(0.135571 -0.379469 -3.40501e-19)
(0.136208 -0.38927 -5.22957e-21)
(0.136902 -0.398902 3.34118e-19)
(0.137646 -0.408361 -6.44115e-19)
(0.138435 -0.417643 -8.76241e-21)
(0.139262 -0.426747 3.13142e-19)
(0.140124 -0.43567 -3.13727e-19)
(0.141014 -0.444411 3.0562e-19)
(0.14193 -0.45297 -3.00599e-19)
(0.142867 -0.461346 5.90431e-19)
(0.143821 -0.46954 -2.87729e-19)
(0.144789 -0.477551 0)
(0.145768 -0.485382 -2.18056e-21)
(0.146756 -0.493034 2.13801e-21)
(0.147749 -0.500508 -4.18991e-21)
(0.148745 -0.507806 -2.65291e-19)
(0.149742 -0.51493 2.5788e-19)
(0.150739 -0.521884 1.9683e-21)
(0.151733 -0.528668 0)
(0.13413 -0.197915 -3.33656e-19)
(0.133015 -0.209457 3.54737e-19)
(0.132128 -0.221032 -7.31988e-19)
(0.131453 -0.232614 3.66491e-19)
(0.130974 -0.244179 -1.14716e-20)
(0.130676 -0.255706 -3.67582e-19)
(0.130544 -0.267175 3.5206e-19)
(0.130567 -0.278567 3.7365e-19)
(0.130729 -0.289867 -3.70357e-19)
(0.13102 -0.301059 3.71032e-19)
(0.131428 -0.31213 -3.68282e-19)
(0.131941 -0.32307 0)
(0.132551 -0.333866 -5.67074e-21)
(0.133247 -0.344511 3.5953e-19)
(0.134021 -0.354996 -7.13399e-19)
(0.134864 -0.365315 3.48544e-19)
(0.135769 -0.375461 1.06556e-23)
(0.136729 -0.38543 0)
(0.137736 -0.395217 -1.06137e-20)
(0.138784 -0.404819 3.40724e-19)
(0.139869 -0.414234 -6.59699e-19)
(0.140984 -0.42346 3.21858e-19)
(0.142124 -0.432495 0)
(0.143286 -0.44134 0)
(0.144465 -0.449993 -3.11186e-19)
(0.145657 -0.458456 6.04326e-19)
(0.146858 -0.466729 -2.95749e-19)
(0.148066 -0.474813 2.94264e-19)
(0.149278 -0.482709 -2.84893e-19)
(0.150491 -0.49042 9.10031e-25)
(0.151702 -0.497947 -2.77212e-19)
(0.15291 -0.505293 2.66386e-19)
(0.154112 -0.512461 -1.03325e-21)
(0.155307 -0.519453 -2.64078e-19)
(0.128259 -0.178347 1.10037e-20)
(0.127386 -0.190334 0)
(0.126753 -0.202352 1.16128e-20)
(0.126341 -0.214375 0)
(0.126135 -0.226378 4.009e-19)
(0.126116 -0.238338 -3.84901e-19)
(0.12627 -0.250235 0)
(0.126583 -0.262049 1.19859e-20)
(0.127039 -0.273763 3.97719e-19)
(0.127625 -0.285364 -3.70818e-19)
(0.12833 -0.296836 -5.96107e-21)
(0.129142 -0.308167 5.93073e-21)
(0.13005 -0.319348 3.89061e-19)
(0.131044 -0.330369 -7.49316e-19)
(0.132114 -0.341221 3.66463e-19)
(0.133251 -0.351898 3.83548e-19)
(0.134447 -0.362394 -3.53609e-19)
(0.135694 -0.372702 -3.63141e-19)
(0.136986 -0.382821 7.20346e-19)
(0.138316 -0.392745 -3.46395e-19)
(0.139677 -0.402473 0)
(0.141065 -0.412004 0)
(0.142474 -0.421334 0)
(0.143899 -0.430465 0)
(0.145336 -0.439396 2.52784e-21)
(0.146781 -0.448128 0)
(0.148231 -0.456661 -2.44081e-21)
(0.149682 -0.464997 3.11304e-19)
(0.151132 -0.473137 -2.99186e-19)
(0.152577 -0.481083 7.86475e-25)
(0.154015 -0.488838 -2.91383e-19)
(0.155445 -0.496404 2.82316e-19)
(0.156863 -0.503783 2.17326e-21)
(0.15827 -0.51098 0)
(0.120584 -0.171921 3.59642e-19)
(0.120246 -0.184394 -3.92069e-19)
(0.120138 -0.19687 7.72773e-19)
(0.120241 -0.209322 -3.68703e-19)
(0.120538 -0.221725 1.23661e-20)
(0.121012 -0.234059 0)
(0.121648 -0.246304 -5.99752e-23)
(0.122429 -0.258443 -1.24262e-20)
(0.123343 -0.270458 4.0524e-19)
(0.124375 -0.282337 -3.77981e-19)
(0.125513 -0.294067 -1.8818e-23)
(0.126746 -0.305637 6.13469e-21)
(0.128063 -0.317037 0)
(0.129453 -0.32826 3.92321e-19)
(0.130907 -0.339297 -3.84941e-19)
(0.132417 -0.350143 3.84227e-19)
(0.133974 -0.360792 -7.51135e-19)
(0.135571 -0.371242 3.61377e-19)
(0.1372 -0.381488 5.72089e-21)
(0.138857 -0.391528 0)
(0.140534 -0.401361 0)
(0.142227 -0.410985 -3.5398e-19)
(0.143931 -0.4204 3.4271e-19)
(0.145641 -0.429606 -2.65702e-21)
(0.147353 -0.438603 0)
(0.149064 -0.447393 2.56776e-21)
(0.150771 -0.455978 -2.52231e-21)
(0.15247 -0.464358 0)
(0.154158 -0.472536 3.12967e-19)
(0.155834 -0.480514 -6.07846e-19)
(0.157495 -0.488296 2.97477e-19)
(0.15914 -0.495883 2.92562e-19)
(0.160766 -0.503279 -2.87688e-19)
(0.112847 -0.154323 3.84188e-19)
(0.112838 -0.167255 -3.79059e-19)
(0.113066 -0.180188 1.2406e-20)
(0.11351 -0.193093 4.1462e-19)
(0.114153 -0.205946 -3.8546e-19)
(0.114977 -0.218724 -1.28131e-20)
(0.115964 -0.231405 4.08664e-19)
(0.117099 -0.243972 2.90619e-20)
(0.118367 -0.256407 -4.06518e-19)
(0.119752 -0.268697 -1.93683e-20)
(0.121242 -0.280827 -1.28785e-20)
(0.122825 -0.292788 -4.22722e-19)
(0.124488 -0.304568 8.15473e-19)
(0.12622 -0.31616 -8.0961e-19)
(0.128013 -0.327556 3.90161e-19)
(0.129856 -0.33875 -4.0238e-19)
(0.13174 -0.349738 3.8919e-19)
(0.13366 -0.360516 6.07728e-21)
(0.135606 -0.37108 -3.88357e-19)
(0.137573 -0.381428 3.75937e-19)
(0.139554 -0.391558 5.84786e-21)
(0.141545 -0.401471 0)
(0.14354 -0.411165 0)
(0.145535 -0.420641 -3.60728e-19)
(0.147525 -0.429899 3.4952e-19)
(0.149508 -0.438941 3.46049e-19)
(0.15148 -0.447768 -3.38001e-19)
(0.153437 -0.456382 0)
(0.155378 -0.464786 5.1285e-21)
(0.157299 -0.472983 -3.24023e-19)
(0.159199 -0.480974 3.16611e-19)
(0.161077 -0.488764 3.11493e-19)
(0.162929 -0.496355 -3.0882e-19)
(0.104448 -0.137554 3.92367e-19)
(0.104798 -0.15094 0)
(0.10539 -0.16433 -1.29215e-20)
(0.106203 -0.177693 -8.74809e-23)
(0.107218 -0.191001 -1.32647e-20)
(0.108415 -0.20423 4.5002e-19)
(0.109778 -0.217357 -8.58847e-19)
(0.111288 -0.230362 4.35917e-19)
(0.112929 -0.243225 0)
(0.114687 -0.255932 4.38879e-19)
(0.116547 -0.268469 -4.03454e-19)
(0.118496 -0.280823 0)
(0.120521 -0.292984 4.39561e-19)
(0.122611 -0.304945 -8.48347e-19)
(0.124755 -0.316697 8.48622e-19)
(0.126943 -0.328236 9.93287e-21)
(0.129168 -0.339557 -8.26913e-19)
(0.13142 -0.350657 4.04762e-19)
(0.133693 -0.361532 -6.12297e-24)
(0.13598 -0.372181 4.03414e-19)
(0.138275 -0.382603 -4.03137e-19)
(0.140572 -0.392797 0)
(0.142867 -0.402763 0)
(0.145154 -0.412501 -3.83618e-19)
(0.147431 -0.422012 -5.58997e-21)
(0.149692 -0.431298 3.66001e-19)
(0.151935 -0.440361 0)
(0.154158 -0.449202 0)
(0.156356 -0.457825 -2.7122e-21)
(0.158529 -0.466232 -2.66255e-21)
(0.160673 -0.474426 -5.22504e-21)
(0.162788 -0.482411 3.3235e-19)
(0.164872 -0.49019 -6.54981e-19)
(0.0964231 -0.13548 4.03968e-19)
(0.0973834 -0.149311 4.39611e-19)
(0.0985669 -0.16312 -4.35898e-19)
(0.0999545 -0.176876 -4.37386e-19)
(0.101527 -0.190552 4.20322e-19)
(0.103268 -0.20412 0)
(0.105157 -0.21756 -1.40889e-20)
(0.107179 -0.230852 4.59581e-19)
(0.109318 -0.243977 2.98028e-20)
(0.111557 -0.25692 -9.16294e-19)
(0.113884 -0.269669 4.36047e-19)
(0.116284 -0.282212 4.47498e-19)
(0.118745 -0.294541 -4.39687e-19)
(0.121253 -0.306649 0)
(0.123799 -0.318532 -4.4458e-19)
(0.126374 -0.330185 8.70927e-19)
(0.128969 -0.341605 -4.33334e-19)
(0.131577 -0.35279 -6.66903e-21)
(0.134192 -0.363738 0)
(0.136807 -0.374447 6.51026e-21)
(0.139418 -0.384917 0)
(0.142018 -0.395149 0)
(0.144604 -0.405144 -3.99551e-19)
(0.147172 -0.414903 3.93562e-19)
(0.149717 -0.424427 0)
(0.152236 -0.433719 0)
(0.154728 -0.442781 -2.92556e-21)
(0.157188 -0.451616 -3.73146e-19)
(0.159616 -0.460227 3.59177e-19)
(0.162009 -0.468617 3.58389e-26)
(0.164365 -0.47679 -3.52633e-19)
(0.166683 -0.484749 3.47081e-19)
(0.0877104 -0.12074 4.55877e-19)
(0.089042 -0.134983 -4.24493e-19)
(0.0905996 -0.149225 4.60016e-19)
(0.092365 -0.16343 -4.8605e-19)
(0.0943195 -0.177565 -4.70453e-19)
(0.0964441 -0.191598 4.52594e-19)
(0.09872 -0.2055 0)
(0.101129 -0.219249 0)
(0.103654 -0.232824 -4.89717e-19)
(0.10628 -0.246208 4.7237e-19)
(0.108989 -0.259384 2.24088e-20)
(0.111768 -0.272334 7.41907e-21)
(0.1146 -0.285042 7.36242e-21)
(0.117473 -0.297496 -4.7361e-19)
(0.120379 -0.3097 -1.12096e-20)
(0.123312 -0.321665 4.54606e-19)
(0.126263 -0.33339 4.60629e-19)
(0.129224 -0.344871 -4.46524e-19)
(0.132186 -0.356104 0)
(0.13514 -0.367089 0)
(0.138079 -0.377826 -4.39252e-19)
(0.141 -0.388315 4.32765e-19)
(0.143896 -0.398557 4.26979e-19)
(0.146766 -0.408555 -8.38023e-19)
(0.149605 -0.418309 4.07999e-19)
(0.152411 -0.427823 -4.0719e-19)
(0.15518 -0.437098 7.98443e-19)
(0.157911 -0.446137 -3.85301e-19)
(0.160601 -0.454944 0)
(0.163248 -0.463522 3.82013e-19)
(0.165851 -0.471875 -7.39678e-19)
(0.168409 -0.480007 3.63176e-19)
(0.0785705 -0.106938 -4.51258e-19)
(0.0802916 -0.121519 -1.50779e-20)
(0.0822433 -0.13613 1.5418e-20)
(0.0844073 -0.15073 5.13615e-19)
(0.0867641 -0.16528 -4.79317e-19)
(0.0892931 -0.17974 3.20009e-20)
(0.0919741 -0.194076 -5.25496e-19)
(0.0947874 -0.208259 -1.96454e-20)
(0.0977149 -0.222265 4.91502e-19)
(0.10074 -0.236076 1.61047e-20)
(0.103846 -0.249676 -1.6092e-20)
(0.10702 -0.263049 -8.00353e-21)
(0.110247 -0.276182 -7.94826e-21)
(0.113516 -0.289062 -7.86838e-21)
(0.116814 -0.301681 0)
(0.120132 -0.314033 0)
(0.123458 -0.326113 -7.62273e-21)
(0.126782 -0.337917 0)
(0.130094 -0.349441 -4.87364e-19)
(0.133388 -0.360684 -1.60209e-20)
(0.136658 -0.371656 9.17337e-19)
(0.139904 -0.382372 -9.19382e-19)
(0.14312 -0.392837 4.4626e-19)
(0.146302 -0.403051 -6.92602e-21)
(0.149445 -0.413015 -3.41085e-21)
(0.152546 -0.422733 0)
(0.155602 -0.432205 4.2558e-19)
(0.158611 -0.441435 -8.31275e-19)
(0.161572 -0.450424 4.05915e-19)
(0.164482 -0.459178 0)
(0.16734 -0.467698 3.98913e-19)
(0.170145 -0.47599 -3.86634e-19)
(0.069331 -0.0940829 -5.10017e-19)
(0.0714639 -0.108954 1.00181e-18)
(0.0738326 -0.123893 -5.07172e-19)
(0.0764188 -0.138854 1.67004e-20)
(0.079202 -0.153791 -5.71268e-19)
(0.0821604 -0.168657 -2.44976e-20)
(0.0852717 -0.183411 1.11943e-18)
(0.0885144 -0.198014 -5.59871e-19)
(0.0918688 -0.21244 5.63852e-19)
(0.0953168 -0.226665 -5.61312e-19)
(0.0988413 -0.24067 0)
(0.102427 -0.254439 0)
(0.106058 -0.267958 -8.51187e-21)
(0.109723 -0.281217 5.56431e-19)
(0.11341 -0.294207 -5.29321e-19)
(0.117107 -0.306922 -8.27938e-21)
(0.120805 -0.319357 -5.29764e-19)
(0.124495 -0.331509 5.12021e-19)
(0.128169 -0.343372 -4.99412e-19)
(0.131818 -0.354944 5.06077e-19)
(0.135436 -0.366224 5.07361e-19)
(0.139016 -0.377213 8.22739e-21)
(0.142553 -0.387915 -4.75694e-19)
(0.146043 -0.398339 7.37684e-21)
(0.149486 -0.4085 -4.64576e-19)
(0.15288 -0.418409 4.50896e-19)
(0.156224 -0.428067 -3.51772e-21)
(0.159513 -0.437476 0)
(0.162747 -0.44664 -4.37891e-19)
(0.165923 -0.45556 -4.97593e-21)
(0.169039 -0.46424 -7.95738e-21)
(0.172095 -0.472684 4.15567e-19)
(0.0605058 -0.0820968 5.51893e-19)
(0.0630538 -0.0971903 -5.02285e-19)
(0.0658403 -0.112393 1.72073e-20)
(0.0688479 -0.127659 1.76249e-20)
(0.0720562 -0.142935 1.79546e-20)
(0.0754425 -0.15817 5.78397e-19)
(0.0789829 -0.173311 -1.1958e-18)
(0.0826542 -0.188314 5.98762e-19)
(0.0864349 -0.203145 1.8558e-20)
(0.0903056 -0.217774 0)
(0.0942485 -0.23218 -6.18979e-19)
(0.0982471 -0.246345 -1.74336e-20)
(0.102286 -0.260253 5.85343e-19)
(0.106351 -0.273891 0)
(0.110431 -0.28725 -5.81137e-19)
(0.114512 -0.300322 5.70194e-19)
(0.118586 -0.313101 1.75408e-20)
(0.122642 -0.325582 5.59951e-19)
(0.126671 -0.337763 2.27286e-21)
(0.130666 -0.349642 -5.25261e-19)
(0.134621 -0.361217 0)
(0.13853 -0.372492 -5.26557e-19)
(0.142388 -0.383466 -8.29268e-21)
(0.146191 -0.394145 5.08952e-19)
(0.149935 -0.404535 -4.92363e-19)
(0.15362 -0.414648 4.88743e-19)
(0.157246 -0.424497 3.75445e-21)
(0.160812 -0.434091 0)
(0.164315 -0.443433 0)
(0.167755 -0.452525 3.56572e-21)
(0.171128 -0.461369 3.50126e-21)
(0.174435 -0.46997 0)
(0.0523502 -0.0709089 5.78074e-19)
(0.0553004 -0.0861534 -5.27919e-19)
(0.0584902 -0.101553 5.81682e-19)
(0.0619044 -0.117062 -6.01508e-19)
(0.0655238 -0.132626 -8.45678e-23)
(0.0693255 -0.148185 0)
(0.0732842 -0.163679 0)
(0.0773744 -0.179054 6.45097e-19)
(0.0815729 -0.194266 -1.28914e-18)
(0.0858583 -0.209281 6.23752e-19)
(0.0902113 -0.224073 1.97961e-20)
(0.0946142 -0.238618 0)
(0.0990511 -0.2529 -6.34419e-19)
(0.103507 -0.266906 -1.63732e-20)
(0.10797 -0.280623 1.22979e-18)
(0.112427 -0.294045 -6.10805e-19)
(0.116867 -0.307164 6.08049e-19)
(0.121282 -0.319975 -5.78302e-19)
(0.125661 -0.332475 0)
(0.129999 -0.344661 -1.80407e-20)
(0.134288 -0.356534 8.87945e-21)
(0.138521 -0.368092 5.64167e-19)
(0.142695 -0.379338 -5.37076e-19)
(0.146804 -0.390275 -8.45185e-21)
(0.150847 -0.40091 -1.6608e-20)
(0.154821 -0.411251 -5.26005e-19)
(0.158727 -0.42131 5.10153e-19)
(0.162565 -0.431101 5.08367e-19)
(0.166335 -0.440632 9.9601e-21)
(0.170035 -0.449905 -4.8896e-19)
(0.173663 -0.458924 -4.89407e-19)
(0.177218 -0.467691 -5.12782e-21)
(0.0449612 -0.0604648 -3.28942e-19)
(0.0482885 -0.0757779 2.67501e-19)
(0.0518548 -0.0912953 3.16159e-19)
(0.0556489 -0.106976 -3.08124e-19)
(0.0596539 -0.122766 6.45492e-19)
(0.0638473 -0.138598 -6.46825e-19)
(0.0682032 -0.154405 0)
(0.0726941 -0.170121 2.11094e-20)
(0.0772943 -0.185692 6.91478e-19)
(0.0819803 -0.201075 -6.67514e-19)
(0.086731 -0.216237 0)
(0.0915272 -0.231152 2.10635e-20)
(0.0963514 -0.245799 2.09333e-20)
(0.101188 -0.260163 0)
(0.106024 -0.27423 0)
(0.110846 -0.287992 1.01954e-20)
(0.115643 -0.301442 -2.01422e-20)
(0.120407 -0.314575 6.33187e-19)
(0.125128 -0.327387 -6.11742e-19)
(0.129799 -0.339878 7.94254e-24)
(0.134413 -0.352044 -1.90435e-20)
(0.138964 -0.363887 0)
(0.143447 -0.375409 5.85312e-19)
(0.147859 -0.386611 -5.7516e-19)
(0.152196 -0.397499 8.90158e-21)
(0.156457 -0.408081 -4.37083e-21)
(0.160641 -0.418366 0)
(0.164749 -0.428368 -4.22315e-21)
(0.168782 -0.4381 -1.33991e-24)
(0.17274 -0.447566 -5.21342e-19)
(0.176619 -0.456769 5.1012e-19)
(0.180419 -0.465713 0)
(0.0383503 -0.0507343 -3.68013e-20)
(0.0420265 -0.066032 3.1996e-19)
(0.0459389 -0.0815814 -3.33224e-19)
(0.0500816 -0.097352 3.64566e-19)
(0.0544414 -0.113293 -3.14221e-19)
(0.0589981 -0.129337 -3.60504e-19)
(0.0637256 -0.145406 3.5024e-19)
(0.0685951 -0.161426 -4.13824e-19)
(0.0735779 -0.177327 4.0195e-19)
(0.0786476 -0.193057 2.27104e-20)
(0.0837805 -0.208574 2.26757e-20)
(0.0889553 -0.223845 -4.52122e-20)
(0.0941532 -0.238845 -2.24859e-20)
(0.0993573 -0.253556 -7.22794e-19)
(0.104553 -0.267964 1.42431e-18)
(0.109729 -0.282058 -7.01818e-19)
(0.114872 -0.295833 -6.88002e-19)
(0.119974 -0.309282 -1.44635e-20)
(0.125025 -0.322403 6.55848e-19)
(0.13002 -0.335193 1.03711e-20)
(0.13495 -0.347652 1.02138e-20)
(0.139811 -0.359779 0)
(0.144598 -0.371577 -9.87919e-21)
(0.149306 -0.383047 0)
(0.153932 -0.394195 -9.54227e-21)
(0.158476 -0.405026 6.18397e-19)
(0.162935 -0.41555 -1.17907e-18)
(0.167311 -0.425776 5.75641e-19)
(0.171605 -0.435721 5.68603e-19)
(0.175817 -0.445391 -5.60797e-19)
(0.179946 -0.454791 4.29544e-21)