/*--------------------------------*- C++ -*----------------------------------*\
  =========                 |
  \\      /  F ield         | OpenFOAM: The Open Source CFD Toolbox
   \\    /   O peration     | Website:  https://openfoam.org
    \\  /    A nd           | Version:  10
     \\/     M anipulation  |
\*---------------------------------------------------------------------------*/
FoamFile
{
    format      ascii;
    class       volScalarField;
    location    "28000";
    object      p;
}
// * * * * * * * * * * * * * * * * * * * * * * * * * * * * * * * * * * * * * //

dimensions      [0 2 -2 0 0 0 0];

internalField   nonuniform List<scalar> 
17922
(
10.6795
10.5992
10.5173
10.4339
10.3491
10.2626
10.1746
10.085
9.99375
9.90089
9.80636
9.71016
9.61226
9.51263
9.41125
9.30811
9.20318
9.09643
8.98784
8.8774
8.76508
8.65085
8.53469
8.41659
8.29651
8.17444
8.05035
7.92421
7.79713
7.6713
7.54781
7.42662
7.30769
7.19097
7.07643
6.96403
6.85372
6.74546
6.63923
6.53497
6.43265
6.33224
6.23369
6.13697
6.04204
5.94887
5.85742
5.76766
5.67955
5.59306
5.50816
5.42481
5.34299
5.26266
5.18378
5.10634
5.0303
4.95563
4.8823
4.81029
4.73957
4.67011
4.60189
4.53488
4.46906
4.40441
4.3409
4.27852
4.21722
4.157
4.09783
4.03969
3.98257
3.92645
3.8713
3.81711
3.76386
3.71153
3.66011
3.60958
3.55991
3.51111
3.46315
3.41601
3.36968
3.32415
3.27941
3.23543
3.19221
3.14974
3.10799
3.06696
3.02664
10.6794
10.599
10.5171
10.4338
10.3489
10.2624
10.1744
10.0848
9.99357
9.90071
9.80619
9.70999
9.61208
9.51245
9.41108
9.30794
9.203
9.09625
8.98767
8.87723
8.7649
8.65068
8.53452
8.41642
8.29634
8.17427
8.05018
7.92404
7.79696
7.67113
7.54765
7.42646
7.30753
7.19082
7.07628
6.96388
6.85357
6.74532
6.63908
6.53483
6.43251
6.3321
6.23355
6.13683
6.04191
5.94874
5.85729
5.76753
5.67942
5.59294
5.50804
5.42469
5.34287
5.26254
5.18367
5.10623
5.03018
4.95552
4.88219
4.81018
4.73947
4.67001
4.6018
4.53479
4.46898
4.40433
4.34083
4.27845
4.21716
4.15694
4.09778
4.03965
3.98254
3.92642
3.87128
3.81709
3.76385
3.71153
3.66011
3.60959
3.55994
3.51114
3.46319
3.41606
3.36974
3.32423
3.27949
3.23553
3.19232
3.14986
3.10813
3.06712
3.02681
10.6791
10.5988
10.5169
10.4335
10.3486
10.2622
10.1742
10.0846
9.99333
9.90047
9.80595
9.70974
9.61184
9.51221
9.41083
9.30768
9.20275
9.096
8.98741
8.87696
8.76464
8.65041
8.53425
8.41614
8.29607
8.17399
8.0499
7.92376
7.79667
7.67084
7.54735
7.42616
7.30723
7.19051
7.07597
6.96357
6.85326
6.74501
6.63877
6.53451
6.43219
6.33178
6.23323
6.13651
6.04158
5.94841
5.85696
5.7672
5.67909
5.5926
5.50769
5.42435
5.34252
5.26219
5.18331
5.10587
5.02983
4.95516
4.88183
4.80982
4.7391
4.66965
4.60143
4.53442
4.46861
4.40397
4.34047
4.2781
4.21681
4.15659
4.09743
4.0393
3.98219
3.92607
3.87093
3.81675
3.76351
3.71119
3.65978
3.60926
3.55961
3.51082
3.46288
3.41575
3.36945
3.32394
3.27921
3.23526
3.19206
3.14961
3.10789
3.06688
3.02659
10.6789
10.5985
10.5167
10.4333
10.3484
10.262
10.1739
10.0843
9.99309
9.90022
9.80569
9.70949
9.61158
9.51194
9.41056
9.30742
9.20248
9.09572
8.98713
8.87668
8.76435
8.65012
8.53396
8.41585
8.29577
8.17369
8.04959
7.92345
7.79636
7.67053
7.54704
7.42584
7.30691
7.19019
7.07564
6.96323
6.85292
6.74466
6.63843
6.53416
6.43184
6.33143
6.23287
6.13615
6.04122
5.94804
5.85659
5.76683
5.67871
5.59222
5.50731
5.42396
5.34214
5.2618
5.18292
5.10548
5.02943
4.95476
4.88143
4.80942
4.7387
4.66924
4.60103
4.53402
4.46821
4.40357
4.34008
4.27771
4.21642
4.15621
4.09705
4.03892
3.98181
3.9257
3.87056
3.81638
3.76314
3.71083
3.65942
3.60891
3.55927
3.51048
3.46254
3.41543
3.36913
3.32363
3.27891
3.23497
3.19178
3.14934
3.10763
3.06664
3.02636
10.6787
10.5983
10.5165
10.4331
10.3482
10.2617
10.1737
10.0841
9.99286
9.89999
9.80546
9.70925
9.61134
9.51171
9.41032
9.30717
9.20223
9.09547
8.98688
8.87643
8.7641
8.64986
8.5337
8.41558
8.2955
8.17342
8.04931
7.92317
7.79608
7.67024
7.54675
7.42555
7.30661
7.18989
7.07534
6.96293
6.85261
6.74435
6.63811
6.53385
6.43152
6.3311
6.23255
6.13582
6.04089
5.94771
5.85626
5.76649
5.67837
5.59188
5.50697
5.42361
5.34178
5.26144
5.18256
5.10512
5.02907
4.9544
4.88107
4.80906
4.73833
4.66888
4.60066
4.53365
4.46784
4.40321
4.33972
4.27735
4.21607
4.15586
4.0967
4.03857
3.98147
3.92535
3.87022
3.81605
3.76281
3.71051
3.6591
3.60859
3.55896
3.51018
3.46225
3.41514
3.36885
3.32336
3.27865
3.23472
3.19154
3.14911
3.10742
3.06644
3.02618
10.6785
10.5981
10.5162
10.4329
10.348
10.2615
10.1735
10.0839
9.99265
9.89977
9.80525
9.70903
9.61112
9.51148
9.4101
9.30695
9.202
9.09524
8.98665
8.87619
8.76386
8.64962
8.53345
8.41533
8.29525
8.17316
8.04906
7.92291
7.79581
7.66997
7.54647
7.42527
7.30633
7.18961
7.07506
6.96264
6.85232
6.74406
6.63782
6.53355
6.43122
6.3308
6.23224
6.13551
6.04058
5.9474
5.85594
5.76617
5.67805
5.59155
5.50664
5.42328
5.34145
5.26111
5.18222
5.10477
5.02873
4.95405
4.88072
4.80871
4.73798
4.66853
4.60031
4.5333
4.46749
4.40286
4.33937
4.27701
4.21574
4.15552
4.09637
4.03824
3.98114
3.92503
3.8699
3.81573
3.7625
3.71019
3.6588
3.60829
3.55866
3.50989
3.46197
3.41487
3.36859
3.3231
3.27841
3.23448
3.19132
3.1489
3.10722
3.06626
3.02601
10.6783
10.5979
10.5161
10.4327
10.3478
10.2613
10.1733
10.0837
9.99244
9.89957
9.80504
9.70883
9.61091
9.51127
9.40988
9.30673
9.20178
9.09502
8.98642
8.87597
8.76363
8.64939
8.53322
8.4151
8.29501
8.17292
8.04881
7.92266
7.79556
7.66972
7.54621
7.42501
7.30607
7.18934
7.07478
6.96237
6.85205
6.74378
6.63753
6.53326
6.43093
6.33051
6.23195
6.13522
6.04028
5.94709
5.85563
5.76586
5.67774
5.59123
5.50632
5.42296
5.34112
5.26078
5.1819
5.10444
5.02839
4.95371
4.88038
4.80837
4.73764
4.66818
4.59996
4.53296
4.46715
4.40252
4.33904
4.27668
4.21541
4.1552
4.09604
4.03792
3.98082
3.92471
3.86959
3.81542
3.76219
3.70989
3.6585
3.608
3.55838
3.50962
3.4617
3.41461
3.36833
3.32286
3.27818
3.23426
3.19111
3.14871
3.10704
3.06609
3.02585
10.6781
10.5977
10.5159
10.4325
10.3476
10.2611
10.1731
10.0835
9.99225
9.89938
9.80484
9.70863
9.61071
9.51107
9.40968
9.30652
9.20157
9.09481
8.98621
8.87575
8.76341
8.64917
8.53299
8.41487
8.29478
8.17269
8.04858
7.92242
7.79532
7.66947
7.54597
7.42476
7.30581
7.18908
7.07452
6.9621
6.85178
6.74351
6.63726
6.53299
6.43066
6.33023
6.23167
6.13493
6.03999
5.9468
5.85534
5.76556
5.67744
5.59093
5.50601
5.42265
5.34081
5.26046
5.18158
5.10412
5.02807
4.95339
4.88006
4.80804
4.73731
4.66785
4.59963
4.53262
4.46682
4.40219
4.33871
4.27636
4.2151
4.15489
4.09574
4.03762
3.98052
3.92441
3.86929
3.81512
3.7619
3.70961
3.65822
3.60773
3.55811
3.50935
3.46144
3.41436
3.3681
3.32263
3.27796
3.23406
3.19092
3.14852
3.10686
3.06593
3.0257
10.6779
10.5976
10.5157
10.4323
10.3474
10.261
10.1729
10.0833
9.99207
9.89919
9.80466
9.70844
9.61053
9.51088
9.40949
9.30633
9.20138
9.09461
8.98601
8.87555
8.76321
8.64896
8.53278
8.41466
8.29456
8.17247
8.04835
7.9222
7.79509
7.66924
7.54573
7.42452
7.30557
7.18884
7.07428
6.96186
6.85153
6.74326
6.637
6.53273
6.43039
6.32996
6.2314
6.13466
6.03971
5.94652
5.85505
5.76527
5.67715
5.59064
5.50572
5.42236
5.34051
5.26016
5.18127
5.10382
5.02776
4.95308
4.87974
4.80772
4.737
4.66754
4.59931
4.53231
4.4665
4.40188
4.3384
4.27605
4.2148
4.1546
4.09544
4.03732
3.98022
3.92412
3.869
3.81484
3.76162
3.70933
3.65795
3.60746
3.55785
3.5091
3.4612
3.41413
3.36787
3.32242
3.27775
3.23386
3.19073
3.14835
3.10671
3.06578
3.02557
10.6778
10.5974
10.5155
10.4321
10.3472
10.2608
10.1728
10.0831
9.9919
9.89902
9.80449
9.70827
9.61035
9.5107
9.40931
9.30615
9.2012
9.09443
8.98582
8.87536
8.76301
8.64876
8.53259
8.41446
8.29436
8.17226
8.04815
7.92199
7.79488
7.66903
7.54551
7.4243
7.30535
7.18861
7.07405
6.96162
6.85129
6.74302
6.63676
6.53248
6.43014
6.32971
6.23114
6.1344
6.03945
5.94626
5.85479
5.765
5.67687
5.59036
5.50544
5.42207
5.34023
5.25987
5.18098
5.10352
5.02746
4.95278
4.87944
4.80742
4.73669
4.66723
4.59901
4.532
4.4662
4.40158
4.33811
4.27576
4.21451
4.15431
4.09516
4.03704
3.97994
3.92384
3.86873
3.81457
3.76136
3.70907
3.6577
3.60721
3.55761
3.50887
3.46097
3.41391
3.36766
3.32222
3.27756
3.23368
3.19057
3.1482
3.10656
3.06566
3.02546
10.6776
10.5972
10.5154
10.432
10.3471
10.2606
10.1726
10.083
9.99174
9.89886
9.80432
9.70811
9.61018
9.51054
9.40914
9.30598
9.20102
9.09425
8.98565
8.87518
8.76283
8.64858
8.5324
8.41427
8.29417
8.17207
8.04795
7.92179
7.79467
7.66882
7.54531
7.42409
7.30513
7.18839
7.07383
6.9614
6.85106
6.74279
6.63653
6.53225
6.4299
6.32947
6.23089
6.13415
6.0392
5.946
5.85453
5.76474
5.67661
5.5901
5.50517
5.4218
5.33995
5.25959
5.1807
5.10324
5.02718
4.95249
4.87915
4.80713
4.7364
4.66693
4.59871
4.5317
4.46591
4.40129
4.33782
4.27547
4.21423
4.15404
4.09488
4.03677
3.97968
3.92358
3.86846
3.81431
3.7611
3.70882
3.65745
3.60698
3.55738
3.50864
3.46076
3.4137
3.36746
3.32203
3.27739
3.23352
3.19041
3.14805
3.10644
3.06554
3.02536
10.6775
10.5971
10.5152
10.4318
10.3469
10.2605
10.1725
10.0828
9.99159
9.89871
9.80417
9.70795
9.61003
9.51038
9.40899
9.30582
9.20086
9.09409
8.98548
8.87502
8.76267
8.64841
8.53223
8.4141
8.29399
8.17189
8.04777
7.9216
7.79449
7.66863
7.54511
7.42389
7.30493
7.18819
7.07362
6.96119
6.85085
6.74257
6.63631
6.53202
6.42968
6.32924
6.23066
6.13391
6.03896
5.94576
5.85428
5.76449
5.67636
5.58984
5.50491
5.42154
5.33969
5.25933
5.18043
5.10296
5.0269
4.95221
4.87887
4.80685
4.73612
4.66665
4.59842
4.53142
4.46563
4.40102
4.33755
4.2752
4.21396
4.15378
4.09463
4.03651
3.97942
3.92333
3.86821
3.81407
3.76086
3.70859
3.65722
3.60675
3.55716
3.50844
3.46056
3.41351
3.36728
3.32186
3.27722
3.23337
3.19027
3.14793
3.10632
3.06544
3.02527
10.6773
10.5969
10.5151
10.4317
10.3468
10.2603
10.1723
10.0827
9.99145
9.89857
9.80403
9.70781
9.60989
9.51024
9.40884
9.30567
9.20071
9.09394
8.98533
8.87486
8.76251
8.64825
8.53207
8.41393
8.29383
8.17172
8.0476
7.92143
7.79431
7.66845
7.54493
7.42371
7.30474
7.18799
7.07342
6.96099
6.85065
6.74237
6.6361
6.53181
6.42947
6.32902
6.23044
6.13369
6.03873
5.94553
5.85405
5.76426
5.67612
5.5896
5.50467
5.42129
5.33943
5.25907
5.18017
5.1027
5.02664
4.95195
4.8786
4.80658
4.73585
4.66638
4.59815
4.53115
4.46537
4.40076
4.33729
4.27494
4.2137
4.15353
4.09439
4.03627
3.97918
3.92309
3.86798
3.81383
3.76063
3.70836
3.657
3.60654
3.55696
3.50824
3.46037
3.41333
3.36711
3.3217
3.27707
3.23323
3.19014
3.14781
3.10622
3.06535
3.02519
10.6772
10.5968
10.515
10.4316
10.3467
10.2602
10.1722
10.0826
9.99132
9.89844
9.8039
9.70768
9.60975
9.5101
9.4087
9.30554
9.20058
9.0938
8.98519
8.87472
8.76236
8.6481
8.53192
8.41378
8.29367
8.17156
8.04744
7.92126
7.79414
7.66828
7.54476
7.42353
7.30456
7.18781
7.07324
6.9608
6.85046
6.74217
6.6359
6.53161
6.42926
6.32882
6.23023
6.13348
6.03852
5.94531
5.85383
5.76403
5.67589
5.58937
5.50443
5.42105
5.3392
5.25883
5.17993
5.10246
5.02639
4.9517
4.87835
4.80632
4.73559
4.66612
4.59789
4.5309
4.46512
4.40051
4.33704
4.2747
4.21346
4.15329
4.09415
4.03604
3.97895
3.92286
3.86775
3.81361
3.76042
3.70815
3.6568
3.60634
3.55677
3.50806
3.46019
3.41316
3.36695
3.32155
3.27694
3.2331
3.19003
3.14771
3.10613
3.06527
3.02513
10.6771
10.5967
10.5148
10.4315
10.3466
10.2601
10.1721
10.0824
9.9912
9.89832
9.80378
9.70756
9.60963
9.50998
9.40858
9.30541
9.20045
9.09367
8.98506
8.87458
8.76223
8.64797
8.53178
8.41364
8.29353
8.17142
8.04729
7.92111
7.79399
7.66812
7.5446
7.42337
7.3044
7.18765
7.07307
6.96063
6.85028
6.74199
6.63572
6.53143
6.42907
6.32862
6.23004
6.13328
6.03832
5.94511
5.85362
5.76382
5.67568
5.58915
5.50421
5.42083
5.33897
5.2586
5.17969
5.10222
5.02615
4.95146
4.87811
4.80608
4.73534
4.66587
4.59765
4.53066
4.46488
4.40028
4.33681
4.27447
4.21323
4.15306
4.09393
4.03582
3.97873
3.92265
3.86754
3.81341
3.76022
3.70796
3.65661
3.60616
3.55659
3.50789
3.46003
3.41301
3.36681
3.32142
3.27682
3.23299
3.18993
3.14762
3.10606
3.06521
3.02508
10.677
10.5966
10.5147
10.4313
10.3464
10.26
10.172
10.0823
9.99109
9.89821
9.80367
9.70744
9.60952
9.50987
9.40846
9.30529
9.20033
9.09355
8.98494
8.87446
8.76211
8.64784
8.53165
8.41351
8.2934
8.17129
8.04715
7.92098
7.79385
7.66798
7.54445
7.42322
7.30425
7.18749
7.07291
6.96047
6.85012
6.74182
6.63555
6.53125
6.4289
6.32844
6.22985
6.13309
6.03813
5.94491
5.85342
5.76362
5.67547
5.58894
5.504
5.42062
5.33875
5.25838
5.17947
5.102
5.02592
4.95123
4.87788
4.80585
4.73511
4.66563
4.59741
4.53044
4.46466
4.40005
4.33659
4.27425
4.21301
4.15285
4.09372
4.03561
3.97853
3.92244
3.86734
3.81321
3.76003
3.70777
3.65643
3.60599
3.55643
3.50773
3.45988
3.41287
3.36668
3.3213
3.27671
3.2329
3.18985
3.14755
3.10599
3.06516
3.02504
10.9839
10.9093
10.8332
10.7558
10.6769
10.5965
10.5146
10.4312
10.3463
10.2599
10.1719
10.0822
9.99099
9.89811
9.80357
9.70734
9.60942
9.50976
9.40836
9.30519
9.20023
9.09345
8.98483
8.87435
8.76199
8.64773
8.53154
8.41339
8.29328
8.17116
8.04703
7.92085
7.79372
7.66785
7.54431
7.42308
7.3041
7.18735
7.07276
6.96032
6.84996
6.74167
6.63539
6.53109
6.42873
6.32827
6.22968
6.13292
6.03795
5.94473
5.85324
5.76343
5.67528
5.58875
5.5038
5.42042
5.33855
5.25818
5.17926
5.10179
5.02571
4.95101
4.87766
4.80563
4.73489
4.66541
4.5972
4.53023
4.46445
4.39985
4.33638
4.27404
4.21281
4.15264
4.09352
4.03542
3.97833
3.92225
3.86716
3.81303
3.75985
3.7076
3.65627
3.60583
3.55628
3.50759
3.45975
3.41275
3.36657
3.32119
3.27661
3.23281
3.18977
3.14749
3.10595
3.06513
3.02502
10.9838
10.9092
10.8331
10.7557
10.6768
10.5964
10.5145
10.4312
10.3463
10.2598
10.1718
10.0821
9.9909
9.89802
9.80347
9.70725
9.60932
9.50967
9.40827
9.30509
9.20013
9.09335
8.98473
8.87425
8.76189
8.64763
8.53143
8.41329
8.29317
8.17105
8.04691
7.92073
7.7936
7.66772
7.54419
7.42295
7.30397
7.18721
7.07263
6.96018
6.84982
6.74152
6.63524
6.53094
6.42858
6.32812
6.22952
6.13276
6.03778
5.94456
5.85307
5.76326
5.6751
5.58857
5.50362
5.42023
5.33836
5.25798
5.17907
5.10159
5.02551
4.95081
4.87745
4.80542
4.73468
4.6652
4.597
4.53003
4.46426
4.39965
4.33619
4.27385
4.21261
4.15245
4.09334
4.03524
3.97816
3.92208
3.86699
3.81286
3.75969
3.70744
3.65612
3.60569
3.55614
3.50746
3.45963
3.41264
3.36647
3.3211
3.27653
3.23274
3.18972
3.14744
3.10591
3.0651
3.02501
10.9837
10.9091
10.833
10.7556
10.6767
10.5963
10.5144
10.4311
10.3462
10.2597
10.1717
10.0821
9.99082
9.89793
9.80339
9.70717
9.60924
9.50959
9.40818
9.30501
9.20004
9.09326
8.98464
8.87416
8.7618
8.64753
8.53134
8.41319
8.29307
8.17095
8.04681
7.92063
7.79349
7.66761
7.54408
7.42284
7.30386
7.18709
7.0725
6.96005
6.84969
6.74139
6.63511
6.5308
6.42844
6.32797
6.22937
6.1326
6.03763
5.94441
5.85291
5.76309
5.67494
5.5884
5.50345
5.42005
5.33818
5.2578
5.17888
5.1014
5.02532
4.95061
4.87726
4.80522
4.73448
4.66501
4.59681
4.52985
4.46408
4.39947
4.33601
4.27368
4.21244
4.15228
4.09316
4.03507
3.97799
3.92191
3.86683
3.81271
3.75954
3.7073
3.65598
3.60555
3.55602
3.50734
3.45952
3.41254
3.36638
3.32102
3.27646
3.23268
3.18967
3.14741
3.10589
3.06509
3.02501
11.1993
11.1288
11.0569
10.9836
10.909
10.833
10.7555
10.6766
10.5962
10.5144
10.431
10.3461
10.2596
10.1716
10.082
9.99075
9.89786
9.80332
9.7071
9.60917
9.50951
9.40811
9.30494
9.19997
9.09319
8.98457
8.87409
8.76172
8.64745
8.53126
8.41311
8.29298
8.17086
8.04672
7.92053
7.7934
7.66752
7.54398
7.42273
7.30375
7.18698
7.07239
6.95993
6.84957
6.74127
6.63498
6.53067
6.42831
6.32784
6.22924
6.13246
6.03748
5.94426
5.85276
5.76294
5.67478
5.58824
5.50329
5.41989
5.33801
5.25763
5.17871
5.10122
5.02514
4.95044
4.87708
4.80504
4.73429
4.66483
4.59665
4.52968
4.46391
4.39931
4.33585
4.27351
4.21228
4.15211
4.093
4.03491
3.97783
3.92176
3.86668
3.81256
3.7594
3.70717
3.65585
3.60544
3.55591
3.50724
3.45943
3.41245
3.3663
3.32096
3.27641
3.23264
3.18964
3.14739
3.10588
3.06509
3.02502
11.1992
11.1287
11.0568
10.9836
10.9089
10.8329
10.7555
10.6765
10.5962
10.5143
10.4309
10.346
10.2596
10.1716
10.0819
9.99068
9.8978
9.80326
9.70704
9.60911
9.50945
9.40805
9.30487
9.1999
9.09312
8.9845
8.87402
8.76165
8.64738
8.53118
8.41303
8.29291
8.17078
8.04664
7.92045
7.79331
7.66743
7.54389
7.42264
7.30365
7.18688
7.07229
6.95983
6.84947
6.74116
6.63487
6.53056
6.42819
6.32772
6.22911
6.13234
6.03735
5.94413
5.85262
5.7628
5.67464
5.58809
5.50314
5.41973
5.33786
5.25747
5.17855
5.10106
5.02498
4.95027
4.87691
4.80487
4.73413
4.66468
4.59649
4.52953
4.46376
4.39916
4.3357
4.27336
4.21213
4.15196
4.09285
4.03477
3.97769
3.92163
3.86655
3.81244
3.75928
3.70705
3.65574
3.60533
3.55581
3.50715
3.45935
3.41238
3.36624
3.32091
3.27637
3.23261
3.18962
3.14738
3.10588
3.06511
3.02505
11.1992
11.1286
11.0568
10.9835
10.9089
10.8329
10.7554
10.6765
10.5961
10.5143
10.4309
10.346
10.2595
10.1715
10.0819
9.99063
9.89775
9.80321
9.70698
9.60905
9.5094
9.40799
9.30482
9.19985
9.09306
8.98444
8.87396
8.76159
8.64732
8.53112
8.41297
8.29284
8.17072
8.04657
7.92038
7.79324
7.66735
7.54381
7.42256
7.30357
7.1868
7.0722
6.95974
6.84937
6.74106
6.63477
6.53046
6.42808
6.32761
6.229
6.13222
6.03724
5.94401
5.8525
5.76268
5.67451
5.58796
5.503
5.4196
5.33772
5.25733
5.1784
5.10091
5.02483
4.95012
4.87675
4.80471
4.73398
4.66454
4.59635
4.52939
4.46362
4.39902
4.33556
4.27323
4.21199
4.15183
4.09272
4.03463
3.97756
3.9215
3.86643
3.81232
3.75917
3.70695
3.65564
3.60524
3.55573
3.50708
3.45928
3.41233
3.3662
3.32087
3.27634
3.23259
3.18961
3.14738
3.10589
3.06513
3.02509
11.1991
11.1286
11.0567
10.9835
10.9088
10.8328
10.7554
10.6765
10.5961
10.5142
10.4308
10.3459
10.2595
10.1715
10.0818
9.99059
9.89771
9.80317
9.70694
9.60901
9.50935
9.40795
9.30477
9.1998
9.09302
8.9844
8.87391
8.76154
8.64727
8.53107
8.41292
8.29279
8.17066
8.04651
7.92032
7.79317
7.66729
7.54374
7.42249
7.3035
7.18672
7.07212
6.95966
6.84929
6.74098
6.63468
6.53036
6.42799
6.32751
6.2289
6.13212
6.03713
5.9439
5.85238
5.76256
5.67439
5.58784
5.50288
5.41947
5.33759
5.2572
5.17827
5.10078
5.02469
4.94998
4.87661
4.80457
4.73384
4.66441
4.59623
4.52927
4.4635
4.3989
4.33544
4.27311
4.21187
4.15171
4.0926
4.03451
3.97745
3.92139
3.86632
3.81222
3.75907
3.70686
3.65556
3.60517
3.55566
3.50702
3.45923
3.41229
3.36616
3.32085
3.27633
3.23259
3.18962
3.1474
3.10592
3.06517
3.02514
11.1991
11.1286
11.0567
10.9834
10.9088
10.8328
10.7553
10.6764
10.5961
10.5142
10.4308
10.3459
10.2595
10.1714
10.0818
9.99056
9.89768
9.80313
9.70691
9.60898
9.50932
9.40791
9.30474
9.19977
9.09298
8.98436
8.87387
8.76151
8.64723
8.53103
8.41287
8.29274
8.17061
8.04646
7.92027
7.79312
7.66723
7.54368
7.42243
7.30344
7.18666
7.07206
6.95959
6.84922
6.7409
6.6346
6.53028
6.4279
6.32742
6.22881
6.13203
6.03703
5.9438
5.85228
5.76246
5.67428
5.58773
5.50276
5.41935
5.33747
5.25708
5.17815
5.10065
5.02456
4.94985
4.87648
4.80444
4.73373
4.6643
4.59612
4.52916
4.46339
4.39879
4.33534
4.273
4.21176
4.1516
4.09249
4.03441
3.97734
3.92129
3.86622
3.81213
3.75899
3.70678
3.65549
3.6051
3.5556
3.50697
3.45919
3.41226
3.36614
3.32084
3.27633
3.2326
3.18964
3.14743
3.10596
3.06522
3.0252
11.1991
11.1285
11.0567
10.9834
10.9088
10.8328
10.7553
10.6764
10.596
10.5142
10.4308
10.3459
10.2594
10.1714
10.0818
9.99053
9.89765
9.80311
9.70688
9.60895
9.5093
9.40789
9.30471
9.19974
9.09296
8.98433
8.87385
8.76148
8.6472
8.531
8.41284
8.29271
8.17058
8.04643
7.92023
7.79308
7.66719
7.54364
7.42238
7.30339
7.18661
7.072
6.95953
6.84916
6.74084
6.63454
6.53022
6.42783
6.32735
6.22874
6.13195
6.03695
5.94371
5.8522
5.76237
5.67419
5.58763
5.50267
5.41925
5.33736
5.25697
5.17804
5.10054
5.02445
4.94973
4.87637
4.80434
4.73364
4.66421
4.59603
4.52907
4.4633
4.3987
4.33525
4.27291
4.21167
4.1515
4.09239
4.03431
3.97725
3.9212
3.86614
3.81205
3.75892
3.70672
3.65544
3.60506
3.55556
3.50694
3.45917
3.41224
3.36614
3.32084
3.27634
3.23262
3.18967
3.14748
3.10602
3.06529
3.02527
11.199
11.1285
11.0566
10.9834
10.9088
10.8328
10.7553
10.6764
10.596
10.5142
10.4308
10.3459
10.2594
10.1714
10.0818
9.99052
9.89764
9.8031
9.70687
9.60894
9.50928
9.40788
9.3047
9.19973
9.09294
8.98431
8.87383
8.76146
8.64718
8.53098
8.41282
8.29269
8.17055
8.0464
7.9202
7.79305
7.66716
7.5436
7.42235
7.30335
7.18656
7.07196
6.95949
6.84911
6.74079
6.63448
6.53016
6.42777
6.32729
6.22867
6.13188
6.03688
5.94364
5.85212
5.76229
5.67411
5.58755
5.50258
5.41916
5.33727
5.25688
5.17794
5.10044
5.02435
4.94963
4.87627
4.80426
4.73356
4.66413
4.59595
4.52899
4.46322
4.39862
4.33517
4.27283
4.21159
4.15142
4.09231
4.03423
3.97718
3.92113
3.86608
3.81199
3.75886
3.70667
3.65539
3.60502
3.55554
3.50692
3.45916
3.41224
3.36615
3.32086
3.27637
3.23266
3.18972
3.14753
3.10609
3.06537
3.02536
11.199
11.1285
11.0566
10.9834
10.9088
10.8327
10.7553
10.6764
10.596
10.5142
10.4308
10.3459
10.2594
10.1714
10.0818
9.99052
9.89764
9.80309
9.70687
9.60893
9.50928
9.40787
9.30469
9.19972
9.09293
8.98431
8.87382
8.76145
8.64717
8.53096
8.41281
8.29267
8.17054
8.04638
7.92018
7.79303
7.66713
7.54358
7.42232
7.30332
7.18653
7.07192
6.95945
6.84907
6.74075
6.63444
6.53011
6.42773
6.32724
6.22862
6.13183
6.03682
5.94358
5.85206
5.76222
5.67404
5.58748
5.50251
5.41909
5.3372
5.2568
5.17786
5.10036
5.02426
4.94954
4.87619
4.80419
4.73349
4.66406
4.59588
4.52892
4.46316
4.39856
4.33511
4.27277
4.21153
4.15136
4.09224
4.03416
3.97711
3.92107
3.86602
3.81195
3.75882
3.70664
3.65537
3.605
3.55553
3.50692
3.45917
3.41226
3.36617
3.3209
3.27641
3.23272
3.18978
3.14761
3.10617
3.06546
3.02546
11.199
11.1285
11.0566
10.9834
10.9088
10.8328
10.7553
10.6764
10.596
10.5142
10.4308
10.3459
10.2594
10.1714
10.0818
9.99052
9.89764
9.8031
9.70687
9.60894
9.50928
9.40787
9.3047
9.19972
9.09294
8.98431
8.87382
8.76145
8.64717
8.53096
8.4128
8.29267
8.17053
8.04638
7.92018
7.79302
7.66712
7.54357
7.4223
7.3033
7.18651
7.0719
6.95943
6.84905
6.74072
6.63441
6.53008
6.42769
6.3272
6.22858
6.13178
6.03678
5.94353
5.85201
5.76217
5.67399
5.58742
5.50245
5.41903
5.33713
5.25673
5.17779
5.10029
5.02419
4.94948
4.87614
4.80414
4.73344
4.66401
4.59584
4.52888
4.46311
4.39851
4.33506
4.27272
4.21148
4.1513
4.09218
4.03411
3.97707
3.92103
3.86599
3.81191
3.7588
3.70662
3.65536
3.605
3.55553
3.50693
3.45919
3.41229
3.36621
3.32094
3.27647
3.23278
3.18986
3.14769
3.10627
3.06556
3.02558
11.1991
11.1285
11.0567
10.9834
10.9088
10.8328
10.7553
10.6764
10.596
10.5142
10.4308
10.3459
10.2594
10.1714
10.0818
9.99054
9.89766
9.80311
9.70689
9.60895
9.5093
9.40789
9.30471
9.19974
9.09295
8.98432
8.87383
8.76146
8.64718
8.53097
8.41281
8.29268
8.17054
8.04638
7.92018
7.79302
7.66712
7.54356
7.4223
7.3033
7.18651
7.07189
6.95942
6.84903
6.7407
6.63439
6.53006
6.42767
6.32718
6.22855
6.13175
6.03675
5.9435
5.85197
5.76213
5.67394
5.58738
5.5024
5.41898
5.33708
5.25668
5.17774
5.10023
5.02413
4.94943
4.8761
4.8041
4.73341
4.66398
4.5958
4.52884
4.46308
4.39848
4.33502
4.27269
4.21144
4.15127
4.09214
4.03407
3.97703
3.921
3.86596
3.8119
3.75879
3.70661
3.65536
3.60501
3.55555
3.50696
3.45923
3.41233
3.36626
3.32101
3.27655
3.23287
3.18995
3.14779
3.10638
3.06568
3.0257
11.1991
11.1286
11.0567
10.9835
10.9088
10.8328
10.7553
10.6764
10.5961
10.5142
10.4308
10.3459
10.2595
10.1714
10.0818
9.99056
9.89768
9.80314
9.70691
9.60898
9.50932
9.40791
9.30473
9.19976
9.09297
8.98434
8.87385
8.76148
8.6472
8.53099
8.41283
8.29269
8.17056
8.0464
7.92019
7.79303
7.66713
7.54357
7.42231
7.3033
7.18651
7.0719
6.95941
6.84903
6.7407
6.63439
6.53005
6.42766
6.32716
6.22854
6.13173
6.03673
5.94347
5.85195
5.7621
5.67391
5.58735
5.50237
5.41894
5.33704
5.25664
5.1777
5.10019
5.0241
4.94941
4.87608
4.80408
4.73339
4.66396
4.59578
4.52883
4.46306
4.39846
4.33501
4.27267
4.21142
4.15124
4.09212
4.03405
3.97701
3.92099
3.86596
3.8119
3.75879
3.70663
3.65538
3.60504
3.55559
3.507
3.45928
3.41239
3.36634
3.32109
3.27663
3.23296
3.19006
3.14791
3.1065
3.06582
3.02585
11.1991
11.1286
11.0567
10.9835
10.9089
10.8328
10.7554
10.6765
10.5961
10.5142
10.4309
10.346
10.2595
10.1715
10.0818
9.9906
9.89771
9.80317
9.70694
9.60901
9.50935
9.40794
9.30476
9.19979
9.093
8.98437
8.87388
8.76151
8.64723
8.53102
8.41286
8.29272
8.17058
8.04642
7.92022
7.79306
7.66715
7.54359
7.42233
7.30332
7.18653
7.07191
6.95943
6.84904
6.74071
6.63439
6.53006
6.42766
6.32716
6.22853
6.13173
6.03672
5.94347
5.85193
5.76209
5.6739
5.58733
5.50234
5.41892
5.33702
5.25661
5.17767
5.10016
5.02408
4.9494
4.87608
4.80408
4.73338
4.66396
4.59578
4.52882
4.46306
4.39846
4.335
4.27266
4.21141
4.15123
4.09211
4.03404
3.97701
3.92099
3.86596
3.81191
3.75881
3.70665
3.65542
3.60508
3.55564
3.50706
3.45935
3.41247
3.36642
3.32118
3.27674
3.23308
3.19018
3.14804
3.10664
3.06597
3.02601
11.1992
11.1287
11.0568
10.9835
10.9089
10.8329
10.7554
10.6765
10.5961
10.5143
10.4309
10.346
10.2595
10.1715
10.0819
9.99064
9.89776
9.80321
9.70698
9.60905
9.50939
9.40799
9.30481
9.19983
9.09304
8.98441
8.87392
8.76155
8.64727
8.53106
8.4129
8.29276
8.17062
8.04646
7.92025
7.79309
7.66719
7.54362
7.42236
7.30335
7.18655
7.07193
6.95945
6.84906
6.74073
6.63441
6.53007
6.42767
6.32717
6.22854
6.13174
6.03672
5.94347
5.85193
5.76209
5.67389
5.58732
5.50234
5.41891
5.33701
5.2566
5.17765
5.10016
5.02409
4.94941
4.87609
4.80409
4.7334
4.66397
4.5958
4.52884
4.46307
4.39848
4.33502
4.27267
4.21142
4.15124
4.09211
4.03405
3.97702
3.92101
3.86599
3.81194
3.75885
3.7067
3.65547
3.60514
3.55571
3.50714
3.45943
3.41257
3.36653
3.3213
3.27686
3.23321
3.19033
3.14819
3.1068
3.06614
3.02618
11.1992
11.1287
11.0568
10.9836
10.909
10.8329
10.7555
10.6766
10.5962
10.5143
10.431
10.3461
10.2596
10.1716
10.0819
9.99069
9.89781
9.80326
9.70704
9.6091
9.50945
9.40804
9.30486
9.19988
9.09309
8.98446
8.87397
8.7616
8.64732
8.53111
8.41294
8.2928
8.17066
8.0465
7.92029
7.79313
7.66723
7.54366
7.42239
7.30338
7.18659
7.07197
6.95948
6.84909
6.74076
6.63444
6.5301
6.4277
6.3272
6.22856
6.13176
6.03674
5.94348
5.85195
5.7621
5.6739
5.58733
5.50234
5.41891
5.33701
5.2566
5.17766
5.10017
5.02411
4.94944
4.87612
4.80412
4.73342
4.664
4.59582
4.52887
4.4631
4.3985
4.33504
4.2727
4.21144
4.15125
4.09213
4.03407
3.97705
3.92105
3.86603
3.81199
3.75891
3.70676
3.65554
3.60522
3.55579
3.50724
3.45954
3.41268
3.36665
3.32143
3.277
3.23336
3.19048
3.14836
3.10698
3.06632
3.02637
11.1993
11.1288
11.0569
10.9837
10.909
10.833
10.7555
10.6766
10.5963
10.5144
10.431
10.3461
10.2597
10.1716
10.082
9.99075
9.89787
9.80332
9.7071
9.60917
9.50951
9.4081
9.30492
9.19994
9.09315
8.98452
8.87403
8.76166
8.64738
8.53117
8.413
8.29286
8.17072
8.04656
7.92035
7.79319
7.66728
7.54371
7.42245
7.30343
7.18664
7.07202
6.95953
6.84914
6.7408
6.63448
6.53014
6.42774
6.32723
6.2286
6.13179
6.03677
5.94351
5.85198
5.76213
5.67393
5.58735
5.50237
5.41893
5.33703
5.25662
5.17768
5.10021
5.02416
4.94948
4.87616
4.80416
4.73347
4.66405
4.59587
4.52891
4.46315
4.39855
4.33508
4.27273
4.21147
4.15129
4.09217
4.03411
3.9771
3.9211
3.86609
3.81206
3.75898
3.70684
3.65563
3.60532
3.5559
3.50735
3.45966
3.41281
3.36679
3.32158
3.27716
3.23353
3.19066
3.14855
3.10717
3.06652
3.02659
11.1994
11.1288
11.057
10.9837
10.9091
10.8331
10.7556
10.6767
10.5963
10.5145
10.4311
10.3462
10.2597
10.1717
10.0821
9.99082
9.89794
9.80339
9.70717
9.60923
9.50958
9.40817
9.30499
9.20001
9.09322
8.98459
8.8741
8.76173
8.64745
8.53123
8.41307
8.29293
8.17079
8.04662
7.92041
7.79325
7.66735
7.54378
7.42251
7.30349
7.1867
7.07207
6.95959
6.84919
6.74086
6.63453
6.53019
6.42779
6.32728
6.22865
6.13184
6.03682
5.94356
5.85202
5.76216
5.67397
5.58739
5.5024
5.41897
5.33706
5.25665
5.17773
5.10027
5.02421
4.94954
4.87622
4.80422
4.73353
4.66411
4.59593
4.52897
4.46321
4.39861
4.33514
4.27279
4.21152
4.15133
4.09222
4.03418
3.97717
3.92117
3.86617
3.81214
3.75907
3.70694
3.65574
3.60544
3.55602
3.50749
3.4598
3.41296
3.36695
3.32175
3.27734
3.23372
3.19086
3.14875
3.10739
3.06674
3.02682
11.2687
11.1995
11.1289
11.0571
10.9838
10.9092
10.8331
10.7557
10.6768
10.5964
10.5145
10.4312
10.3463
10.2598
10.1718
10.0821
9.9909
9.89802
9.80347
9.70725
9.60931
9.50965
9.40825
9.30507
9.20009
9.0933
8.98467
8.87418
8.76181
8.64752
8.53131
8.41315
8.29301
8.17086
8.0467
7.92049
7.79333
7.66742
7.54385
7.42258
7.30357
7.18677
7.07214
6.95966
6.84926
6.74092
6.6346
6.53026
6.42785
6.32735
6.22871
6.13189
6.03688
5.94361
5.85207
5.76222
5.67402
5.58744
5.50245
5.41902
5.33711
5.25671
5.1778
5.10034
5.02428
4.94961
4.87629
4.8043
4.7336
4.66418
4.59601
4.52905
4.46328
4.39868
4.33521
4.27286
4.21159
4.1514
4.09229
4.03426
3.97726
3.92126
3.86627
3.81225
3.75919
3.70706
3.65587
3.60557
3.55617
3.50764
3.45997
3.41314
3.36713
3.32194
3.27754
3.23392
3.19108
3.14898
3.10762
3.06699
3.02707
11.2688
11.1996
11.129
11.0571
10.9839
10.9093
10.8332
10.7558
10.6769
10.5965
10.5146
10.4313
10.3464
10.2599
10.1719
10.0822
9.99099
9.89811
9.80356
9.70733
9.6094
9.50974
9.40833
9.30515
9.20018
9.09339
8.98476
8.87427
8.76189
8.64761
8.5314
8.41323
8.29309
8.17095
8.04679
7.92058
7.79341
7.6675
7.54394
7.42266
7.30365
7.18685
7.07223
6.95974
6.84934
6.741
6.63468
6.53033
6.42793
6.32742
6.22878
6.13197
6.03695
5.94368
5.85214
5.76228
5.67408
5.5875
5.50251
5.41908
5.33718
5.25679
5.17789
5.10043
5.02437
4.9497
4.87638
4.80439
4.7337
4.66428
4.5961
4.52914
4.46338
4.39877
4.3353
4.27294
4.21167
4.15148
4.09238
4.03435
3.97736
3.92137
3.86638
3.81237
3.75932
3.7072
3.65601
3.60573
3.55634
3.50781
3.46015
3.41333
3.36733
3.32215
3.27776
3.23415
3.19132
3.14923
3.10788
3.06725
3.02734
11.2689
11.1997
11.1291
11.0572
10.984
10.9094
10.8333
10.7559
10.677
10.5966
10.5147
10.4314
10.3464
10.26
10.172
10.0823
9.99109
9.8982
9.80366
9.70743
9.6095
9.50984
9.40843
9.30525
9.20028
9.09349
8.98486
8.87436
8.76199
8.64771
8.5315
8.41333
8.29319
8.17105
8.04688
7.92067
7.79351
7.6676
7.54403
7.42276
7.30374
7.18694
7.07232
6.95983
6.84943
6.74109
6.63477
6.53042
6.42801
6.32751
6.22887
6.13205
6.03703
5.94377
5.85222
5.76237
5.67416
5.58758
5.50259
5.41916
5.33727
5.2569
5.178
5.10053
5.02448
4.94981
4.87649
4.8045
4.7338
4.66439
4.59621
4.52925
4.46349
4.39888
4.33541
4.27304
4.21177
4.15158
4.09249
4.03447
3.97748
3.9215
3.86652
3.81252
3.75947
3.70736
3.65618
3.60591
3.55652
3.50801
3.46036
3.41355
3.36756
3.32238
3.27801
3.23441
3.19158
3.1495
3.10816
3.06754
11.269
11.1998
11.1292
11.0574
10.9841
10.9095
10.8334
10.756
10.6771
10.5967
10.5148
10.4315
10.3466
10.2601
10.1721
10.0824
9.99119
9.89831
9.80376
9.70754
9.6096
9.50994
9.40854
9.30536
9.20038
9.09359
8.98496
8.87447
8.7621
8.64781
8.5316
8.41344