/*--------------------------------*- C++ -*----------------------------------*\
  =========                 |
  \\      /  F ield         | OpenFOAM: The Open Source CFD Toolbox
   \\    /   O peration     | Website:  https://openfoam.org
    \\  /    A nd           | Version:  10
     \\/     M anipulation  |
\*---------------------------------------------------------------------------*/
FoamFile
{
    format      ascii;
    class       volVectorField;
    location    "28000";
    object      Urel;
}
// * * * * * * * * * * * * * * * * * * * * * * * * * * * * * * * * * * * * * //

dimensions      [0 1 -1 0 0 0 0];

internalField   nonuniform List<vector> 
17922
(
(1.67487 -1.83169 0)
(1.66161 -1.81721 4.59565e-19)
(1.64828 -1.80264 -1.79003e-18)
(1.63488 -1.788 3.95068e-24)
(1.6214 -1.77327 4.18918e-19)
(1.60783 -1.75846 8.153e-19)
(1.59418 -1.74356 2.16217e-23)
(1.58045 -1.72857 3.80689e-19)
(1.56662 -1.71348 -3.40929e-21)
(1.5527 -1.69829 -3.59938e-19)
(1.53868 -1.683 -2.77256e-18)
(1.52456 -1.6676 0)
(1.51033 -1.65208 0)
(1.49599 -1.63645 -3.11495e-19)
(1.48155 -1.6207 3.04188e-19)
(1.46698 -1.60483 -2.90534e-19)
(1.45229 -1.58883 2.83753e-19)
(1.43748 -1.57269 -1.08927e-18)
(1.42254 -1.55642 -2.61168e-19)
(1.40746 -1.54 -1.01072e-18)
(1.39224 -1.52343 -7.3174e-19)
(1.37687 -1.50671 2.34092e-19)
(1.36136 -1.48982 -1.13722e-18)
(1.34569 -1.47277 8.75412e-19)
(1.32985 -1.45555 -8.43282e-19)
(1.31385 -1.43815 0)
(1.29767 -1.42055 0)
(1.28131 -1.40276 0)
(1.26491 -1.38493 1.46892e-18)
(1.24873 -1.36735 1.80475e-19)
(1.23292 -1.35016 5.39636e-19)
(1.21746 -1.33335 1.43119e-18)
(1.20234 -1.31691 -6.22184e-19)
(1.18754 -1.30083 6.16561e-19)
(1.17305 -1.28508 -7.01065e-19)
(1.15887 -1.26966 0)
(1.14498 -1.25456 8.60014e-20)
(1.13138 -1.23977 -8.62972e-19)
(1.11805 -1.22527 -5.15685e-19)
(1.10498 -1.21106 -8.56455e-19)
(1.09218 -1.19712 8.60483e-20)
(1.07962 -1.18346 -8.44353e-20)
(1.0673 -1.17005 -5.9406e-19)
(1.05521 -1.15689 -8.41347e-20)
(1.04336 -1.14398 6.78717e-19)
(1.03172 -1.1313 -1.18406e-18)
(1.02029 -1.11885 -1.30703e-21)
(1.00906 -1.10663 -6.76985e-19)
(0.998038 -1.09461 5.90445e-19)
(0.987203 -1.08281 0)
(0.976554 -1.0712 3.37916e-19)
(0.966084 -1.05978 3.38072e-19)
(0.955788 -1.04856 -4.22269e-19)
(0.94566 -1.03751 4.23982e-19)
(0.935695 -1.02664 0)
(0.925888 -1.01595 2.55271e-19)
(0.916236 -1.00541 8.56278e-20)
(0.906733 -0.995039 3.40497e-19)
(0.897377 -0.984822 0)
(0.888163 -0.974757 -3.41713e-19)
(0.879088 -0.96484 0)
(0.870149 -0.955068 8.51151e-20)
(0.861342 -0.945436 -4.30222e-19)
(0.852666 -0.935943 -3.44382e-19)
(0.844116 -0.926584 3.45256e-19)
(0.835688 -0.917354 -3.46313e-19)
(0.827381 -0.908253 2.60964e-19)
(0.819199 -0.899285 -1.7375e-19)
(0.811143 -0.89045 -4.35671e-19)
(0.80321 -0.881746 0)
(0.795398 -0.873168 1.74754e-19)
(0.787706 -0.864716 1.75092e-19)
(0.780132 -0.856387 -1.8986e-23)
(0.772674 -0.84818 2.63086e-19)
(0.765331 -0.840093 -2.64828e-19)
(0.758102 -0.832126 1.76479e-19)
(0.750985 -0.824276 1.76838e-19)
(0.743979 -0.816543 -3.54332e-19)
(0.737082 -0.808925 8.81288e-20)
(0.730293 -0.801421 -8.95343e-20)
(0.723609 -0.79403 2.66677e-19)
(0.71703 -0.786751 -1.78536e-19)
(0.710554 -0.779581 1.24809e-21)
(0.704178 -0.772521 9.02367e-20)
(0.697901 -0.765567 4.48642e-19)
(0.69172 -0.75872 2.63919e-24)
(0.685635 -0.751976 2.71493e-19)
(0.679641 -0.745335 0)
(0.673738 -0.738794 -9.02081e-20)
(0.667923 -0.732352 9.1736e-20)
(0.662192 -0.726006 -1.8229e-19)
(0.656545 -0.719753 9.3034e-20)
(0.650978 -0.713593 1.84439e-19)
(1.67047 -1.8357 -4.84923e-19)
(1.65725 -1.82118 4.67273e-19)
(1.64395 -1.80658 -4.57037e-19)
(1.63058 -1.7919 1.76688e-18)
(1.61713 -1.77715 -1.70288e-23)
(1.6036 -1.7623 -4.13622e-19)
(1.58999 -1.74737 1.20959e-18)
(1.57629 -1.73234 0)
(1.5625 -1.71722 -1.88736e-18)
(1.54861 -1.70199 3.67551e-19)
(1.53463 -1.68666 1.41633e-18)
(1.52054 -1.67123 -1.37037e-18)
(1.50635 -1.65568 0)
(1.49206 -1.64001 0)
(1.47764 -1.62423 0)
(1.46312 -1.60832 1.4947e-18)
(1.44847 -1.59228 1.15302e-18)
(1.43369 -1.57611 8.35851e-19)
(1.41879 -1.5598 2.67852e-19)
(1.40375 -1.54334 7.78619e-19)
(1.38857 -1.52673 2.50701e-23)
(1.37324 -1.50997 0)
(1.35777 -1.49305 2.3177e-19)
(1.34214 -1.47596 -1.12627e-18)
(1.32635 -1.4587 8.67069e-19)
(1.31039 -1.44126 0)
(1.29425 -1.42362 0)
(1.27794 -1.4058 0)
(1.26157 -1.38792 -4.38499e-23)
(1.24544 -1.3703 0)
(1.22967 -1.35307 1.84151e-19)
(1.21425 -1.33623 -1.85648e-19)
(1.19917 -1.31975 1.462e-18)
(1.18441 -1.30363 5.45908e-19)
(1.16996 -1.28785 1.81787e-19)
(1.15582 -1.2724 0)
(1.14197 -1.25726 -7.13475e-19)
(1.1284 -1.24243 7.1016e-19)
(1.11511 -1.2279 7.94887e-19)
(1.10208 -1.21366 6.15777e-19)
(1.0893 -1.1997 -6.15157e-19)
(1.07678 -1.186 6.12065e-19)
(1.06449 -1.17256 0)
(1.05244 -1.15938 -8.64647e-20)
(1.04061 -1.14644 -6.94624e-19)
(1.029 -1.13373 1.47769e-18)
(1.0176 -1.12126 8.61252e-20)
(1.00641 -1.10901 5.20422e-19)
(0.995411 -1.09697 -6.06237e-19)
(0.984604 -1.08513 4.32755e-19)
(0.973981 -1.0735 1.73377e-19)
(0.963538 -1.06207 -2.59508e-19)
(0.953267 -1.05082 3.47072e-19)
(0.943164 -1.03975 0)
(0.933224 -1.02886 -8.62511e-20)
(0.923441 -1.01814 8.76509e-20)
(0.913813 -1.00758 3.48391e-19)
(0.904333 -0.99719 -3.48864e-19)
(0.894999 -0.986954 0)
(0.885807 -0.97687 -8.6822e-20)
(0.876754 -0.966935 8.82578e-20)
(0.867836 -0.957145 -8.71086e-20)
(0.85905 -0.947496 7.04526e-19)
(0.850394 -0.937986 4.40951e-19)
(0.841864 -0.92861 0)
(0.833456 -0.919364 0)
(0.825167 -0.910247 -8.80222e-20)
(0.817003 -0.901264 4.44384e-19)
(0.808964 -0.892415 7.10841e-19)
(0.801049 -0.883698 0)
(0.793255 -0.875107 0)
(0.785579 -0.866642 -2.68579e-19)
(0.778021 -0.858301 -1.80204e-19)
(0.770579 -0.850083 -9.02474e-20)
(0.763252 -0.841985 1.79516e-19)
(0.756038 -0.834007 -1.79802e-19)
(0.748936 -0.826146 -1.80076e-19)
(0.741944 -0.818403 9.08131e-20)
(0.735061 -0.810775 1.81896e-19)
(0.728285 -0.803261 1.82178e-19)
(0.721614 -0.795861 1.25274e-21)
(0.715047 -0.788572 -9.01266e-20)
(0.708583 -0.781393 7.0288e-24)
(0.702218 -0.774323 -2.72613e-19)
(0.695953 -0.76736 -9.0631e-20)
(0.689783 -0.760503 -2.73704e-19)
(0.683708 -0.75375 -9.1026e-20)
(0.677725 -0.747099 0)
(0.671831 -0.740548 0)
(0.666026 -0.734095 2.76567e-19)
(0.660305 -0.727738 -9.27054e-20)
(0.654667 -0.721475 6.18683e-22)
(0.64911 -0.715303 0)
(1.66593 -1.83981 4.85467e-19)
(1.65274 -1.82526 -4.75139e-19)
(1.63948 -1.81063 1.83845e-18)
(1.62615 -1.79592 -1.78456e-18)
(1.61274 -1.78112 -8.65826e-19)
(1.59924 -1.76624 -4.18136e-19)
(1.58567 -1.75128 1.22332e-18)
(1.572 -1.73621 1.57876e-18)
(1.55825 -1.72105 1.14914e-18)
(1.5444 -1.7058 -1.10962e-18)
(1.53045 -1.69043 0)
(1.51641 -1.67496 1.73447e-18)
(1.50225 -1.65938 -3.37728e-19)
(1.48799 -1.64367 -3.23304e-19)
(1.47362 -1.62785 3.16e-19)
(1.45913 -1.61191 1.21526e-18)
(1.44452 -1.59583 -2.34876e-18)
(1.42979 -1.57962 0)
(1.41492 -1.56327 -8.23365e-19)
(1.39993 -1.54678 -3.31782e-21)
(1.38479 -1.53013 2.0384e-18)
(1.36951 -1.51333 -4.92473e-19)
(1.35407 -1.49637 9.53309e-19)
(1.33849 -1.47925 3.24062e-21)
(1.32274 -1.46194 -8.79882e-19)
(1.30682 -1.44446 2.14377e-19)
(1.29073 -1.42679 0)
(1.27446 -1.40892 1.95796e-19)
(1.25814 -1.391 -1.73625e-18)
(1.24205 -1.37334 -1.89426e-19)
(1.22633 -1.35607 9.47887e-19)
(1.21095 -1.33919 -7.5086e-19)
(1.19591 -1.32268 -9.29921e-19)
(1.18119 -1.30652 -3.69971e-19)
(1.16678 -1.2907 -3.6758e-19)
(1.15268 -1.27521 9.15019e-19)
(1.13887 -1.26004 9.07291e-19)
(1.12534 -1.24518 -1.8231e-19)
(1.11208 -1.23062 0)
(1.09908 -1.21635 -8.95615e-19)
(1.08635 -1.20235 7.18014e-19)
(1.07386 -1.18862 1.79664e-19)
(1.0616 -1.17516 -6.22999e-19)
(1.04958 -1.16194 -7.9905e-19)
(1.03779 -1.14898 7.96248e-19)
(1.02621 -1.13624 -8.84163e-19)
(1.01484 -1.12374 -6.17469e-19)
(1.00368 -1.11146 0)
(0.99271 -1.0994 6.17917e-19)
(0.981932 -1.08754 -6.16376e-19)
(0.971338 -1.07588 -4.40045e-19)
(0.960921 -1.06442 8.88228e-20)
(0.950678 -1.05315 0)
(0.940601 -1.04206 0)
(0.930686 -1.03114 -3.53128e-19)
(0.920929 -1.0204 0)
(0.911324 -1.00983 -3.53788e-19)
(0.901869 -0.999414 0)
(0.892558 -0.989157 3.54563e-19)
(0.883389 -0.979054 0)
(0.874358 -0.9691 0)
(0.865462 -0.959292 0)
(0.856698 -0.949625 -3.56541e-19)
(0.848063 -0.940098 0)
(0.839554 -0.930706 -8.87729e-20)
(0.831166 -0.921443 1.79311e-19)
(0.822897 -0.91231 -1.79627e-19)
(0.814751 -0.903311 -2.68954e-19)
(0.806731 -0.894448 -3.59821e-19)
(0.798834 -0.885717 0)
(0.791057 -0.877113 -1.80413e-19)
(0.783399 -0.868636 1.80685e-19)
(0.775859 -0.860282 1.80919e-19)
(0.768434 -0.852052 0)
(0.761123 -0.843942 0)
(0.753925 -0.835953 9.01839e-20)
(0.746838 -0.828082 -9.15593e-20)
(0.739861 -0.820328 0)
(0.732992 -0.812689 -9.05518e-20)
(0.72623 -0.805166 -9.0662e-20)
(0.719573 -0.797755 0)
(0.71302 -0.790456 3.66122e-19)
(0.706568 -0.783267 1.83331e-19)
(0.700217 -0.776187 -1.83594e-19)
(0.693963 -0.769215 0)
(0.687805 -0.762348 9.27345e-20)
(0.681742 -0.755584 9.29236e-20)
(0.67577 -0.748923 1.84998e-19)
(0.669888 -0.742362 1.84834e-19)
(0.664093 -0.735898 -2.78959e-19)
(0.658384 -0.729531 9.32757e-20)
(0.652757 -0.723256 -1.2404e-21)
(0.647211 -0.717073 -9.45822e-20)
(1.66125 -1.84403 4.93002e-19)
(1.6481 -1.82945 -4.75501e-19)
(1.63487 -1.81478 -9.23794e-19)
(1.62158 -1.80004 1.3528e-18)
(1.6082 -1.78521 4.35361e-19)
(1.59474 -1.77029 -8.48501e-19)
(1.58121 -1.75529 -1.33198e-23)
(1.56758 -1.74019 -4.00947e-19)
(1.55386 -1.725 3.85132e-19)
(1.54005 -1.7097 1.1231e-18)
(1.52615 -1.6943 0)
(1.51214 -1.67879 0)
(1.49803 -1.66317 -1.36203e-18)
(1.48381 -1.64744 1.31807e-18)
(1.46947 -1.63158 0)
(1.45502 -1.61559 -1.53968e-18)
(1.44046 -1.59948 1.49185e-18)
(1.42576 -1.58323 -1.15205e-18)
(1.41094 -1.56684 2.22602e-18)
(1.39598 -1.55031 -2.67048e-19)
(1.38089 -1.53363 -7.76722e-19)
(1.36565 -1.51679 0)
(1.35026 -1.49979 -9.66538e-19)
(1.33472 -1.48262 -9.32338e-19)
(1.31901 -1.46527 1.12226e-18)
(1.30314 -1.44775 -4.334e-19)
(1.2871 -1.43003 2.10482e-19)
(1.27087 -1.41212 0)
(1.2546 -1.39416 0)
(1.23856 -1.37646 0)
(1.22288 -1.35915 -7.71566e-19)
(1.20754 -1.34223 0)
(1.19255 -1.32568 -7.59202e-19)
(1.17787 -1.30948 -9.40752e-19)
(1.1635 -1.29363 3.74455e-19)
(1.14944 -1.2781 -9.32066e-19)
(1.13567 -1.2629 0)
(1.12218 -1.24801 0)
(1.10896 -1.23341 0)
(1.096 -1.2191 1.81202e-19)
(1.0833 -1.20507 5.44551e-19)
(1.07084 -1.19132 -1.80008e-19)
(1.05863 -1.17782 9.06139e-19)
(1.04664 -1.16458 7.22084e-19)
(1.03488 -1.15158 7.20604e-19)
(1.02333 -1.13882 7.19406e-19)
(1.012 -1.12629 4.31536e-23)
(1.00086 -1.11398 0)
(0.989924 -1.10189 -8.89972e-20)
(0.979175 -1.09001 8.07029e-19)
(0.968609 -1.07832 -2.69373e-19)
(0.958221 -1.06684 -4.48466e-19)
(0.948004 -1.05554 0)
(0.937954 -1.04443 -8.8918e-20)
(0.928066 -1.03349 4.48874e-19)
(0.918334 -1.02273 8.90167e-20)
(0.908755 -1.01213 1.79501e-19)
(0.899324 -1.0017 5.38982e-19)
(0.890038 -0.991419 -5.39519e-19)
(0.880892 -0.981296 4.50703e-19)
(0.871884 -0.971322 -8.94417e-20)
(0.863011 -0.961495 9.08767e-20)
(0.854269 -0.95181 3.61265e-19)
(0.845656 -0.942265 -8.97693e-20)
(0.837168 -0.932855 4.53516e-19)
(0.828801 -0.923575 -3.63134e-19)
(0.820552 -0.914425 0)
(0.812425 -0.90541 3.63856e-19)
(0.804424 -0.896531 9.03449e-20)
(0.796546 -0.887786 -2.73957e-19)
(0.788788 -0.879169 2.7428e-19)
(0.781148 -0.870678 9.19618e-20)
(0.773625 -0.862311 -4.56402e-19)
(0.766217 -0.854068 9.21543e-20)
(0.758923 -0.845947 0)
(0.751741 -0.837945 1.83374e-19)
(0.744671 -0.830063 3.67124e-19)
(0.737709 -0.822297 0)
(0.730856 -0.814648 -2.75244e-19)
(0.724109 -0.807113 1.84097e-19)
(0.717466 -0.799692 -2.77057e-19)
(0.710927 -0.792382 -2.76097e-19)
(0.704489 -0.785183 1.26742e-21)
(0.698151 -0.778092 4.62941e-19)
(0.69191 -0.771109 0)
(0.685765 -0.764232 -9.3368e-20)
(0.679714 -0.757458 9.22542e-20)
(0.673755 -0.750785 -2.79837e-19)
(0.667885 -0.744213 -2.79828e-19)
(0.662102 -0.737738 9.35116e-20)
(0.656405 -0.731359 -9.37716e-20)
(0.65079 -0.725073 9.47039e-20)
(0.645256 -0.718878 0)
(1.65642 -1.84837 1.48616e-18)
(1.6433 -1.83375 -4.79215e-19)
(1.63012 -1.81905 4.69391e-19)
(1.61686 -1.80427 -9.08535e-19)
(1.60352 -1.7894 0)
(1.5901 -1.77445 0)
(1.5766 -1.75941 8.31494e-19)
(1.56301 -1.74428 -1.61347e-18)
(1.54934 -1.72905 -3.894e-19)
(1.53557 -1.71371 3.81068e-19)
(1.5217 -1.69828 1.4703e-18)
(1.50773 -1.68273 1.77879e-18)
(1.49366 -1.66707 1.03292e-18)
(1.47948 -1.6513 -2.67123e-18)
(1.46519 -1.6354 -1.29259e-18)
(1.45078 -1.61938 -3.10891e-19)
(1.43626 -1.60322 3.04103e-19)
(1.42161 -1.58693 8.78737e-19)
(1.40683 -1.57051 -1.6952e-18)
(1.39191 -1.55393 -2.74687e-19)
(1.37686 -1.53721 -2.61952e-19)
(1.36167 -1.52033 2.56269e-19)
(1.34632 -1.50329 1.22698e-18)
(1.33083 -1.48608 1.89362e-18)
(1.31517 -1.46869 -4.57495e-19)
(1.29934 -1.45112 4.41213e-19)
(1.28334 -1.43337 -3.30612e-21)
(1.26717 -1.41541 -2.06552e-19)
(1.25094 -1.39741 -1.98509e-19)
(1.23495 -1.37966 9.9306e-19)
(1.21932 -1.36231 0)
(1.20403 -1.34535 -5.86067e-19)
(1.18907 -1.32876 3.86647e-19)
(1.17444 -1.31252 9.61171e-19)
(1.16012 -1.29663 0)
(1.1461 -1.28107 -9.45927e-19)
(1.13236 -1.26583 1.89942e-19)
(1.11891 -1.2509 0)
(1.10573 -1.23627 7.4651e-19)
(1.09281 -1.22193 0)
(1.08015 -1.20787 -5.57019e-19)
(1.06773 -1.19408 5.52257e-19)
(1.05555 -1.18056 -1.82601e-19)
(1.0436 -1.16728 7.37173e-19)
(1.03187 -1.15425 -5.48146e-19)
(1.02036 -1.14146 -9.12837e-19)
(1.00906 -1.12891 7.33113e-19)
(0.997953 -1.11657 1.83745e-19)
(0.987046 -1.10445 -1.45729e-18)
(0.976327 -1.09254 -3.64065e-19)
(0.965791 -1.08083 2.2352e-23)
(0.955432 -1.06932 4.54024e-19)
(0.945244 -1.058 -9.16214e-20)
(0.935221 -1.04686 0)
(0.92536 -1.0359 0)
(0.915654 -1.02511 -9.03085e-20)
(0.906101 -1.01449 -2.72444e-19)
(0.896695 -1.00404 -3.64383e-19)
(0.887434 -0.993738 0)
(0.878313 -0.983594 -2.71507e-23)
(0.869329 -0.9736 0)
(0.860479 -0.963753 0)
(0.85176 -0.95405 -7.31743e-19)
(0.84317 -0.944486 -3.66213e-19)
(0.834704 -0.935058 -3.66749e-19)
(0.826357 -0.92576 9.12403e-20)
(0.818129 -0.916592 -9.26638e-20)
(0.810022 -0.90756 2.76664e-19)
(0.80204 -0.898666 -2.75331e-19)
(0.794181 -0.889905 1.84163e-19)
(0.786442 -0.881273 -3.68626e-19)
(0.778821 -0.872769 9.28826e-20)
(0.771316 -0.864389 2.77576e-19)
(0.763926 -0.856133 0)
(0.75665 -0.847998 0)
(0.749486 -0.839984 -1.85015e-19)
(0.742432 -0.83209 -3.70262e-19)
(0.735487 -0.824312 0)
(0.728649 -0.816651 1.85369e-19)
(0.721918 -0.809105 9.21081e-20)
(0.71529 -0.801672 1.84363e-19)
(0.708766 -0.794351 -2.79305e-19)
(0.702342 -0.787141 -1.85934e-19)
(0.696018 -0.780039 -1.86128e-19)
(0.689791 -0.773045 -1.86316e-19)
(0.68366 -0.766156 0)
(0.677623 -0.75937 -3.73657e-19)
(0.671677 -0.752687 1.87151e-19)
(0.66582 -0.746103 0)
(0.660051 -0.739616 9.39712e-20)
(0.654367 -0.733225 0)
(0.648766 -0.726926 -9.44969e-20)
(0.643245 -0.720719 -9.48258e-20)
(1.65143 -1.85282 -1.4924e-18)
(1.63835 -1.83816 1.93801e-18)
(1.62521 -1.82342 -3.70099e-21)
(1.61198 -1.80861 4.56127e-19)
(1.59869 -1.79371 0)
(1.58531 -1.77872 -8.64502e-19)
(1.57185 -1.76364 -8.3945e-19)
(1.5583 -1.74847 -2.03517e-18)
(1.54467 -1.7332 3.97122e-19)
(1.53094 -1.71783 -1.53368e-18)
(1.51711 -1.70236 -1.85705e-18)
(1.50319 -1.68677 -1.07923e-18)
(1.48916 -1.67107 0)
(1.47502 -1.65526 -3.3634e-19)
(1.46077 -1.63932 1.96448e-18)
(1.44641 -1.62326 -3.18665e-19)
(1.43193 -1.60707 1.22643e-18)
(1.41732 -1.59074 0)
(1.40258 -1.57427 2.93812e-23)
(1.38772 -1.55765 -1.10858e-18)
(1.37271 -1.54089 1.07115e-18)
(1.35756 -1.52397 -1.03466e-18)
(1.34226 -1.50688 9.99098e-19)
(1.32681 -1.48963 -9.64486e-19)
(1.3112 -1.4722 0)
(1.29542 -1.45459 0)
(1.27947 -1.43679 6.5122e-19)
(1.26334 -1.41879 2.10327e-19)
(1.24717 -1.40074 0)
(1.23123 -1.38295 -8.07745e-19)
(1.21564 -1.36556 0)
(1.2004 -1.34856 7.93516e-19)
(1.18549 -1.33192 -1.9522e-19)
(1.1709 -1.31565 -7.78316e-19)
(1.15662 -1.29972 3.881e-19)
(1.14265 -1.28412 5.77018e-19)
(1.12896 -1.26885 0)
(1.11554 -1.25388 9.5226e-19)
(1.1024 -1.23921 -7.62467e-19)
(1.08953 -1.22484 -2.98861e-21)
(1.0769 -1.21074 7.5032e-19)
(1.06452 -1.19692 -7.5369e-19)
(1.05238 -1.18336 -3.74217e-19)
(1.04046 -1.17006 -5.58384e-19)
(1.02877 -1.157 1.8472e-19)
(1.01729 -1.14418 -3.71586e-19)
(1.00602 -1.13159 -5.54967e-19)
(0.994951 -1.11923 -1.83777e-19)
(0.984075 -1.10708 1.66631e-18)
(0.973388 -1.09514 0)
(0.962882 -1.08341 3.69373e-19)
(0.952552 -1.07187 0)
(0.942393 -1.06052 3.69041e-19)
(0.932399 -1.04936 0)
(0.922565 -1.03837 0)
(0.912887 -1.02756 -5.52161e-19)
(0.903361 -1.01692 5.55067e-19)
(0.893981 -1.00644 9.16254e-20)
(0.884745 -0.996117 -1.375e-21)
(0.875649 -0.985952 -4.62712e-19)
(0.86669 -0.975937 -3.69808e-19)
(0.857864 -0.96607 0)
(0.849169 -0.956347 2.79559e-23)
(0.840602 -0.946764 3.70562e-19)
(0.832159 -0.937317 9.20724e-20)
(0.823834 -0.928 2.78121e-19)
(0.815626 -0.918814 0)
(0.807539 -0.909764 -2.79695e-19)
(0.799578 -0.900853 2.78207e-19)
(0.791739 -0.892077 -9.23307e-20)
(0.784019 -0.88343 9.37304e-20)
(0.776418 -0.874911 -9.37697e-20)
(0.768932 -0.866517 -9.38035e-20)
(0.761561 -0.858247 0)
(0.754303 -0.850099 0)
(0.747156 -0.842072 9.25994e-20)
(0.74012 -0.834164 1.85279e-19)
(0.733192 -0.826375 -1.30404e-21)
(0.726371 -0.818701 -1.88021e-19)
(0.719656 -0.811143 -1.29573e-21)
(0.713045 -0.803698 -1.86863e-19)
(0.706536 -0.796365 4.68028e-19)
(0.700128 -0.789143 1.87067e-19)
(0.693819 -0.782029 0)
(0.687607 -0.775023 1.87346e-19)
(0.681491 -0.768122 0)
(0.675468 -0.761324 1.37245e-23)
(0.669537 -0.754629 0)
(0.663695 -0.748032 9.35366e-20)
(0.65794 -0.741534 -1.25995e-21)
(0.65227 -0.73513 -9.45878e-20)
(0.646684 -0.728818 9.54844e-20)
(0.641178 -0.722598 1.89697e-19)
(1.64628 -1.85739 1.00216e-18)
(1.63324 -1.84269 -1.46112e-18)
(1.62014 -1.82792 4.76289e-19)
(1.60696 -1.81307 0)
(1.5937 -1.79813 0)
(1.58037 -1.7831 8.71818e-19)
(1.56695 -1.76799 0)
(1.55344 -1.75278 1.64494e-18)
(1.53985 -1.73747 1.5968e-18)
(1.52616 -1.72206 3.48466e-18)
(1.51238 -1.70654 -3.77611e-19)
(1.49849 -1.69092 0)
(1.48451 -1.67518 0)
(1.47042 -1.65933 1.36911e-18)
(1.45621 -1.64335 1.32616e-18)
(1.44189 -1.62725 3.19238e-19)
(1.42745 -1.61101 -1.55554e-18)
(1.41289 -1.59464 0)
(1.3982 -1.57813 2.82766e-23)
(1.38338 -1.56147 2.80026e-23)
(1.36842 -1.54467 -1.08745e-18)
(1.35332 -1.5277 2.60979e-19)
(1.33807 -1.51057 -1.27061e-18)
(1.32267 -1.49328 2.43333e-19)
(1.30711 -1.4758 -3.45353e-21)
(1.29138 -1.45815 -2.30056e-19)
(1.27548 -1.4403 -8.8125e-19)
(1.2594 -1.42226 -1.699e-18)
(1.24328 -1.40416 -1.65991e-18)
(1.22738 -1.38633 0)
(1.21185 -1.36889 2.01997e-19)
(1.19665 -1.35185 -2.03524e-19)
(1.18179 -1.33517 0)
(1.16725 -1.31886 7.95165e-19)
(1.15302 -1.30289 -5.93839e-19)
(1.13908 -1.28725 -3.92347e-19)
(1.12544 -1.27194 3.90066e-19)
(1.11207 -1.25693 -9.71533e-19)
(1.09897 -1.24223 -7.72194e-19)
(1.08613 -1.22782 0)
(1.07355 -1.21369 -1.72139e-18)
(1.06121 -1.19984 1.92243e-19)
(1.0491 -1.18624 -1.88641e-19)
(1.03722 -1.17291 1.91067e-19)
(1.02557 -1.15982 -5.68777e-19)
(1.01412 -1.14697 -1.90153e-19)
(1.00289 -1.13435 1.31975e-18)
(0.991851 -1.12195 1.89467e-19)
(0.981008 -1.10978 -7.51045e-19)
(0.970353 -1.09781 0)
(0.959878 -1.08605 3.74717e-19)
(0.949579 -1.07448 -3.7444e-19)
(0.93945 -1.06311 -3.74254e-19)
(0.929485 -1.05192 -1.85632e-19)
(0.91968 -1.04091 1.88411e-19)
(0.91003 -1.03007 3.7397e-19)
(0.900531 -1.0194 -1.88392e-19)
(0.891178 -1.0089 -5.62368e-19)
(0.881968 -0.998558 5.59676e-19)
(0.872898 -0.988371 1.85672e-19)
(0.863964 -0.978335 3.74268e-19)
(0.855163 -0.968446 1.85809e-19)
(0.846493 -0.958702 1.85896e-19)
(0.83795 -0.949099 -1.85965e-19)
(0.82953 -0.939633 -1.86158e-19)
(0.821228 -0.930297 0)
(0.813041 -0.921091 -9.33198e-20)
(0.804976 -0.912023 -2.81163e-19)
(0.797035 -0.903094 3.754e-19)
(0.789216 -0.894301 -9.319e-20)
(0.781517 -0.885639 1.89125e-19)
(0.773936 -0.877105 9.45748e-20)
(0.76647 -0.868696 -9.32522e-20)
(0.759118 -0.860412 1.33097e-21)
(0.751879 -0.85225 3.75754e-19)
(0.744751 -0.844209 -9.46073e-20)
(0.737733 -0.836288 0)
(0.730823 -0.828485 -9.32987e-20)
(0.72402 -0.820799 -9.32996e-20)
(0.717322 -0.813227 0)
(0.710728 -0.80577 1.87951e-19)
(0.704235 -0.798424 -1.88001e-19)
(0.697844 -0.791189 -9.33772e-20)
(0.691551 -0.784063 9.4702e-20)
(0.685355 -0.777045 1.88213e-19)
(0.679255 -0.770131 0)
(0.673248 -0.763321 1.88536e-19)
(0.667332 -0.756613 9.50048e-20)
(0.661506 -0.750004 6.35997e-22)
(0.655767 -0.743492 -6.29562e-22)
(0.650113 -0.737075 -2.84668e-19)
(0.644543 -0.730751 9.63962e-20)
(0.639053 -0.724517 9.60534e-20)
(1.64097 -1.86208 -2.01507e-18)
(1.62797 -1.84734 0)
(1.61491 -1.83253 0)
(1.60177 -1.81764 9.25328e-19)
(1.58856 -1.80266 -9.07394e-19)
(1.57526 -1.7876 -4.41167e-19)
(1.56189 -1.77244 -8.53944e-19)
(1.54842 -1.75719 8.29669e-19)
(1.53487 -1.74185 -2.41739e-18)
(1.52123 -1.7264 -1.56093e-18)
(1.50749 -1.71084 7.5923e-19)
(1.49365 -1.69518 -3.70122e-19)
(1.47971 -1.6794 -1.42862e-18)
(1.46566 -1.6635 1.72936e-18)
(1.4515 -1.64748 -1.67952e-18)
(1.43723 -1.63134 1.6234e-18)
(1.42284 -1.61506 -3.16579e-19)
(1.40833 -1.59865 1.21883e-18)
(1.39368 -1.58209 1.1795e-18)
(1.37891 -1.56539 2.68279e-23)
(1.364 -1.54854 0)
(1.34895 -1.53153 8.01786e-19)
(1.33375 -1.51436 -7.71333e-19)
(1.31839 -1.49702 0)
(1.30288 -1.4795 0)
(1.2872 -1.4618 2.30398e-19)
(1.27136 -1.44391 -2.2581e-19)
(1.25533 -1.42581 2.14391e-19)
(1.23926 -1.40767 1.26683e-18)
(1.22342 -1.38979 2.10846e-19)
(1.20793 -1.37232 0)
(1.19279 -1.35523 0)
(1.17798 -1.33851 -6.12765e-19)
(1.16348 -1.32215 -2.038e-19)
(1.1493 -1.30614 1.00221e-18)
(1.13541 -1.29046 -3.98926e-19)
(1.12181 -1.27511 -7.89927e-19)
(1.10848 -1.26007 1.18313e-18)
(1.09543 -1.24533 1.37186e-18)
(1.08263 -1.23088 0)
(1.07009 -1.21672 7.77987e-19)
(1.05778 -1.20283 -7.75022e-19)
(1.04572 -1.1892 -1.91588e-19)
(1.03388 -1.17583 1.94016e-19)
(1.02226 -1.16271 7.67977e-19)
(1.01085 -1.14983 0)
(0.999652 -1.13718 -9.54143e-19)
(0.98865 -1.12475 1.14458e-18)
(0.977842 -1.11254 -1.91924e-19)
(0.967219 -1.10055 1.91647e-19)
(0.956777 -1.08876 -7.57004e-19)
(0.946509 -1.07716 5.70832e-19)
(0.936411 -1.06576 1.88201e-19)
(0.926476 -1.05454 -1.90953e-19)
(0.9167 -1.04351 1.87996e-19)
(0.907079 -1.03265 -1.90778e-19)
(0.897608 -1.02196 0)
(0.888283 -1.01143 3.78554e-19)
(0.879101 -1.00106 -3.78517e-19)
(0.870057 -0.990851 -2.53291e-23)
(0.861149 -0.980793 -3.78483e-19)
(0.852374 -0.970883 0)
(0.843729 -0.961118 -1.87879e-19)
(0.835211 -0.951494 3.78598e-19)
(0.826815 -0.942007 3.78969e-19)
(0.818536 -0.93265 3.79523e-19)
(0.810372 -0.923425 -1.91236e-19)
(0.802328 -0.914337 3.79419e-19)
(0.794408 -0.90539 -5.69617e-19)
(0.786611 -0.89658 -1.36553e-21)
(0.778933 -0.887902 0)
(0.771372 -0.879352 1.89298e-19)
(0.763926 -0.870928 -1.89267e-19)
(0.756595 -0.862628 1.8923e-19)
(0.749376 -0.854452 -3.78389e-19)
(0.742267 -0.846397 -2.83047e-19)
(0.735268 -0.838462 9.52105e-20)
(0.728377 -0.830645 1.89038e-19)
(0.721593 -0.822944 1.89004e-19)
(0.714913 -0.81536 0)
(0.708337 -0.807889 -9.51199e-20)
(0.701862 -0.80053 -1.88897e-19)
(0.695488 -0.793282 9.50951e-20)
(0.689213 -0.786143 0)
(0.683034 -0.779111 -3.77929e-19)
(0.676951 -0.772184 1.89042e-19)
(0.670961 -0.765361 9.39479e-20)
(0.665062 -0.75864 -1.90629e-19)
(0.659253 -0.752017 -6.31864e-22)
(0.653531 -0.745492 1.89876e-19)
(0.647895 -0.739062 0)
(0.642341 -0.732724 -9.53457e-20)
(0.636869 -0.726476 9.49894e-20)
(1.63548 -1.86689 1.01226e-18)
(1.62253 -1.85212 9.82328e-19)
(1.60951 -1.83727 -9.64056e-19)
(1.59641 -1.82233 9.31035e-19)
(1.58324 -1.80732 -9.13438e-19)
(1.56999 -1.79221 1.76603e-18)
(1.55666 -1.77702 -3.75995e-21)
(1.54324 -1.76173 1.67282e-18)
(1.52974 -1.74634 8.08986e-19)
(1.51614 -1.73085 -7.26695e-24)
(1.50245 -1.71525 7.29607e-24)
(1.48865 -1.69955 1.11037e-18)
(1.47476 -1.68372 1.08091e-18)
(1.46076 -1.66779 -2.45219e-18)
(1.44665 -1.65172 -1.69874e-18)
(1.43242 -1.63554 -1.3157e-18)
(1.41808 -1.61922 0)
(1.40361 -1.60276 -1.54128e-18)
(1.38902 -1.58616 3.64168e-21)
(1.37429 -1.56942 2.60425e-18)
(1.35943 -1.55252 0)
(1.34443 -1.53547 -2.68747e-19)
(1.32928 -1.51825 2.63387e-19)
(1.31398 -1.50086 -2.51009e-19)
(1.29852 -1.4833 3.56566e-21)
(1.2829 -1.46555 2.37686e-19)
(1.2671 -1.44761 -9.11144e-19)
(1.25113 -1.42947 1.75795e-18)
(1.23511 -1.41128 -2.12994e-19)
(1.21933 -1.39335 2.14437e-19)
(1.20389 -1.37583 1.05176e-18)
(1.1888 -1.35869 -1.04584e-18)
(1.17404 -1.34193 1.65689e-18)
(1.15959 -1.32553 -8.22075e-19)
(1.14546 -1.30948 -1.01864e-18)
(1.13161 -1.29376 8.14071e-19)
(1.11806 -1.27837 1.20886e-18)
(1.10478 -1.26329 -1.00331e-18)
(1.09177 -1.24851 -7.97231e-19)
(1.07902 -1.23403 0)
(1.06651 -1.21982 0)
(1.05425 -1.2059 7.86895e-19)
(1.04223 -1.19224 -5.89564e-19)
(1.03043 -1.17883 -1.96905e-19)
(1.01884 -1.16568 -7.79222e-19)
(1.00748 -1.15276 -5.84392e-19)
(0.996312 -1.14008 -3.87693e-19)
(0.985346 -1.12762 -5.78864e-19)
(0.974572 -1.11538 0)
(0.963983 -1.10336 -1.94271e-19)
(0.953574 -1.09154 7.6711e-19)
(0.943339 -1.07992 -3.84558e-19)
(0.933272 -1.06848 1.93537e-19)
(0.923368 -1.05724 0)
(0.913623 -1.04618 -1.93199e-19)
(0.904032 -1.03529 -5.76352e-19)
(0.89459 -1.02457 0)
(0.885293 -1.01402 -5.72915e-19)
(0.876139 -1.00363 5.75553e-19)
(0.867123 -0.993395 -3.82651e-19)
(0.858242 -0.983314 3.82545e-19)
(0.849494 -0.973381 -1.89809e-19)
(0.840875 -0.963594 1.9258e-19)
(0.832383 -0.953949 -3.82291e-19)
(0.824012 -0.94444 -7.65302e-19)
(0.815756 -0.935063 1.92944e-19)
(0.807614 -0.925817 1.93e-19)
(0.799592 -0.916708 1.90012e-19)
(0.791694 -0.907742 1.89672e-19)
(0.783919 -0.898914 -1.33859e-23)
(0.776263 -0.890219 -1.9075e-19)
(0.768724 -0.881653 -1.90679e-19)
(0.7613 -0.873213 1.89237e-19)
(0.753989 -0.864898 -5.71447e-19)
(0.746791 -0.856706 7.61501e-19)
(0.739703 -0.848635 -3.80518e-19)
(0.732724 -0.840685 2.66646e-21)
(0.725853 -0.832854 -2.01899e-24)
(0.719088 -0.825139 -1.91257e-19)
(0.712427 -0.81754 9.4258e-20)
(0.70587 -0.810055 9.42091e-20)
(0.699414 -0.802683 9.41788e-20)
(0.693059 -0.795421 1.88299e-19)
(0.686802 -0.788268 -9.54337e-20)
(0.680642 -0.781223 1.89576e-19)
(0.674577 -0.774282 -3.79207e-19)
(0.668605 -0.767446 0)
(0.662725 -0.76071 1.89802e-19)
(0.656934 -0.754074 9.49944e-20)
(0.65123 -0.747535 -1.89614e-19)
(0.645612 -0.741091 9.52883e-20)
(0.640077 -0.734739 -9.54897e-20)
(0.634624 -0.728477 6.32205e-22)
(1.62982 -1.87183 -2.03641e-18)
(1.61691 -1.85702 0)
(1.60394 -1.84212 0)
(1.59089 -1.82715 -9.39944e-19)
(1.57776 -1.81209 -9.15124e-19)
(1.56456 -1.79695 0)
(1.55127 -1.78171 -8.66493e-19)
(1.5379 -1.76638 -1.68536e-18)
(1.52444 -1.75095 -8.15435e-19)
(1.51089 -1.73542 -3.17689e-18)
(1.49724 -1.71978 2.32386e-18)
(1.4835 -1.70403 -3.00396e-18)
(1.46965 -1.68816 2.18321e-18)
(1.4557 -1.67218 2.11838e-18)
(1.44163 -1.65608 2.5457e-23)
(1.42746 -1.63985 0)
(1.41316 -1.62348 0)
(1.39875 -1.60698 0)
(1.3842 -1.59034 0)
(1.36953 -1.57355 -8.80744e-19)
(1.35472 -1.55661 -2.85384e-19)
(1.33977 -1.5395 0)
(1.32467 -1.52224 1.06142e-18)
(1.30942 -1.5048 2.54748e-19)
(1.29402 -1.48719 -2.49796e-19)
(1.27845 -1.46939 9.58466e-19)
(1.26271 -1.4514 9.2586e-19)
(1.24679 -1.43322 -1.78689e-18)
(1.23083 -1.41498 2.16537e-19)
(1.2151 -1.397 6.46928e-19)
(1.19972 -1.37943 -2.4377e-23)
(1.18468 -1.36225 6.38458e-19)
(1.16997 -1.34544 4.20906e-19)
(1.15558 -1.329 6.24805e-19)
(1.14149 -1.3129 8.2924e-19)
(1.1277 -1.29714 -1.0279e-18)
(1.11419 -1.28171 2.06251e-19)
(1.10096 -1.26659 0)
(1.08799 -1.25177 0)
(1.07528 -1.23725 0)
(1.06282 -1.22301 0)
(1.05061 -1.20905 9.965e-19)
(1.03862 -1.19535 5.95048e-19)
(1.02686 -1.18191 9.89332e-19)
(1.01532 -1.16872 -1.99065e-19)
(1.00399 -1.15577 7.88026e-19)
(0.992863 -1.14306 0)
(0.981934 -1.13057 -1.94536e-19)
(0.971195 -1.1183 1.97149e-19)
(0.960642 -1.10624 1.93788e-19)
(0.950267 -1.09439 -5.86394e-19)
(0.940065 -1.08274 -3.89351e-19)
(0.930031 -1.07128 0)
(0.920159 -1.06001 -1.92735e-19)
(0.910445 -1.04892 5.83495e-19)
(0.900884 -1.038 1.953e-19)
(0.891472 -1.02726 5.82461e-19)
(0.882206 -1.01668 2.30063e-23)
(0.87308 -1.00626 -9.65581e-19)
(0.864093 -0.996004 5.81281e-19)
(0.85524 -0.985898 1.91746e-19)
(0.846519 -0.975942 -5.80622e-19)
(0.837927 -0.966132 1.91548e-19)
(0.829462 -0.956465 3.82967e-19)
(0.821116 -0.946934 1.44058e-23)
(0.812884 -0.937534 -1.48412e-23)
(0.804766 -0.928267 -1.11082e-23)
(0.796767 -0.919137 2.78892e-21)
(0.788891 -0.91015 3.8645e-19)
(0.781139 -0.901304 -1.92221e-19)
(0.773506 -0.892592 1.92062e-19)
(0.765989 -0.884008 0)
(0.758588 -0.875551 5.73891e-19)
(0.751299 -0.86722 -2.71492e-21)
(0.744122 -0.859012 -5.75615e-19)
(0.737056 -0.850926 -1.8989e-19)
(0.730098 -0.842961 1.92415e-19)
(0.723247 -0.835114 1.90911e-19)
(0.716503 -0.827384 1.89407e-19)
(0.709862 -0.819771 -1.93211e-19)
(0.703325 -0.812271 -3.82169e-19)
(0.69689 -0.804884 -1.90284e-19)
(0.690554 -0.797608 -1.22553e-23)
(0.684317 -0.79044 0)
(0.678176 -0.783381 -1.8874e-19)
(0.672131 -0.776426 3.81327e-19)
(0.666178 -0.769575 0)
(0.660318 -0.762826 -1.90132e-19)
(0.654546 -0.756176 -1.90268e-19)
(0.648863 -0.749622 -9.52362e-20)
(0.643264 -0.743164 1.90131e-19)
(0.63775 -0.736797 -1.91765e-19)
(0.632317 -0.730521 3.50148e-24)
(1.62398 -1.8769 3.8143e-21)
(1.61112 -1.86204 -9.86722e-19)
(1.59818 -1.84711 1.93853e-18)
(1.58518 -1.83209 9.40684e-19)
(1.5721 -1.81699 9.20014e-19)
(1.55894 -1.80181 -8.92019e-19)
(1.5457 -1.78653 -8.64349e-19)
(1.53238 -1.77115 8.52227e-19)
(1.51897 -1.75568 -1.65041e-18)
(1.50546 -1.7401 3.20932e-18)
(1.49187 -1.72442 2.33556e-18)
(1.47817 -1.70863 7.53827e-19)
(1.46437 -1.69272 7.31952e-19)
(1.45047 -1.67669 -2.14663e-18)
(1.43646 -1.66054 2.77269e-18)
(1.42233 -1.64427 -6.68672e-19)
(1.40809 -1.62786 6.55822e-19)
(1.39372 -1.61131 1.26418e-18)
(1.37923 -1.59462 -6.0877e-19)
(1.36461 -1.57778 5.97028e-19)
(1.34985 -1.56079 -1.149e-18)
(1.33496 -1.54365 0)
(1.31991 -1.52633 8.08986e-19)
(1.30472 -1.50885 2.62092e-19)
(1.28937 -1.49119 -1.00662e-18)
(1.27386 -1.47334 -9.73077e-19)
(1.25818 -1.4553 9.40313e-19)
(1.24232 -1.43706 2.04066e-18)
(1.22642 -1.41877 -2.23651e-19)
(1.21074 -1.40075 2.17899e-19)
(1.19542 -1.38313 -1.08967e-18)
(1.18043 -1.3659 0)
(1.16578 -1.34905 -8.55093e-19)
(1.15143 -1.33256 1.05864e-18)
(1.1374 -1.31642 6.29801e-19)
(1.12365 -1.30061 0)
(1.1102 -1.28514 -2.06049e-19)
(1.09701 -1.26998 4.12939e-19)
(1.08409 -1.25512 -2.06959e-19)
(1.07143 -1.24056 6.14457e-19)