/*--------------------------------*- C++ -*----------------------------------*\
  =========                 |
  \\      /  F ield         | OpenFOAM: The Open Source CFD Toolbox
   \\    /   O peration     | Website:  https://openfoam.org
    \\  /    A nd           | Version:  10
     \\/     M anipulation  |
\*---------------------------------------------------------------------------*/
FoamFile
{
    format      ascii;
    class       volScalarField;
    location    "1600";
    object      k;
}
// * * * * * * * * * * * * * * * * * * * * * * * * * * * * * * * * * * * * * //

dimensions      [0 2 -2 0 0 0 0];

internalField   nonuniform List<scalar> 
420
(
2.22045e-16
2.22045e-16
2.22045e-16
2.22045e-16
2.22045e-16
2.22045e-16
2.22045e-16
2.22045e-16
2.22045e-16
2.22045e-16
2.22045e-16
2.22045e-16
2.22045e-16
2.22045e-16
2.22045e-16
2.22045e-16
2.22045e-16
2.22045e-16
2.22045e-16
2.22045e-16
2.22045e-16
2.22045e-16
2.22045e-16
2.22045e-16
2.22045e-16
2.22045e-16
2.22045e-16
2.22045e-16
2.22045e-16
2.22045e-16
2.22045e-16
2.22045e-16
2.22045e-16
2.22045e-16
2.22045e-16
2.22045e-16
2.22045e-16
2.22045e-16
2.22045e-16
2.22045e-16
2.22045e-16
2.22045e-16
2.22045e-16
2.22045e-16
2.22045e-16
2.22045e-16
2.22045e-16
2.22045e-16
2.22045e-16
2.22045e-16
2.22045e-16
2.22045e-16
2.22045e-16
2.22045e-16
2.22045e-16
2.22045e-16
2.22045e-16
2.22045e-16
2.22045e-16
2.22045e-16
2.22045e-16
2.22045e-16
2.22045e-16
2.22045e-16
2.22045e-16
2.22045e-16
2.22045e-16
2.22045e-16
2.22045e-16
2.22045e-16
2.22045e-16
2.22045e-16
2.22045e-16
2.22045e-16
2.22045e-16
2.22045e-16
2.22045e-16
2.22045e-16
2.22045e-16
2.22045e-16
2.22045e-16
2.22045e-16
2.22045e-16
2.22045e-16
2.22045e-16
2.22045e-16
2.22045e-16
2.22045e-16
2.22045e-16
2.22045e-16
2.22045e-16
2.22045e-16
2.22045e-16
2.22045e-16
2.22045e-16
2.22045e-16
2.22045e-16
2.22045e-16
2.22045e-16
2.22045e-16
2.22045e-16
2.22045e-16
2.22045e-16
2.5322e-16
2.95657e-16
2.90905e-16
2.2589e-16
2.22815e-16
2.80771e-16
2.92669e-16
2.22045e-16
2.22045e-16
2.22045e-16
2.49622e-16
2.92571e-16
2.88036e-16
2.22692e-16
2.22045e-16
2.71972e-16
2.88097e-16
2.22045e-16
2.22045e-16
2.22045e-16
2.47113e-16
2.90309e-16
2.861e-16
2.22045e-16
2.22045e-16
2.6404e-16
2.85154e-16
2.22045e-16
2.22045e-16
2.22045e-16
2.46186e-16
2.88735e-16
2.83877e-16
2.22045e-16
2.22045e-16
2.54996e-16
2.81374e-16
2.22045e-16
2.22045e-16
2.22045e-16
2.47245e-16
2.88309e-16
2.82056e-16
2.22045e-16
2.22045e-16
2.46333e-16
2.78402e-16
2.22045e-16
2.22045e-16
2.22045e-16
2.50359e-16
2.89264e-16
2.81009e-16
2.22045e-16
2.22045e-16
2.3912e-16
2.74843e-16
2.22045e-16
2.22045e-16
2.22045e-16
2.55452e-16
2.91241e-16
2.80519e-16
2.22045e-16
2.22045e-16
2.33002e-16
2.71415e-16
2.22045e-16
2.22045e-16
2.22045e-16
2.62212e-16
2.93637e-16
2.80069e-16
2.22045e-16
2.22045e-16
2.27939e-16
2.68678e-16
2.22045e-16
2.22045e-16
2.22045e-16
2.69563e-16
2.95133e-16
2.78654e-16
2.22045e-16
2.22045e-16
2.24232e-16
2.66837e-16
2.22045e-16
2.22045e-16
2.22045e-16
2.74884e-16
2.93543e-16
2.74562e-16
2.22045e-16
2.22045e-16
2.2245e-16
2.65404e-16
2.22045e-16
2.22045e-16
2.28317e-16
2.79636e-16
2.96289e-16
2.76521e-16
2.22045e-16
2.22045e-16
2.22045e-16
2.62359e-16
2.22045e-16
2.22045e-16
2.40403e-16
2.85177e-16
3.01102e-16
2.79984e-16
2.22045e-16
2.22045e-16
2.22045e-16
2.61479e-16
2.22045e-16
2.22045e-16
2.55302e-16
2.92363e-16
3.06074e-16
2.81939e-16
2.22045e-16
2.22045e-16
2.22045e-16
2.63074e-16
2.22045e-16
2.39848e-16
2.67887e-16
2.94689e-16
3.06298e-16
2.79345e-16
2.22045e-16
2.22045e-16
2.22045e-16
2.66015e-16
2.27849e-16
2.45293e-16
2.64619e-16
2.90945e-16
3.02913e-16
2.74582e-16
2.22045e-16
2.22045e-16
2.28592e-16
2.7132e-16
2.27735e-16
2.40784e-16
2.59703e-16
2.87491e-16
3.00478e-16
2.71331e-16
2.22045e-16
2.22045e-16
2.37311e-16
2.76773e-16
2.23232e-16
2.35382e-16
2.54074e-16
2.83247e-16
2.97703e-16
2.68244e-16
2.22045e-16
2.22045e-16
2.47005e-16
2.82287e-16
2.22045e-16
2.2991e-16
2.47595e-16
2.78026e-16
2.94556e-16
2.65482e-16
2.22045e-16
2.26791e-16
2.58233e-16
2.87664e-16
2.22045e-16
2.24073e-16
2.39815e-16
2.7147e-16
2.90667e-16
2.63426e-16
2.22045e-16
2.34096e-16
2.72872e-16
2.91604e-16
2.22045e-16
2.22045e-16
2.29842e-16
2.62788e-16
2.85314e-16
2.627e-16
2.22045e-16
2.41538e-16
2.90358e-16
2.89881e-16
2.22045e-16
2.22045e-16
2.22045e-16
2.54688e-16
2.83352e-16
2.64817e-16
2.22045e-16
2.4971e-16
3.07973e-16
2.76595e-16
2.22045e-16
2.22045e-16
2.22045e-16
2.55967e-16
2.87188e-16
2.70252e-16
2.226e-16
2.57028e-16
3.23159e-16
2.69573e-16
2.22045e-16
2.22045e-16
2.22045e-16
2.22045e-16
2.22045e-16
2.22045e-16
2.22045e-16
2.22045e-16
2.22045e-16
2.22045e-16
2.22045e-16
2.22045e-16
2.22045e-16
2.22045e-16
2.22045e-16
2.22045e-16
2.22045e-16
2.22045e-16
2.22045e-16
2.22045e-16
2.22045e-16
2.22045e-16
2.22045e-16
2.22045e-16
2.22045e-16
2.22045e-16
2.22045e-16
2.22045e-16
2.22045e-16
2.22045e-16
2.22045e-16
2.22045e-16
2.22045e-16
2.22045e-16
2.22045e-16
2.22045e-16
2.22045e-16
2.22045e-16
2.22045e-16
2.22045e-16
2.22045e-16
2.22045e-16
2.22045e-16
2.22045e-16
2.22045e-16
2.22045e-16
2.22045e-16
2.22045e-16
2.22045e-16
2.22045e-16
2.22045e-16
2.22045e-16
2.22045e-16
2.22045e-16
2.22045e-16
2.22045e-16
2.22045e-16
2.22045e-16
2.22045e-16
2.22045e-16
2.22045e-16
2.22045e-16
2.22045e-16
2.22045e-16
2.22045e-16
2.22045e-16
2.22045e-16
2.22045e-16
2.22045e-16
2.22045e-16
2.22045e-16
2.22045e-16
2.22045e-16
2.22045e-16
2.22045e-16
2.22045e-16
2.22045e-16
2.22045e-16
2.22045e-16
2.22045e-16
2.22045e-16
2.22045e-16
2.22045e-16
2.22045e-16
2.22045e-16
2.22045e-16
2.22045e-16
2.22045e-16
2.22045e-16
2.22045e-16
2.22045e-16
2.22045e-16
2.22045e-16
2.22045e-16
2.22045e-16
2.22045e-16
2.22045e-16
2.22045e-16
2.22045e-16
2.22045e-16
)
;

boundaryField
{
    right
    {
        type            cyclic;
    }
    left
    {
        type            cyclic;
    }
    outerWall
    {
        type            kqRWallFunction;
        value           nonuniform List<scalar> 
22
(
2.92669e-16
2.88097e-16
2.85154e-16
2.81374e-16
2.78402e-16
2.74843e-16
2.71415e-16
2.68678e-16
2.66837e-16
2.65404e-16
2.62359e-16
2.61479e-16
2.63074e-16
2.66015e-16
2.7132e-16
2.76773e-16
2.82287e-16
2.87664e-16
2.91604e-16
2.89881e-16
2.76595e-16
2.69573e-16
)
;
    }
    stirrerWall
    {
        type            kqRWallFunction;
        value           uniform 2.22045e-16;
    }
    top
    {
        type            empty;
    }
    bottom
    {
        type            empty;
    }
}


// ************************************************************************* //
