/*--------------------------------*- C++ -*----------------------------------*\
  =========                 |
  \\      /  F ield         | OpenFOAM: The Open Source CFD Toolbox
   \\    /   O peration     | Website:  https://openfoam.org
    \\  /    A nd           | Version:  10
     \\/     M anipulation  |
\*---------------------------------------------------------------------------*/
FoamFile
{
    format      ascii;
    class       volScalarField;
    location    "1600";
    object      nut;
}
// * * * * * * * * * * * * * * * * * * * * * * * * * * * * * * * * * * * * * //

dimensions      [0 2 -1 0 0 0 0];

internalField   nonuniform List<scalar> 
420
(
1.04478e-20
6.17885e-20
1.63385e-19
2.97042e-19
4.39995e-19
5.79242e-19
6.96906e-19
7.51866e-19
6.94848e-19
5.69587e-19
1.04473e-20
6.12064e-20
1.65476e-19
3.03733e-19
4.53931e-19
6.0061e-19
7.1582e-19
7.4195e-19
6.42889e-19
5.09907e-19
1.04471e-20
6.18082e-20
1.71722e-19
3.19635e-19
4.80241e-19
6.33569e-19
7.38303e-19
7.18256e-19
5.89093e-19
4.55221e-19
1.04472e-20
6.28514e-20
1.78652e-19
3.35313e-19
5.02686e-19
6.56385e-19
7.44792e-19
6.8861e-19
5.3751e-19
4.00441e-19
1.04476e-20
6.35639e-20
1.8144e-19
3.35043e-19
4.9285e-19
6.34012e-19
7.09214e-19
6.44653e-19
4.79555e-19
3.40442e-19
1.04483e-20
6.32482e-20
1.71281e-19
2.96379e-19
4.16533e-19
5.26569e-19
5.91247e-19
5.43499e-19
3.97377e-19
2.72903e-19
1.04493e-20
6.02518e-20
1.37871e-19
2.08028e-19
2.73143e-19
3.38302e-19
3.8652e-19
3.74713e-19
2.86521e-19
1.97736e-19
1.04506e-20
4.77477e-20
7.97469e-20
1.04366e-19
1.29711e-19
1.5719e-19
1.82018e-19
1.90256e-19
1.64237e-19
1.22384e-19
1.04522e-20
2.15047e-20
2.79557e-20
3.45371e-20
4.19236e-20
5.00161e-20
5.8342e-20
6.53584e-20
6.6566e-20
5.7359e-20
2.82342e-21
3.6643e-21
4.61494e-21
5.67535e-21
6.84552e-21
8.12545e-21
9.51514e-21
1.10146e-20
1.26238e-20
1.43428e-20
4.70387e-19
4.30767e-19
4.68997e-19
6.7703e-19
1.00091e-18
8.41143e-19
7.63391e-19
3.22048e-19
2.03907e-19
7.15919e-20
4.16564e-19
3.86964e-19
4.39464e-19
6.56449e-19
9.9617e-19
8.70753e-19
6.88835e-19
3.60046e-19
2.17575e-19
7.26318e-20
3.6736e-19
3.46439e-19
4.13231e-19
6.4422e-19
9.9816e-19
8.75898e-19
7.01984e-19
4.08355e-19
2.08773e-19
7.14642e-20
3.16991e-19
3.06192e-19
3.88041e-19
6.39016e-19
1.00349e-18
9.01113e-19
7.25305e-19
3.98904e-19
2.00456e-19
7.11232e-20
2.64423e-19
2.65946e-19
3.63894e-19
6.41785e-19
1.00305e-18
9.35071e-19
7.12438e-19
3.9931e-19
1.98131e-19
7.046e-20
2.10421e-19
2.26189e-19
3.41193e-19
6.5331e-19
9.84904e-19
9.59233e-19
6.98491e-19
4.11462e-19
1.95706e-19
6.96629e-20
1.5631e-19
1.8767e-19
3.21244e-19
6.762e-19
9.99191e-19
9.45933e-19
6.83857e-19
4.25272e-19
1.93055e-19
6.90996e-20
1.05098e-19
1.51754e-19
3.06991e-19
7.14066e-19
9.81993e-19
9.07552e-19
6.68761e-19
4.14883e-19
1.91153e-19
6.87698e-20
6.12488e-20
1.20077e-19
3.02889e-19
7.67878e-19
9.04478e-19
8.14711e-19
6.53606e-19
4.02616e-19
1.9117e-19
6.84668e-20
2.91627e-20
9.31502e-20
3.13329e-19
8.26081e-19
9.84998e-19
8.85261e-19
6.39729e-19
3.897e-19
1.79805e-19
6.7468e-20
1.03958e-20
7.47483e-20
3.54509e-19
8.75503e-19
1.0843e-18
9.83646e-19
6.33857e-19
3.76274e-19
1.75176e-19
6.63264e-20
1.03958e-20
8.92071e-20
4.31497e-19
9.06901e-19
1.09463e-18
9.88738e-19
6.28467e-19
3.74288e-19
1.88272e-19
6.709e-20
5.52327e-20
2.16103e-19
6.21993e-19
7.82595e-19
9.25373e-19
8.63201e-19
6.1687e-19
3.70259e-19
1.949e-19
6.80997e-20
2.67604e-19
5.44484e-19
6.17216e-19
7.0851e-19
8.20577e-19
7.64299e-19
6.0069e-19
3.56111e-19
1.87343e-19
6.93396e-20
5.68072e-19
6.0669e-19
6.45611e-19
7.33119e-19
8.52595e-19
8.02761e-19
5.93238e-19
3.42037e-19
1.85668e-19
6.97429e-20
6.83176e-19
6.47862e-19
6.58586e-19
7.38858e-19
8.54871e-19
8.30605e-19
5.94167e-19
3.35502e-19
1.85233e-19
6.98474e-20
7.27945e-19
6.6166e-19
6.61786e-19
7.41287e-19
8.63642e-19
8.88983e-19
6.04135e-19
3.34796e-19
1.8498e-19
7.00503e-20
7.01098e-19
6.55085e-19
6.60475e-19
7.57278e-19
9.15341e-19
9.25377e-19
6.25012e-19
3.49652e-19
1.87882e-19
7.0313e-20
6.69082e-19
6.21573e-19
6.72784e-19
8.56046e-19
1.05522e-18
9.72704e-19
6.56852e-19
3.79974e-19
1.93657e-19
6.93675e-20
6.31125e-19
5.78272e-19
6.1075e-19
8.03671e-19
1.03028e-18
9.93833e-19
6.98377e-19
4.27028e-19
1.98365e-19
6.63817e-20
5.86302e-19
5.33616e-19
5.49995e-19
7.45197e-19
1.00672e-18
1.01404e-18
7.41106e-19
4.89615e-19
1.96494e-19
6.77177e-20
5.32372e-19
4.82246e-19
5.06327e-19
7.10026e-19
9.90395e-19
1.02387e-18
7.62208e-19
4.24391e-19
2.38304e-19
6.98525e-20
1.43428e-20
1.16311e-19
4.33399e-19
7.09305e-19
7.81726e-19
7.80138e-19
7.58308e-19
7.28299e-19
6.89767e-19
6.36677e-19
1.26238e-20
8.68452e-20
3.14399e-19
6.15327e-19
7.70742e-19
8.14948e-19
8.17003e-19
8.05067e-19
7.81805e-19
7.44264e-19
1.10146e-20
6.4998e-20
2.19352e-19
4.57188e-19
6.47358e-19
7.4387e-19
7.78987e-19
7.89339e-19
7.85404e-19
7.68646e-19
9.51514e-21
5.07416e-20
1.45352e-19
2.95197e-19
4.56374e-19
5.81324e-19
6.56636e-19
6.93197e-19
7.05214e-19
6.98807e-19
8.12545e-21
4.31606e-20
1.12445e-19
2.10245e-19
3.20812e-19
4.24047e-19
5.072e-19
5.58765e-19
5.80547e-19
5.79108e-19
6.84552e-21
3.73268e-20
9.51806e-20
1.70083e-19
2.51145e-19
3.27885e-19
3.92022e-19
4.32677e-19
4.47918e-19
4.43433e-19
5.67535e-21
3.18969e-20
8.21486e-20
1.44294e-19
2.05971e-19
2.58115e-19
2.94865e-19
3.11291e-19
3.11422e-19
3.02379e-19
4.61494e-21
2.64504e-20
6.77319e-20
1.12851e-19
1.47583e-19
1.67936e-19
1.76362e-19
1.75924e-19
1.71256e-19
1.65819e-19
3.6643e-21
2.07563e-20
4.39378e-20
5.71884e-20
6.25773e-20
6.38569e-20
6.37215e-20
6.3008e-20
6.21914e-20
6.16262e-20
2.82342e-21
1.04522e-20
1.04506e-20
1.04493e-20
1.04483e-20
1.04476e-20
1.04472e-20
1.04471e-20
1.04473e-20
1.04478e-20
)
;

boundaryField
{
    right
    {
        type            cyclic;
    }
    left
    {
        type            cyclic;
    }
    outerWall
    {
        type            nutkWallFunction;
        Cmu             0.09;
        kappa           0.41;
        E               9.8;
        value           uniform 0;
    }
    stirrerWall
    {
        type            nutkWallFunction;
        Cmu             0.09;
        kappa           0.41;
        E               9.8;
        value           uniform 0;
    }
    top
    {
        type            empty;
    }
    bottom
    {
        type            empty;
    }
}


// ************************************************************************* //
