/*--------------------------------*- C++ -*----------------------------------*\
  =========                 |
  \\      /  F ield         | OpenFOAM: The Open Source CFD Toolbox
   \\    /   O peration     | Website:  https://openfoam.org
    \\  /    A nd           | Version:  10
     \\/     M anipulation  |
\*---------------------------------------------------------------------------*/
FoamFile
{
    format      ascii;
    class       volScalarField;
    location    "1600";
    object      omega;
}
// * * * * * * * * * * * * * * * * * * * * * * * * * * * * * * * * * * * * * //

dimensions      [0 0 -1 0 0 0 0];

internalField   nonuniform List<scalar> 
420
(
21252.7
3593.62
1359.02
747.519
504.653
383.336
318.615
295.325
319.559
389.835
21253.7
3627.8
1341.85
731.051
489.159
369.698
310.196
299.272
345.385
435.461
21254.2
3592.48
1293.05
694.682
462.361
350.467
300.75
309.144
376.926
487.774
21254
3532.85
1242.89
662.202
441.717
338.284
298.13
322.453
413.099
554.5
21253.2
3493.25
1223.79
662.735
450.532
350.222
313.086
344.441
463.022
652.225
21251.7
3510.69
1296.38
749.191
533.079
421.682
375.553
408.547
558.775
813.639
21249.7
3685.28
1610.52
1067.38
812.924
656.35
574.471
592.573
774.969
1122.94
21247.1
4650.37
2784.37
2127.56
1711.85
1412.59
1219.9
1167.09
1351.97
1814.32
21243.8
10325.4
7942.73
6429.16
5296.42
4439.46
3805.91
3397.34
3335.7
3871.13
78643.9
60596.7
48114.3
39124.4
32436.5
27327.1
23335.9
20159.1
17589.3
15481.3
472.047
515.464
473.446
374.016
295.389
269.021
295.903
473.415
1087.58
3581.27
533.038
573.812
505.263
380.261
293.696
268.718
298.124
469.96
1011.38
3581.17
604.433
640.934
537.337
383.585
290.844
268.965
301.651
476.599
1024.95
3581.13
700.476
725.182
572.219
385.258
287.732
269.56
306.139
487.64
1036.86
3581.18
839.732
834.925
610.19
385.246
284.788
270.633
311.669
497.934
1040.7
3581.3
1055.24
981.679
650.79
383.216
282.117
272.253
317.892
508.56
1045.72
3581.49
1420.54
1183.16
691.202
377.776
279.584
274.345
324.694
520.85
1054.87
3581.76
2112.75
1463.18
723.293
367.21
277.169
276.756
332.024
535.199
1068.44
3582.1
3625.29
1849.18
733.088
351.049
275.009
279.152
339.722
551.505
1086.59
3582.51
7614.01
2383.73
708.663
332.757
273.282
280.57
347.092
569.784
1110.28
3582.99
21359.1
2970.56
644.036
319.4
273.255
281.119
350.307
590.114
1126.39
3575.63
21359.1
2489.09
557.138
314.452
275.071
283.173
353.312
593.245
1129.16
3575.63
4020.16
1027.49
410.457
305.313
276.758
286.395
359.954
599.701
1139.27
3582.99
829.751
421.738
328.8
299.219
277.398
288.828
369.649
623.526
1185.23
3582.51
370.389
328.428
318.877
298.828
276.615
287.915
374.293
649.183
1231.19
3582.1
308.722
321.107
322.458
300.915
276.095
285.526
373.707
661.828
1281.15
3581.76
306.661
329.054
330.305
304.466
275.525
281.341
367.541
663.224
1335.31
3581.49
316.71
342.509
341.494
309.659
275.177
275.866
355.265
648.619
1374.44
3581.3
331.865
360.494
356.452
316.925
275.457
269.867
338.043
616.084
1396.46
3581.18
351.824
383.979
376.327
326.984
276.927
264.33
317.944
565.626
1383.25
3581.13
378.721
416.113
403.721
341.773
281.461
261.149
299.612
510.012
1314.48
3581.17
417.086
460.438
438.54
360.504
289.973
263.951
292.046
485.142
1246.41
3581.27
15481.3
1909.06
512.334
313.045
284.044
284.622
292.816
304.881
321.912
348.755
17589.3
2556.79
706.251
360.856
288.092
272.465
271.779
275.809
284.015
298.341
20159.1
3416.18
1012.27
485.675
343.001
298.499
285.043
281.304
282.714
288.878
23335.9
4375.99
1527.63
752.192
486.541
381.964
338.155
320.32
314.861
317.748
27327.1
5144.61
1974.7
1056.13
692.132
523.632
437.785
397.385
382.475
383.425
32436.5
5948.67
2332.88
1305.51
884.129
677.203
566.408
513.188
495.726
500.74
39124.4
6961.33
2702.96
1538.84
1078.04
860.256
753.039
713.302
713.003
734.326
48114.3
8394.75
3278.29
1967.59
1504.54
1322.2
1259.03
1262.16
1296.56
1339.08
60596.7
10697.7
5053.61
3882.68
3548.33
3477.22
3484.61
3524.07
3570.34
3603.09
78643.9
21243.8
21247.1
21249.7
21251.7
21253.2
21254
21254.2
21253.7
21252.7
)
;

boundaryField
{
    right
    {
        type            cyclic;
    }
    left
    {
        type            cyclic;
    }
    outerWall
    {
        beta1           0.075;
        blended         0;
        type            omegaWallFunction;
        value           nonuniform List<scalar> 
22
(
3581.27
3581.17
3581.13
3581.18
3581.3
3581.49
3581.76
3582.1
3582.51
3582.99
3575.63
3575.63
3582.99
3582.51
3582.1
3581.76
3581.49
3581.3
3581.18
3581.13
3581.17
3581.27
)
;
    }
    stirrerWall
    {
        beta1           0.075;
        blended         0;
        type            omegaWallFunction;
        value           nonuniform List<scalar> 
42
(
21252.7
21253.7
21254.2
21254
21253.2
21251.7
21249.7
21247.1
21243.8
78643.9
78643.9
60596.7
48114.3
39124.4
32436.5
27327.1
23335.9
20159.1
17589.3
15481.3
21359.1
21359.1
15481.3
17589.3
20159.1
23335.9
27327.1
32436.5
39124.4
48114.3
60596.7
78643.9
78643.9
21243.8
21247.1
21249.7
21251.7
21253.2
21254
21254.2
21253.7
21252.7
)
;
    }
    top
    {
        type            empty;
    }
    bottom
    {
        type            empty;
    }
}


// ************************************************************************* //
