/*--------------------------------*- C++ -*----------------------------------*\
  =========                 |
  \\      /  F ield         | OpenFOAM: The Open Source CFD Toolbox
   \\    /   O peration     | Website:  https://openfoam.org
    \\  /    A nd           | Version:  10
     \\/     M anipulation  |
\*---------------------------------------------------------------------------*/
FoamFile
{
    format      ascii;
    class       volScalarField;
    location    "1600";
    object      p;
}
// * * * * * * * * * * * * * * * * * * * * * * * * * * * * * * * * * * * * * //

dimensions      [0 2 -2 0 0 0 0];

internalField   nonuniform List<scalar> 
420
(
-0.0253428
14.3886
30.0067
48.1243
68.1265
89.3427
111.176
132.906
154.084
174.255
-0.890035
13.7194
29.1579
47.0165
66.7727
87.8455
109.693
131.611
153.022
173.47
-1.26677
13.2487
28.4487
46.0125
65.4819
86.3662
108.188
130.256
151.943
172.739
-1.36898
12.9602
27.8912
45.1136
64.2401
84.8814
106.658
128.912
150.942
172.124
-1.38997
12.8284
27.5082
44.3686
63.1135
83.479
105.195
127.664
150.08
171.667
-1.3894
12.8394
27.3161
43.8269
62.1849
82.2537
103.864
126.516
149.307
171.307
-1.39303
12.9754
27.3107
43.4995
61.4794
81.2175
102.635
125.358
148.494
171.02
-1.42305
13.2146
27.4694
43.3531
60.9552
80.3006
101.371
123.939
147.357
170.574
-1.51907
13.5547
27.75
43.3342
60.5676
79.4593
99.9854
122.02
145.221
168.776
-1.72592
13.9637
27.979
43.3155
60.2784
78.7823
98.7198
119.927
142.154
165.083
193.19
211.571
229.575
246.726
263.05
279.374
295.888
311.004
309.861
411.998
192.657
211.167
229.143
246.171
262.365
278.437
294.315
308.766
305.483
394.696
192.196
210.787
228.627
245.414
261.303
276.856
291.696
304.637
300.921
383.879
191.839
210.42
227.997
244.449
259.93
274.871
288.692
300.044
296.54
378.001
191.601
210.077
227.303
243.373
258.398
272.719
285.575
295.594
292.778
373.372
191.462
209.754
226.597
242.306
256.848
270.541
282.481
291.38
289.019
367.932
191.524
209.493
225.907
241.333
255.417
268.507
279.592
287.547
285.446
362.85
191.811
209.337
225.229
240.498
254.259
266.837
277.181
284.511
283.018
359.066
191.61
209.473
224.857
239.971
253.516
265.661
275.421
282.766
282.79
356.695
190.294
210.451
225.439
240.101
253.417
265.254
274.602
281.997
282.438
356.708
190.382
211.317
226.43
240.808
253.844
265.509
274.602
281.595
272.805
362.967
191.772
211.595
227.051
241.177
253.962
265.386
274.261
280.651
269.514
364.538
196.769
212.481
227.717
241.8
254.453
265.582
274.262
280.155
277.461
361.43
196.591
212.49
227.947
242.35
255.246
266.548
275.44
281.898
283.13
361.447
195.63
212.134
228.052
242.918
256.27
268.056
277.78
285.443
288.505
364.393
194.996
211.85
228.243
243.645
257.577
270.026
280.796
289.481
293.807
369.604
194.701
211.823
228.656
244.622
259.226
272.534
284.606
294.469
300.215
376.881
194.584
211.99
229.239
245.744
261.04
275.384
289.03
300.225
308.373
388.359
194.53
212.234
229.846
246.8
262.691
278.005
293.051
305.354
318.228
408.334
194.415
212.381
230.255
247.495
263.77
279.644
295.161
307.505
325.69
435.975
194.096
212.22
230.182
247.467
263.854
279.862
295.295
307.026
323.33
452.39
193.624
211.814
229.742
246.889
263.175
279.452
295.719
309.417
316.328
434.772
181.326
178.874
177.674
177.161
176.919
176.721
176.474
176.114
175.592
174.954
156.063
156.465
157.073
157.468
157.669
157.625
157.312
156.742
155.942
155.027
129.042
132.019
134.589
136.178
137.045
137.335
137.104
136.429
135.373
134.132
104.514
107.991
111.48
113.913
115.365
116.005
115.935
115.263
114.096
112.647
82.8586
85.6916
88.9629
91.5644
93.2418
94.0644
94.119
93.5059
92.3586
90.8807
63.6208
65.5151
67.9433
70.0834
71.5712
72.3452
72.4382
71.9091
70.882
69.5472
46.4727
47.5008
48.8872
50.2141
51.1971
51.6988
51.7003
51.2326
50.3811
49.2947
31.2162
31.5589
32.0112
32.4565
32.7865
32.9016
32.7515
32.3318
31.6812
30.885
17.8113
17.5332
17.2749
17.0657
16.8932
16.697
16.4257
16.0526
15.575
15.019
5.51119
4.23542
3.13895
2.41354
1.91688
1.51904
1.14381
0.742539
0.300362
-0.0439344
)
;

boundaryField
{
    right
    {
        type            cyclic;
    }
    left
    {
        type            cyclic;
    }
    outerWall
    {
        type            zeroGradient;
    }
    stirrerWall
    {
        type            zeroGradient;
    }
    top
    {
        type            empty;
    }
    bottom
    {
        type            empty;
    }
}


// ************************************************************************* //
