/*--------------------------------*- C++ -*----------------------------------*\
  =========                 |
  \\      /  F ield         | OpenFOAM: The Open Source CFD Toolbox
   \\    /   O peration     | Website:  https://openfoam.org
    \\  /    A nd           | Version:  10
     \\/     M anipulation  |
\*---------------------------------------------------------------------------*/
FoamFile
{
    format      ascii;
    class       surfaceScalarField;
    location    "1600";
    object      phi;
}
// * * * * * * * * * * * * * * * * * * * * * * * * * * * * * * * * * * * * * //

dimensions      [0 3 -1 0 0 0 0];

internalField   nonuniform List<scalar> 
788
(
5.0459e-07
-4.81376e-06
2.33989e-06
4.78515e-06
4.22521e-06
9.41577e-06
6.04623e-06
1.08866e-05
7.29303e-06
1.03627e-05
7.42642e-06
8.14639e-06
6.29405e-06
4.28527e-06
3.95932e-06
-1.48638e-06
2.09125e-06
-1.06561e-05
-2.55179e-05
1.67584e-06
7.19796e-07
-5.52903e-06
2.00873e-06
3.46773e-06
3.67398e-06
7.70471e-06
5.15821e-06
9.36656e-06
5.71992e-06
9.76387e-06
4.83333e-06
8.97821e-06
2.61026e-06
6.41028e-06
3.56823e-07
6.32872e-07
-4.9785e-07
-9.93975e-06
-2.61093e-05
-4.77881e-08
4.27085e-07
-5.96455e-06
1.14446e-06
2.71154e-06
2.32768e-06
6.47293e-06
3.30684e-06
8.35384e-06
3.40588e-06
9.62826e-06
2.22974e-06
1.00914e-05
-7.88533e-08
8.61109e-06
-2.1504e-06
2.58119e-06
-2.21667e-06
-9.94104e-06
-2.70404e-05
-1.28839e-06
1.47786e-07
-6.13177e-06
4.58977e-07
2.33911e-06
1.31724e-06
5.5496e-06
2.06636e-06
7.57311e-06
2.16082e-06
9.51817e-06
1.27983e-06
1.09377e-05
-5.33785e-07
1.03474e-05
-2.22084e-06
4.17713e-06
-1.8769e-06
-1.03277e-05
-2.77083e-05
-1.18064e-06
-8.53489e-08
-6.07372e-06
6.83536e-09
2.16798e-06
7.81149e-07
4.69893e-06
1.66668e-06
6.66291e-06
2.17741e-06
9.01745e-06
1.95377e-06
1.1168e-05
1.12124e-06
1.11617e-05
2.77857e-07
4.99142e-06
9.94037e-09
-1.00526e-05
-2.72552e-05
-3.74631e-07
-3.35458e-07
-5.77059e-06
-3.37387e-07
2.07913e-06
5.34409e-07
3.74537e-06
1.80709e-06
5.38119e-06
3.07789e-06
7.79086e-06
3.94418e-06
1.03515e-05
4.21278e-06
1.0917e-05
3.91758e-06
5.29145e-06
2.69444e-06
-8.79295e-06
-2.57093e-05
1.23274e-06
-7.0448e-07
-5.10379e-06
-7.4131e-07
2.01029e-06
2.78889e-07
2.63861e-06
1.97049e-06
3.70357e-06
4.11274e-06
5.73487e-06
6.4007e-06
8.15253e-06
8.36268e-06
8.99839e-06
8.99575e-06
4.66025e-06
6.751e-06
-6.53614e-06
-2.26145e-05
3.68752e-06
-1.27038e-06
-3.87941e-06
-1.26735e-06
1.88027e-06
-1.99004e-07
1.48225e-06
1.62512e-06
1.92821e-06
4.30447e-06
3.19085e-06
7.75047e-06
4.82391e-06
1.12949e-05
5.48203e-06
1.31486e-05
2.75401e-06
1.07221e-05
-4.16983e-06
-1.73392e-05
5.4406e-06
-2.05446e-06
-1.88111e-06
-1.61187e-06
1.31158e-06
-7.63993e-07
5.95971e-07
4.7483e-07
7.94964e-07
2.52912e-06
1.29193e-06
5.58081e-06
1.85086e-06
8.93368e-06
2.06974e-06
1.03929e-05
1.14859e-06
7.57316e-06
-1.45981e-06
-1.05964e-05
8.45937e-07
-1.92954e-06
-6.30955e-07
2.27723e-08
8.96457e-07
2.22073e-06
4.02729e-06
6.00754e-06
7.09328e-06
5.67506e-06
-4.79456e-06
3.00967e-06
-4.59799e-05
6.21704e-06
-7.81945e-05
1.07238e-05
-0.000120272
1.5786e-05
-0.000172712
2.07367e-05
-0.000238221
2.57801e-05
-0.000322896
3.15036e-05
-0.000425203
3.11554e-05
-0.000507866
-2.08601e-05
-0.000556411
-0.00138427
1.7617e-06
-4.7924e-05
4.95262e-06
-8.15007e-05
9.00497e-06
-0.000124393
1.32192e-05
-0.000176934
1.70218e-05
-0.000241987
2.06413e-05
-0.000326457
2.62031e-05
-0.000430684
3.02354e-05
-0.000511809
4.98342e-06
-0.000531344
-0.0013792
5.30788e-07
-4.9711e-05
3.41212e-06
-8.43615e-05
6.89577e-06
-0.000127907
1.03656e-05
-0.000180465
1.32666e-05
-0.000244907
1.56803e-05
-0.000328852
1.99392e-05
-0.000434978
2.34145e-05
-0.000515509
2.36997e-05
-0.000531495
-0.00135547
3.50827e-09
-5.08283e-05
2.27959e-06
-8.65936e-05
5.06239e-06
-0.000130701
7.6949e-06
-0.000183102
9.82636e-06
-0.000247006
1.11724e-05
-0.000330271
1.3194e-05
-0.000436732
1.21146e-05
-0.000514519
1.82449e-05
-0.000537692
-0.00133725
-1.7572e-07
-5.09459e-05
1.48418e-06
-8.82329e-05
3.56241e-06
-0.000132823
5.56316e-06
-0.000185057
7.32384e-06
-0.000248578
8.10208e-06
-0.00033115
9.28518e-06
-0.000437922
8.05487e-06
-0.000513302
1.45914e-05
-0.000544347
-0.00132269
5.15488e-07
-5.01621e-05
1.51533e-06
-8.92808e-05
2.83285e-06
-0.000134284
4.22195e-06
-0.000186466
5.68472e-06
-0.000249839
6.33237e-06
-0.000331834
7.63831e-06
-0.000439374
7.81851e-06
-0.000513479
1.55718e-05
-0.000552152
-0.00130713
2.1665e-06
-4.86267e-05
2.42369e-06
-8.96646e-05
2.83207e-06
-0.00013492
3.48196e-06
-0.000187172
4.5531e-06
-0.000250691
5.09401e-06
-0.000332342
6.59011e-06
-0.000440989
7.73148e-06
-0.000514586
1.657e-05
-0.000560965
-0.00129055
3.74605e-06
-4.6897e-05
3.36174e-06
-8.93866e-05
2.84915e-06
-0.000134652
2.6848e-06
-0.000187081
3.2856e-06
-0.000251058
3.66412e-06
-0.000332652
5.23025e-06
-0.000442628
6.76463e-06
-0.000516057
1.61771e-05
-0.000570314
-0.00127437
2.68683e-06
-4.86351e-05
2.78004e-06
-8.9519e-05
1.54494e-06
-0.000133661
4.12e-07
-0.000186045
3.05196e-07
-0.000250741
4.74206e-07
-0.000332759
2.2826e-06
-0.000444506
4.66042e-06
-0.000518372
1.61098e-05
-0.00058159
-0.00125826
1.90937e-06
-5.52637e-05
1.35212e-06
-8.88748e-05
-2.00906e-06
-0.000130472
-5.0122e-06
-0.000183203
-7.01212e-06
-0.000248713
-9.60229e-06
-0.000330111
-1.03895e-05
-0.000443565
-1.08648e-06
-0.000527651
1.7186e-05
-0.000599731
-0.00124115
1.79661e-06
-5.69551e-05
1.12717e-06
-8.82254e-05
-6.86057e-07
-0.000128873
-2.3318e-06
-0.000181689
-3.50976e-06
-0.000247422
-4.43183e-06
-0.000329118
-5.65064e-06
-0.000442246
-1.08301e-05
-0.00052247
1.42786e-05
-0.000624665
-0.0012269
4.30511e-06
-6.11881e-05
5.61115e-06
-8.9531e-05
4.82482e-06
-0.000128321
4.03258e-06
-0.000180993
3.48166e-06
-0.000246712
2.90515e-06
-0.000328526
1.48188e-06
-0.000440802
-5.733e-06
-0.000515287
1.18582e-05
-0.00064222
-0.00121502
1.0095e-05
-5.5884e-05
-1.52963e-05
8.11737e-06
-8.73674e-05
6.46714e-06
-0.000126829
5.29096e-06
-0.000179939
5.2884e-06
-0.000246628
4.94787e-06
-0.000328166
4.9811e-06
-0.000440767
9.34455e-06
-0.00051965
4.80604e-06
-0.000637598
-0.00121026
2.5588e-06
-5.50742e-05
-3.21049e-06
6.78542e-07
-8.53478e-05
-1.51395e-06
-0.000124833
-3.53729e-06
-0.000178005
-4.76425e-06
-0.000245255
-5.81837e-06
-0.000327024
-6.8778e-06
-0.000439671
-1.28892e-06
-0.000525212
1.32917e-05
-0.000651972
-0.00119702
-2.82776e-06
-5.5428e-05
3.34321e-06
-4.07429e-06
-8.3932e-05
-6.26183e-06
-0.000122785
-8.46248e-06
-0.000175829
-1.01787e-05
-0.000243412
-1.16998e-05
-0.000325448
-1.44148e-05
-0.000436835
-1.50527e-05
-0.000524645
4.33443e-06
-0.000671227
-0.00119272
-5.55623e-06
-5.47227e-05
5.03486e-06
-7.09987e-06
-8.21875e-05
-9.45388e-06
-0.000120485
-1.19435e-05
-0.000173326
-1.42071e-05
-0.000241041
-1.63094e-05
-0.000323359
-2.00518e-05
-0.000433
-2.24435e-05
-0.000522313
-1.04286e-06
-0.000692435
-0.00119378
-6.99868e-06
-5.28741e-05
5.32525e-06
-9.0269e-06
-7.99116e-05
-1.1542e-05
-0.000117976
-1.42461e-05
-0.000170612
-1.69816e-05
-0.000238236
-1.95913e-05
-0.000320751
-2.4786e-05
-0.000427682
-2.9062e-05
-0.000518062
-7.6384e-06
-0.000713616
-0.00120149
-7.33314e-06
-5.03239e-05
4.98001e-06
-9.7558e-06
-7.72474e-05
-1.24596e-05
-0.000115285
-1.53709e-05
-0.000167698
-1.84631e-05
-0.000235094
-2.12715e-05
-0.000317919
-2.70079e-05
-0.00042178
-3.2885e-05
-0.000512231
-1.38133e-05
-0.000732455
-0.00121546
-6.91684e-06
-4.75548e-05
4.35072e-06
-9.64905e-06
-7.43955e-05
-1.24436e-05
-0.000112528
-1.53838e-05
-0.000164751
-1.87177e-05
-0.000231729
-2.17347e-05
-0.000314895
-2.68604e-05
-0.000416498
-3.35284e-05
-0.000505684
-2.4515e-05
-0.000741205
-0.00124012
-5.88839e-06
-4.50099e-05
3.46222e-06
-8.48941e-06
-7.18372e-05
-1.09079e-05
-0.000110122
-1.35789e-05
-0.000162034
-1.68212e-05
-0.000228487
-2.01304e-05
-0.000311653
-2.35471e-05
-0.000412979
-2.71282e-05
-0.00050232
-3.75414e-05
-0.000730351
-0.00127751
-3.40171e-06
-4.35286e-05
1.90919e-06
-3.92749e-06
-7.14198e-05
-3.63535e-06
-0.000110309
-3.9228e-06
-0.000161607
-5.83331e-06
-0.000226584
-8.02995e-06
-0.000309496
-8.11208e-06
-0.000412597
-1.10607e-06
-0.000509606
-2.82975e-05
-0.000703766
-0.0013058
2.90844e-06
-2.0606e-06
6.30973e-06
1.1828e-05
1.79835e-05
2.45262e-05
3.23855e-05
3.92797e-05
3.81552e-05
-5.76105e-05
-2.46512e-05
9.53048e-06
-3.33851e-05
5.73046e-06
-3.75997e-05
7.81471e-06
-3.88242e-05
6.55274e-06
-3.78546e-05
4.68754e-06
-3.55056e-05
2.93279e-06
-3.24676e-05
1.48434e-06
-2.93264e-05
3.46923e-07
-2.64964e-05
-9.03487e-07
-3.05134e-06
-6.53728e-06
1.61159e-05
-1.59037e-05
1.51627e-05
-2.15075e-05
1.353e-05
-2.40941e-05
9.28663e-06
-2.4174e-05
4.89297e-06
-2.26364e-05
1.46587e-06
-2.01502e-05
-1.00779e-06
-1.72413e-05
-2.63495e-06
-1.41422e-05
-4.11987e-06
-5.34977e-06
1.65473e-06
1.44627e-05
-2.65411e-06
1.94922e-05
-6.55213e-06
1.74217e-05
-9.33948e-06
1.20924e-05
-1.05501e-05
6.11962e-06
-1.01231e-05
1.03757e-06
-8.79552e-06
-2.36594e-06
-6.99791e-06
-4.49763e-06
-5.11548e-06
-6.14405e-06
-7.26736e-06
4.16761e-06
1.02805e-05
5.61253e-06
1.79851e-05
5.50814e-06
1.74165e-05
4.81103e-06
1.27127e-05
3.91667e-06
6.95327e-06
3.26576e-06
1.62861e-06
2.97742e-06
-2.13885e-06
3.09937e-06
-4.69296e-06
3.24076e-06
-6.41445e-06
-7.6205e-06
3.97072e-06
6.27538e-06
8.29223e-06
1.35506e-05
1.13662e-05
1.42198e-05
1.25215e-05
1.14713e-05
1.23696e-05
7.03957e-06
1.15282e-05
2.40567e-06
1.06378e-05
-1.30515e-06
9.84609e-06
-3.95971e-06
9.09542e-06
-5.73397e-06
-7.03498e-06
3.06548e-06
3.17172e-06
7.70906e-06
8.80052e-06
1.23618e-05
9.50746e-06
1.54715e-05
8.3306e-06
1.68298e-05
5.65957e-06
1.67699e-05
2.43609e-06
1.58866e-05
-4.51312e-07
1.45933e-05
-2.69662e-06
1.31734e-05
-4.32754e-06
-5.60364e-06
2.08939e-06
1.05908e-06
6.17424e-06
4.66697e-06
1.07603e-05
4.96424e-06
1.45365e-05
4.59958e-06
1.6799e-05
3.42849e-06
1.75682e-05
1.68295e-06
1.72121e-05
-8.70206e-08
1.60868e-05
-1.56794e-06
1.45722e-05
-2.79716e-06
-3.81712e-06
1.45665e-06
-4.01185e-07
4.95817e-06
1.20016e-06
8.6545e-06
1.40955e-06
1.18267e-05
1.54259e-06
1.40201e-05
1.31628e-06
1.50641e-05
6.94937e-07
1.50913e-05
-7.51336e-08
1.43497e-05
-8.02025e-07
1.30901e-05
-1.52751e-06
-2.11173e-06
7.58951e-07
-1.14837e-06
3.37705e-06
-1.30961e-06
5.89196e-06
-9.39236e-07
7.92253e-06
-3.69859e-07
9.33708e-06
-1.27767e-08
1.00274e-05
6.94471e-08
1.00282e-05
-2.67259e-08
9.45148e-06
-1.95748e-07
8.31204e-06
-3.91321e-07
-5.68419e-07
-1.13068e-06
-2.35771e-06
-3.23971e-06
-3.56924e-06
-3.55286e-06
-3.46264e-06
-3.47963e-06
-3.68193e-06
-4.09796e-06
)
;

boundaryField
{
    right
    {
        type            cyclic;
        value           nonuniform List<scalar> 
20
(
0.00136333
0.000608542
0.000508492
0.000418876
0.000317247
0.000233356
0.000168075
0.000116198
7.52976e-05
4.46499e-05
2.55186e-05
1.20547e-05
3.4434e-06
-3.35256e-06
-8.32301e-06
-1.16095e-05
-1.27289e-05
-1.14075e-05
-6.85935e-06
4.65183e-06
)
;
    }
    left
    {
        type            cyclic;
        value           nonuniform List<scalar> 
20
(
-0.00136333
-0.000608542
-0.000508492
-0.000418876
-0.000317247
-0.000233356
-0.000168075
-0.000116198
-7.52976e-05
-4.46499e-05
-2.55186e-05
-1.20547e-05
-3.4434e-06
3.35256e-06
8.32301e-06
1.16095e-05
1.27289e-05
1.14075e-05
6.85935e-06
-4.65183e-06
)
;
    }
    outerWall
    {
        type            calculated;
        value           uniform 0;
    }
    stirrerWall
    {
        type            calculated;
        value           uniform 0;
    }
    top
    {
        type            empty;
        value           nonuniform List<scalar> 0();
    }
    bottom
    {
        type            empty;
        value           nonuniform List<scalar> 0();
    }
}


// ************************************************************************* //
