/*--------------------------------*- C++ -*----------------------------------*\
  =========                 |
  \\      /  F ield         | OpenFOAM: The Open Source CFD Toolbox
   \\    /   O peration     | Website:  https://openfoam.org
    \\  /    A nd           | Version:  10
     \\/     M anipulation  |
\*---------------------------------------------------------------------------*/
FoamFile
{
    format      ascii;
    class       volVectorField;
    location    "1600";
    object      U;
}
// * * * * * * * * * * * * * * * * * * * * * * * * * * * * * * * * * * * * * //

dimensions      [0 1 -1 0 0 0 0];

internalField   nonuniform List<vector> 
420
(
(0.466461 8.63663 7.05646e-18)
(-0.326261 10.7183 -5.11469e-17)
(-0.0594365 12.3756 -2.23266e-16)
(0.094633 13.7497 6.10905e-17)
(0.159505 14.9314 -3.98578e-16)
(0.111707 15.9471 0)
(-0.00638585 16.8208 0)
(-0.245905 17.5586 3.9843e-16)
(-0.394704 18.1124 -5.02374e-16)
(-0.496967 18.2074 0)
(-0.16157 8.61639 2.28977e-17)
(-1.10589 10.5404 -1.16607e-16)
(-1.01578 12.1734 6.81468e-16)
(-0.987443 13.5642 -9.34481e-16)
(-1.06774 14.8053 2.98041e-16)
(-1.27049 15.9158 7.27209e-18)
(-1.56376 16.8873 2.62563e-15)
(-1.83879 17.6542 -6.3092e-16)
(-1.93912 18.1203 1.19688e-15)
(-1.98631 18.0946 0)
(-0.820135 8.54068 4.45611e-17)
(-1.95953 10.3473 -5.51226e-16)
(-2.02866 11.9434 6.75408e-16)
(-2.16265 13.3391 1.10209e-15)
(-2.38522 14.6458 -7.30171e-16)
(-2.71176 15.858 3.5103e-15)
(-3.07199 16.913 1.66264e-15)
(-3.33763 17.6529 4.58546e-15)
(-3.42428 17.9666 -1.61356e-15)
(-3.42411 17.8129 -3.94526e-15)
(-1.45505 8.41726 -7.95685e-19)
(-2.7868 10.1121 4.9363e-16)
(-2.99291 11.6594 -8.72697e-16)
(-3.27147 13.0563 7.73167e-16)
(-3.60991 14.4127 -1.52921e-15)
(-4.02039 15.6991 1.73181e-15)
(-4.39813 16.8448 -8.93807e-15)
(-4.66 17.584 0)
(-4.75501 17.6438 -4.35853e-15)
(-4.70578 17.42 3.95933e-15)
(-2.07253 8.2804 0)
(-3.57763 9.83545 3.56732e-16)
(-3.89373 11.3177 -3.51539e-16)
(-4.2779 12.7014 0)
(-4.69871 14.0899 -3.23185e-16)
(-5.16782 15.4338 -2.70475e-16)
(-5.55175 16.6256 2.9687e-15)
(-5.76493 17.3277 -3.88777e-15)
(-5.90593 17.2456 0)
(-5.89583 17.015 -1.7099e-14)
(-2.6821 8.11684 1.97135e-19)
(-4.34044 9.50766 0)
(-4.73486 10.9072 0)
(-5.19076 12.2579 1.457e-15)
(-5.66383 13.6582 -2.22638e-15)
(-6.15998 15.0443 2.44408e-15)
(-6.55286 16.2608 7.3718e-16)
(-6.75693 16.9783 9.26768e-15)
(-6.98541 16.8684 -1.60362e-14)
(-7.01802 16.6548 8.97673e-15)
(-3.30007 7.92427 0)
(-5.0856 9.11881 -3.72377e-16)
(-5.52949 10.4183 -2.25839e-15)
(-6.0338 11.7094 -8.60839e-16)
(-6.53957 13.0878 -3.96866e-15)
(-7.04223 14.4969 2.3927e-15)
(-7.45424 15.7819 -5.89896e-15)
(-7.68031 16.5979 7.51631e-16)
(-7.97797 16.6349 -4.71156e-15)
(-8.08396 16.4006 -1.43277e-14)
(-3.94958 7.7025 3.39794e-18)
(-5.80886 8.66513 3.7778e-16)
(-6.28597 9.85809 2.95249e-15)
(-6.83836 11.0634 5.7379e-16)
(-7.3806 12.3652 2.29565e-15)
(-7.88858 13.7287 0)
(-8.30341 15.0196 5.6902e-15)
(-8.60862 15.9489 6.9158e-15)
(-8.97246 16.3447 1.01773e-14)
(-9.24728 16.225 9.6769e-15)
(-4.67326 7.44119 6.88122e-18)
(-6.48016 8.18157 3.82891e-16)
(-6.99999 9.28041 -4.10561e-16)
(-7.6421 10.3846 -1.95924e-15)
(-8.29096 11.5588 6.21292e-15)
(-8.89805 12.8016 8.17365e-15)
(-9.43464 14.041 -2.68765e-15)
(-9.93268 15.0727 0)
(-10.4911 15.6791 0)
(-10.8426 15.6548 -9.15026e-15)
(-5.49761 7.04488 -6.60852e-17)
(-6.90623 7.72566 6.84226e-16)
(-7.50717 8.733 0)
(-8.22395 9.73865 0)
(-8.92447 10.7305 -3.27149e-15)
(-9.56989 11.705 -2.0941e-17)
(-10.169 12.6494 5.50989e-15)
(-10.7708 13.5409 -1.17156e-14)
(-11.4924 14.3559 1.39887e-14)
(-12.2851 14.7712 1.22537e-15)
(-0.518447 17.8682 0)
(-0.39217 17.2195 0)
(-0.137496 16.4594 0)
(0.141157 15.701 -8.533e-16)
(0.302199 14.9392 0)
(0.396617 14.0441 0)
(1.1909 13.2956 9.79825e-16)
(2.3861 14.2504 0)
(-6.54834 16.2409 0)
(9.6242 -4.63939 0)
(-1.94146 17.6243 1.60473e-15)
(-1.73687 16.8911 2.7187e-15)
(-1.41703 16.1124 1.82215e-16)
(-1.10412 15.3899 9.96754e-16)
(-0.93133 14.6684 1.14455e-16)
(-0.832593 13.7652 1.39481e-15)
(-0.137576 12.9733 2.86861e-16)
(1.79171 14.1679 6.30131e-18)
(-7.28893 17.2056 -3.56218e-15)
(9.02688 -4.5556 -8.39478e-16)
(-3.31528 17.248 1.4601e-15)
(-3.03548 16.4592 0)
(-2.66259 15.6805 -2.32663e-15)
(-2.32166 14.9965 -2.11307e-15)
(-2.12646 14.3287 6.23424e-15)
(-2.01707 13.4482 -1.29879e-15)
(-1.34502 12.62 2.50884e-15)
(0.591789 14.0033 0)
(-8.13701 16.6222 3.992e-15)
(9.23493 -3.05849 -6.3554e-17)
(-4.58675 16.8053 3.41173e-15)
(-4.25243 15.9793 8.61341e-15)
(-3.83815 15.2054 -9.23709e-15)
(-3.48941 14.5609 3.72364e-15)
(-3.28281 13.9541 1.38951e-16)
(-3.16857 13.1242 0)
(-2.44529 12.3236 -2.46374e-15)
(-0.915074 13.9121 -5.07427e-15)
(-9.62611 15.7546 -3.78827e-15)
(9.30246 -1.71352 3.67556e-15)
(-5.80511 16.3544 3.15235e-15)
(-5.40445 15.4671 -2.80572e-15)
(-4.95719 14.6951 9.73417e-15)
(-4.60564 14.0961 -3.9318e-15)
(-4.37198 13.5457 3.56311e-15)
(-4.23939 12.7591 -5.44682e-15)
(-3.46309 12.0086 5.57047e-15)
(-2.24198 13.7679 5.3615e-15)
(-10.7841 14.7412 0)
(9.38237 -0.608971 -7.65336e-15)
(-6.96295 15.9183 3.94203e-15)
(-6.47661 14.9349 -1.73719e-14)
(-5.99959 14.1695 -5.11785e-15)
(-5.65058 13.5992 1.21078e-14)
(-5.39181 13.0856 1.07739e-14)
(-5.23094 12.3418 6.64132e-16)
(-4.3947 11.632 3.17761e-16)
(-3.41952 13.5212 -4.84479e-15)
(-11.6642 13.7198 -4.0186e-15)
(9.41612 0.615431 7.89225e-15)
(-8.09494 15.5019 4.01098e-15)
(-7.47839 14.4028 5.93018e-15)
(-6.97069 13.638 0)
(-6.63619 13.0717 -3.86409e-15)
(-6.35504 12.5784 -6.29748e-15)
(-6.16508 11.8692 6.17936e-16)
(-5.27325 11.1822 -1.49165e-14)
(-4.52845 13.1318 -4.91568e-15)
(-12.4294 12.5724 7.94395e-15)
(9.32097 1.96602 -3.89842e-15)
(-9.24954 15.059 1.44223e-14)
(-8.4792 13.8306 -5.15284e-15)
(-7.91187 13.0816 0)
(-7.59277 12.5021 -3.74543e-16)
(-7.28608 12.0085 2.60185e-14)
(-7.06118 11.3182 -1.08065e-14)
(-6.11509 10.6435 -1.03025e-14)
(-5.60327 12.6164 8.79268e-15)
(-13.1155 11.3777 -6.99722e-15)
(9.0517 3.21376 0)
(-10.4245 14.292 3.54035e-16)
(-9.56284 13.1249 -4.98241e-15)
(-8.91935 12.4741 0)
(-8.60243 11.8782 7.63674e-15)
(-8.26522 11.3661 -1.87111e-14)
(-7.99746 10.6816 1.07309e-14)
(-6.98061 9.98538 4.77755e-15)
(-6.65294 11.9968 0)
(-13.6946 10.1315 4.72505e-16)
(8.65451 4.3714 4.09496e-15)
(-11.1939 13.1208 4.94121e-16)
(-10.6311 12.3705 -5.01132e-17)
(-10.0937 11.8189 0)
(-9.77221 11.1948 -1.48013e-14)
(-9.42617 10.6257 5.74936e-15)
(-9.17251 9.93644 -5.67622e-15)
(-8.19939 9.19748 4.95256e-15)
(-8.0265 10.9509 -1.09172e-16)
(-14.1999 9.12468 -2.01778e-16)
(8.2221 5.4788 -4.00527e-15)
(-10.7401 13.1216 3.01497e-15)
(-11.0954 11.8896 -5.68291e-15)
(-10.7013 11.3895 0)
(-10.2974 10.7664 0)
(-9.86626 10.1795 0)
(-9.55211 9.47084 -2.66008e-15)
(-8.48519 8.73752 1.09443e-14)
(-8.64883 10.0192 0)
(-13.9955 6.83425 0)
(7.8773 7.28681 0)
(-11.3072 12.3636 -2.94468e-15)
(-11.4706 11.5642 -5.4559e-15)
(-11.1155 11.1348 0)
(-10.6491 10.5466 3.76146e-15)
(-10.1403 10.0068 -2.9235e-15)
(-9.78561 9.30611 2.53e-15)
(-8.67002 8.62898 3.82281e-15)
(-9.01215 10.0097 1.36563e-16)
(-13.8248 5.76524 1.31551e-15)
(7.53726 7.70022 0)
(-12.2489 11.5497 5.18882e-17)
(-12.0675 11.0452 1.32005e-16)
(-11.7963 10.594 0)
(-11.326 10.0244 3.00889e-16)
(-10.7518 9.55731 5.53526e-15)
(-10.3507 8.9266 -4.11006e-15)
(-9.26988 8.31552 -1.10677e-14)
(-9.63563 10.011 -5.62939e-15)
(-14.026 5.19277 8.54532e-15)
(6.71576 8.2252 3.70335e-15)
(-13.6323 10.0337 -1.2055e-14)
(-13.1943 9.83356 4.80519e-15)
(-12.8386 9.36762 0)
(-12.3045 8.78491 -6.23354e-15)
(-11.6548 8.29783 -5.3036e-15)
(-11.1788 7.71228 8.26688e-15)
(-10.0887 7.07065 3.10968e-15)
(-10.5357 8.24821 0)
(-13.8161 4.62401 -5.04533e-15)
(5.57222 8.8113 -6.16328e-16)
(-14.5404 8.74887 -2.8266e-16)
(-14.1483 8.6332 4.72305e-15)
(-13.7615 8.23273 0)
(-13.1735 7.6979 1.2556e-14)
(-12.4628 7.23712 8.70641e-17)
(-11.9132 6.69667 -1.51367e-16)
(-10.8413 6.12161 5.53717e-15)
(-11.3835 6.82249 -4.92472e-15)
(-13.448 3.01152 -3.35313e-15)
(4.59164 8.92563 0)
(-15.2193 7.54569 -2.90427e-15)
(-14.9346 7.45661 9.12305e-15)
(-14.5483 7.09947 7.62279e-15)
(-13.9206 6.60866 -8.7773e-15)
(-13.1636 6.17247 -1.42584e-14)
(-12.544 5.67559 7.91066e-17)
(-11.4635 5.18988 -2.70257e-15)
(-12.1654 5.50689 -1.98537e-15)
(-13.0486 1.62101 -3.71767e-15)
(3.89296 9.47259 -4.29729e-15)
(-15.8609 6.40606 -8.15426e-15)
(-15.6358 6.29104 4.38485e-15)
(-15.2375 5.96246 -3.45671e-15)
(-14.5717 5.51895 -8.74575e-15)
(-13.7793 5.10888 6.98954e-15)
(-13.0912 4.67349 1.18349e-16)
(-12.0679 4.29563 5.33069e-15)
(-12.8809 4.16058 1.82075e-15)
(-12.4901 0.230118 2.19293e-15)
(3.48016 9.96805 9.19567e-16)
(-16.4737 5.2914 2.45671e-15)
(-16.2571 5.13861 -2.21817e-15)
(-15.8252 4.82885 -3.87089e-17)
(-15.1241 4.43114 8.592e-15)
(-14.3062 4.05044 -1.11751e-14)
(-13.5534 3.68762 3.4482e-15)
(-12.6184 3.45987 -2.28809e-15)
(-13.5092 2.85725 5.44718e-15)
(-11.8026 -1.01189 0)
(3.22973 10.5053 -2.04119e-16)
(-17.0367 4.1633 2.65583e-15)
(-16.8055 3.97775 2.22095e-15)
(-16.3312 3.69219 3.64592e-15)
(-15.5995 3.34971 -5.56469e-15)
(-14.7613 3.01189 2.16096e-15)
(-13.9444 2.70953 0)
(-13.1015 2.6422 -1.21982e-15)
(-14.0037 1.62825 -3.08937e-15)
(-11.1518 -2.07726 1.83359e-16)
(3.16368 10.7621 4.17474e-15)
(-17.5113 2.99833 1.21748e-15)
(-17.2586 2.81331 0)
(-16.734 2.57904 1.81617e-15)
(-15.9678 2.30734 1.45825e-15)
(-15.1189 2.02841 1.90005e-17)
(-14.2487 1.80924 -8.32857e-16)
(-13.4025 1.78347 1.18768e-15)
(-14.2409 0.724756 0)
(-11.0638 -3.36731 9.34409e-16)
(2.62797 12.1213 5.00955e-15)
(-17.7816 1.82119 1.35538e-15)
(-17.4722 1.73606 -2.30554e-15)
(-16.8773 1.67633 -1.15374e-16)
(-16.0663 1.58772 6.48439e-16)
(-15.1819 1.44981 -1.62259e-17)
(-14.2476 1.24198 8.3324e-16)
(-13.2867 1.43557 -1.15194e-15)
(-13.7181 0.707578 2.33414e-16)
(-10.4499 -4.72747 1.67966e-15)
(4.0276 14.7327 -3.03038e-15)
(-17.964 0.821359 2.07595e-29)
(-17.4719 0.914431 0)
(-16.7902 1.14887 0)
(-16.0521 1.41788 -7.66471e-16)
(-15.2965 1.58076 0)
(-14.4256 1.79172 0)
(-13.6639 2.58258 6.99625e-16)
(-14.3425 2.50974 0)
(-14.1099 -4.29208 0)
(4.9593 7.99277 -1.18719e-29)
(-13.9541 11.9779 7.89162e-16)
(-14.4217 10.4778 -7.56045e-15)
(-14.8515 8.78276 7.11858e-15)
(-15.3113 7.5539 -9.50193e-15)
(-15.8077 6.44133 5.85716e-15)
(-16.3653 5.37364 -1.15522e-14)
(-16.9276 4.2803 2.86414e-15)
(-17.4494 3.14371 -3.03791e-15)
(-17.8124 1.96851 0)
(-18.1541 0.885895 -3.79239e-16)
(-14.6858 11.4387 1.53674e-14)
(-15.1611 10.2179 0)
(-15.1586 8.49912 8.02413e-15)
(-15.4168 7.37861 -3.26127e-15)
(-15.7599 6.37496 -9.75818e-15)
(-16.1914 5.39481 0)
(-16.6784 4.3755 -2.95343e-15)
(-17.1652 3.28505 -1.27078e-15)
(-17.5523 2.15149 8.89546e-16)
(-17.9253 1.00307 -3.95419e-16)
(-14.5145 10.7137 -1.28254e-14)
(-15.356 9.50848 0)
(-15.3583 8.12338 7.82843e-15)
(-15.4984 7.17098 3.29724e-16)
(-15.7137 6.32391 8.50763e-15)
(-16.0026 5.42308 -3.64234e-15)
(-16.3797 4.4699 0)
(-16.7737 3.41737 3.35294e-15)
(-17.1041 2.31189 -5.56048e-16)
(-17.3652 1.13015 4.43447e-16)
(-13.4503 10.0032 5.86236e-15)
(-14.9079 8.83564 -2.92771e-15)
(-15.2183 7.68803 6.40851e-15)
(-15.4761 6.92957 -7.22216e-15)
(-15.6907 6.24233 6.47845e-16)
(-15.9079 5.48637 4.15019e-15)
(-16.1396 4.56948 -1.09633e-14)
(-16.3958 3.54853 1.81079e-15)
(-16.6174 2.45895 2.65321e-15)
(-16.7412 1.3111 6.99537e-17)
(-12.1692 9.33305 -8.84398e-15)
(-13.8144 8.26317 8.52755e-15)
(-14.5062 7.26508 0)
(-14.954 6.55497 2.49021e-15)
(-15.2271 5.89579 2.6123e-15)
(-15.4307 5.19723 -2.4173e-16)
(-15.5916 4.35219 1.81939e-15)
(-15.7644 3.40989 3.71991e-15)
(-15.8971 2.37811 -3.06156e-17)
(-15.9548 1.29534 3.13179e-16)
(-10.9324 8.68075 -3.55509e-15)
(-12.4809 7.73997 6.96322e-15)
(-13.2805 6.8652 2.32734e-15)
(-13.9471 6.18441 -3.97502e-15)
(-14.3715 5.53912 -2.21589e-15)
(-14.6636 4.86786 -3.00482e-16)
(-14.8388 4.08724 -3.54519e-15)
(-14.9599 3.205 1.05564e-15)
(-15.0283 2.24334 3.03447e-16)
(-15.0177 1.24333 -3.34886e-16)
(-9.79649 8.03173 0)
(-11.108 7.21042 -2.35061e-15)
(-11.8608 6.46536 5.45815e-16)
(-12.5989 5.81653 -8.88545e-16)
(-13.1393 5.15985 1.51955e-15)
(-13.5085 4.47493 0)
(-13.7461 3.71948 8.19247e-16)
(-13.8773 2.88442 1.13899e-15)
(-13.9249 1.99236 -1.01507e-15)
(-13.88 1.07488 -2.64018e-17)
(-8.74501 7.37754 0)
(-9.77974 6.68691 -6.29855e-16)
(-10.458 6.05287 3.78291e-15)
(-11.1404 5.42832 -2.73781e-15)
(-11.6923 4.75829 0)
(-12.0954 4.05506 -4.19554e-16)
(-12.3635 3.30413 -9.65194e-16)
(-12.5181 2.50006 7.92226e-16)
(-12.5723 1.67002 7.59305e-16)
(-12.5192 0.825965 -2.84119e-16)
(-7.71483 6.6628 -9.1843e-16)
(-8.47054 6.12256 6.10153e-16)
(-9.09194 5.5337 5.75062e-16)
(-9.68682 4.88845 -5.28851e-16)
(-10.1701 4.19971 0)
(-10.5305 3.49151 4.53798e-16)
(-10.7733 2.76382 6.18284e-16)
(-10.9121 2.01764 -7.17557e-16)
(-10.9488 1.26448 -1.40398e-16)
(-10.8867 0.482809 1.00429e-17)
(-6.35337 6.25374 -2.55639e-16)
(-6.55283 6.00541 1.09461e-16)
(-6.94117 5.44839 9.0254e-17)
(-7.33495 4.80519 0)
(-7.69751 4.16436 -3.2664e-17)
(-8.01081 3.53485 0)
(-8.26425 2.90812 -1.11642e-16)
(-8.44925 2.27929 1.5338e-16)
(-8.5517 1.65187 3.01797e-17)
(-8.61323 1.05134 -7.94773e-18)
)
;

boundaryField
{
    right
    {
        type            cyclic;
    }
    left
    {
        type            cyclic;
    }
    outerWall
    {
        type            calculated;
        value           nonuniform List<vector> 
22
(
(-1.55201 41.8305 0)
(-4.64749 41.6006 0)
(-7.71741 41.1419 0)
(-10.7449 40.4569 0)
(-13.7132 39.5492 0)
(-16.6061 38.424 0)
(-19.4075 37.0874 0)
(-22.1022 35.5467 0)
(-24.6752 33.8104 0)
(-27.1124 31.8882 0)
(-28.9573 30.2506 0)
(-30.2506 28.9573 0)
(-31.8882 27.1124 0)
(-33.8104 24.6752 0)
(-35.5467 22.1022 0)
(-37.0874 19.4075 0)
(-38.424 16.6061 0)
(-39.5492 13.7132 0)
(-40.4569 10.7449 0)
(-41.1419 7.71741 0)
(-41.6006 4.64749 0)
(-41.8305 1.55201 0)
)
;
    }
    stirrerWall
    {
        type            calculated;
        value           nonuniform List<vector> 
42
(
(-0.310178 8.3662 0)
(-0.928834 8.32046 0)
(-1.54239 8.22894 0)
(-2.14746 8.09214 0)
(-2.74072 7.91082 0)
(-3.31888 7.68598 0)
(-3.87877 7.41885 0)
(-4.41729 7.11092 0)
(-4.93148 6.76387 0)
(-5.4185 6.37963 0)
(-6.07951 6.64185 0)
(-6.92878 7.56862 0)
(-7.77806 8.49539 0)
(-8.62734 9.42216 0)
(-9.47661 10.3489 0)
(-10.3259 11.2757 0)
(-11.1752 12.2025 0)
(-12.0244 13.1292 0)
(-12.8737 14.056 0)
(-13.723 14.9828 0)
(-14.4723 15.1215 0)
(-15.1215 14.4723 0)
(-14.9828 13.723 0)
(-14.056 12.8737 0)
(-13.1292 12.0244 0)
(-12.2025 11.1752 0)
(-11.2757 10.3259 0)
(-10.3489 9.47661 0)
(-9.42216 8.62734 0)
(-8.49539 7.77806 0)
(-7.56862 6.92878 0)
(-6.64185 6.07951 0)
(-6.37963 5.4185 0)
(-6.76387 4.93148 0)
(-7.11092 4.41729 0)
(-7.41885 3.87877 0)
(-7.68598 3.31888 0)
(-7.91082 2.74072 0)
(-8.09214 2.14746 0)
(-8.22894 1.54239 0)
(-8.32046 0.928834 0)
(-8.3662 0.310178 0)
)
;
    }
    top
    {
        type            empty;
    }
    bottom
    {
        type            empty;
    }
}


// ************************************************************************* //
