/*--------------------------------*- C++ -*----------------------------------*\
  =========                 |
  \\      /  F ield         | OpenFOAM: The Open Source CFD Toolbox
   \\    /   O peration     | Website:  https://openfoam.org
    \\  /    A nd           | Version:  10
     \\/     M anipulation  |
\*---------------------------------------------------------------------------*/
FoamFile
{
    format      ascii;
    class       volVectorField;
    location    "1600";
    object      Urel;
}
// * * * * * * * * * * * * * * * * * * * * * * * * * * * * * * * * * * * * * //

dimensions      [0 1 -1 0 0 0 0];

internalField   nonuniform List<vector> 
420
(
(0.800461 -0.371618 7.05646e-18)
(0.0542395 0.456959 -5.11469e-17)
(0.367579 0.860772 -2.23266e-16)
(0.568174 0.9811 6.10905e-17)
(0.679578 0.908806 -3.98578e-16)
(0.678319 0.670427 0)
(0.606769 0.289866 0)
(0.413796 -0.226685 3.9843e-16)
(0.311546 -0.927228 -5.02374e-16)
(0.255834 -2.08675 0)
(0.838607 -0.342572 2.28977e-17)
(0.0335306 0.335254 -1.16607e-16)
(0.262933 0.721676 6.81468e-16)
(0.430588 0.865621 -9.34481e-16)
(0.489636 0.859708 2.98041e-16)
(0.426245 0.723054 7.27209e-18)
(0.272343 0.447278 2.62563e-15)
(0.136691 -0.0332708 -6.3092e-16)
(0.175754 -0.814657 1.19688e-15)
(0.267963 -2.08784 0)
(0.840726 -0.319707 4.45611e-17)
(-0.0674463 0.254467 -5.51226e-16)
(0.0947195 0.617763 6.75408e-16)
(0.192085 0.78043 1.10209e-15)
(0.200894 0.853867 -7.30171e-16)
(0.105771 0.832673 3.5103e-15)
(-0.0230255 0.654071 1.66264e-15)
(-0.057219 0.160373 4.58546e-15)
(0.0876015 -0.759576 -1.61356e-15)
(0.319243 -2.14702 -3.94526e-15)
(0.857366 -0.29581 -7.95685e-19)
(-0.152453 0.18718 4.9363e-16)
(-0.036521 0.522149 -8.72697e-16)
(0.00702586 0.706568 7.73167e-16)
(-0.0092561 0.850205 -1.52921e-15)
(-0.0975477 0.923757 1.73181e-15)
(-0.153058 0.856378 -8.93807e-15)
(-0.0926772 0.382567 0)
(0.134589 -0.770837 -4.35853e-15)
(0.506101 -2.20777 3.95933e-15)
(0.878712 -0.23743 0)
(-0.215503 0.132895 3.56732e-16)
(-0.120604 0.430025 -3.51539e-16)
(-0.0936717 0.628433 0)
(-0.10331 0.831406 -3.23185e-16)
(-0.161207 0.989596 -2.70475e-16)
(-0.133889 0.995633 2.9687e-15)
(0.0642211 0.511779 -3.88777e-15)
(0.334528 -0.756268 0)
(0.755947 -2.17288 -1.7099e-14)
(0.891725 -0.1589 1.97135e-19)
(-0.269039 0.0808755 0)
(-0.165731 0.329038 0)
(-0.123794 0.528079 1.457e-15)
(-0.0989412 0.776541 -2.22638e-15)
(-0.0971177 1.01065 2.44408e-15)
(0.00802584 1.07499 7.3718e-16)
(0.302023 0.640385 9.26768e-15)
(0.571637 -0.621769 -1.60362e-14)
(1.03713 -1.98765 8.97673e-15)
(0.876667 -0.0638483 0)
(-0.327323 0.0196325 -3.72377e-16)
(-0.189497 0.207677 -2.25839e-15)
(-0.111954 0.387155 -8.60839e-16)
(-0.035776 0.653687 -3.96866e-15)
(0.043574 0.950897 2.3927e-15)
(0.213634 1.12384 -5.89896e-15)
(0.569669 0.827654 7.51631e-16)
(0.854163 -0.247513 -4.71156e-15)
(1.33034 -1.59416 -1.43277e-14)
(0.807063 0.0459298 3.39794e-18)
(-0.38989 -0.0564194 3.7778e-16)
(-0.204477 0.0712383 2.95249e-15)
(-0.0941841 0.210995 5.7379e-16)
(0.0263528 0.447143 2.29565e-15)
(0.181227 0.744772 0)
(0.429323 0.969728 5.6902e-15)
(0.787083 0.833025 6.9158e-15)
(1.08626 0.162769 1.01773e-14)
(1.47448 -1.02314 9.6769e-15)
(0.637106 0.158272 6.88122e-18)
(-0.430315 -0.114393 3.82891e-16)
(-0.210439 -0.0289072 -4.10561e-16)
(-0.112684 0.0617123 -1.95924e-15)
(-0.0215623 0.222152 6.21292e-15)
(0.11143 0.451052 8.17365e-15)
(0.314989 0.676496 -2.68765e-15)
(0.557149 0.694211 0)
(0.73894 0.286461 0)
(1.12772 -0.751924 -9.15026e-15)
(0.337227 0.175661 -6.60852e-17)
(-0.258811 -0.0991116 6.84226e-16)
(-0.0469188 -0.0476129 0)
(0.0493141 0.00197713 0)
(0.16193 0.0376338 -3.27149e-15)
(0.329746 0.0557876 -2.0941e-17)
(0.543926 0.0437978 5.50989e-15)
(0.755575 -0.0212065 -1.17156e-14)
(0.847349 -0.162755 1.39887e-14)
(0.86813 -0.703997 1.22537e-15)
(0.281161 -3.68709 0)
(0.457046 -5.67254 0)
(0.766646 -7.9128 0)
(1.10611 -10.3099 -8.533e-16)
(1.33449 -12.8861 0)
(1.50345 -15.7901 0)
(2.38027 -18.7628 9.79825e-16)
(3.66686 -20.2707 0)
(-5.1664 -21.0067 0)
(11.1182 -44.9058 0)
(0.45296 -3.81232 1.60473e-15)
(0.806099 -5.87499 2.7187e-15)
(1.29042 -8.12576 1.82215e-16)
(1.78543 -10.4779 9.96754e-16)
(2.15985 -13.004 1.14455e-16)
(2.48182 -15.905 1.39481e-15)
(3.424 -18.9089 2.86861e-16)
(5.62695 -20.1634 6.30131e-18)
(-3.15071 -19.8373 -3.56218e-15)
(13.5006 -44.6008 -8.39478e-16)
(0.660794 -3.95229 1.4601e-15)
(1.18727 -6.05595 0)
(1.83327 -8.29035 -2.32663e-15)
(2.4766 -10.5862 -2.11307e-15)
(3.00661 -13.0385 6.23424e-15)
(3.48669 -15.8948 -1.29879e-15)
(4.56917 -18.9107 2.50884e-15)
(6.96041 -19.9495 0)
(-1.26527 -20.0123 3.992e-15)
(16.6637 -42.6621 -6.3554e-17)
(0.949132 -4.0422 3.41173e-15)
(1.6269 -6.16114 8.61341e-15)
(2.42144 -8.36647 -9.23709e-15)
(3.19119 -10.5959 3.72364e-15)
(3.86394 -12.9576 1.38951e-16)
(4.49429 -15.7304 0)
(5.78901 -18.6822 -2.46374e-15)
(7.9519 -19.4754 -5.07427e-15)
(-0.0586444 -20.27 -3.78827e-15)
(19.6455 -40.6577 3.67556e-15)
(1.26018 -4.02582 3.15235e-15)
(2.09916 -6.17694 -2.80572e-15)
(3.03171 -8.34833 9.73417e-15)
(3.92059 -10.4967 -3.9318e-15)
(4.74916 -12.7625 3.56311e-15)
(5.54044 -15.4484 -5.44682e-15)
(7.04602 -18.3017 5.57047e-15)
(9.07458 -18.8706 5.3615e-15)
(1.42647 -20.4752 0)
(22.5827 -38.6795 -7.65336e-15)
(1.59295 -3.88265 3.94203e-15)
(2.61006 -6.09385 -1.73719e-14)
(3.67475 -8.21881 -5.11785e-15)
(4.67441 -10.2943 1.21078e-14)
(5.65358 -12.4745 1.07739e-14)
(6.61207 -15.0635 6.64132e-16)
(8.33142 -17.8162 3.17761e-16)
(10.2844 -18.189 -4.84479e-15)
(3.12228 -20.4948 -4.0186e-15)
(25.4012 -36.3719 7.89225e-15)
(1.90458 -3.61093 4.01098e-15)
(3.14143 -5.89519 5.93018e-15)
(4.33592 -7.97208 0)
(5.43083 -9.99118 -3.86409e-15)
(6.55389 -12.093 -6.29748e-15)
(7.676 -14.5831 6.17936e-16)
(9.59991 -17.242 -1.49165e-14)
(11.4874 -17.4755 -4.91568e-15)
(4.85165 -20.4522 7.94395e-15)
(28.0027 -33.7348 -3.89842e-15)
(2.1387 -3.26082 1.44223e-14)
(3.61544 -5.62498 -5.15284e-15)
(4.96489 -7.63161 0)
(6.14996 -9.60348 -3.74543e-16)
(7.41543 -11.6387 2.60185e-14)
(8.70187 -14.0359 -1.08065e-14)
(10.8233 -16.6004 -1.03025e-14)
(12.6364 -16.7198 8.79268e-15)
(6.565 -20.2752 -6.99722e-15)
(30.3274 -31.004 0)
(2.28989 -3.13413 3.54035e-16)
(3.9402 -5.38147 -4.98241e-15)
(5.45683 -7.22832 0)
(6.74048 -9.14851 7.63674e-15)
(8.14804 -11.1268 -1.87111e-14)
(9.60088 -13.4347 1.07309e-14)
(11.9298 -15.9283 4.77755e-15)
(13.7103 -15.9069 0)
(8.27709 -19.9755 4.72505e-16)
(32.407 -28.1751 4.09496e-15)
(2.77694 -3.31585 4.94121e-16)
(4.20619 -5.0849 -5.01132e-17)
(5.70294 -6.76448 0)
(7.08657 -8.63749 -1.48013e-14)
(8.60862 -10.5893 5.74936e-15)
(10.1644 -12.8095 -5.67622e-15)
(12.5791 -15.2435 4.95256e-15)
(14.3482 -15.3669 -1.09172e-16)
(9.94204 -19.271 -2.01778e-16)
(34.3207 -25.2175 -4.00527e-15)
(4.17564 -2.46286 3.01497e-15)
(4.74614 -4.66183 -5.68291e-15)
(6.16527 -6.23249 0)
(7.7041 -8.04103 0)
(9.39178 -9.94036 0)
(11.0972 -12.1021 -2.66008e-15)
(13.7045 -14.4443 1.09443e-14)
(15.2463 -14.9439 0)
(11.788 -20.1011 0)
(35.7514 -21.8322 0)
(4.27726 -2.5521 -2.94468e-15)
(5.0808 -4.27731 -5.4559e-15)
(6.50652 -5.73178 0)
(8.15835 -7.45488 3.76146e-15)
(9.97952 -9.25126 -2.9235e-15)
(11.7874 -11.3432 2.53e-15)
(14.5118 -13.5607 3.82281e-15)
(15.951 -13.8854 1.36563e-16)
(13.1106 -20.0182 1.31551e-15)
(36.6563 -20.1739 0)
(4.1877 -2.42115 5.18882e-17)
(5.38791 -3.79208 1.32005e-16)
(6.78706 -5.20259 0)
(8.50624 -6.83434 3.00889e-16)
(10.4632 -8.47749 5.53526e-15)
(12.3953 -10.4103 -4.11006e-15)
(15.1711 -12.463 -1.10677e-14)
(16.6821 -12.3637 -5.62939e-15)
(14.3697 -18.9492 8.54532e-15)
(37.412 -17.8734 3.70335e-15)
(3.79374 -2.68072 -1.2055e-14)
(5.31205 -3.66948 4.80519e-15)
(6.8638 -5.00856 0)
(8.72215 -6.558 -6.23354e-15)
(10.8381 -8.11544 -5.3036e-15)
(12.9375 -9.88607 8.26688e-15)
(15.825 -11.8398 3.10968e-15)
(17.368 -12.115 0)
(16.2909 -17.3476 -5.04533e-15)
(38.1188 -14.9412 -6.16328e-16)
(3.7794 -2.63937 -2.8266e-16)
(5.30734 -3.46144 4.72305e-15)
(6.95171 -4.64404 0)
(8.93201 -6.04482 1.2556e-14)
(11.1844 -7.46438 8.70641e-17)
(13.4409 -9.06638 -1.51367e-16)
(16.4025 -10.8168 5.53717e-15)
(17.9527 -11.4172 -4.92472e-15)
(18.2048 -16.669 -3.35313e-15)
(38.8094 -12.3501 0)
(3.89357 -2.45383 -2.90427e-15)
(5.36334 -3.16321 9.12305e-15)
(7.06183 -4.20714 7.62279e-15)
(9.14229 -5.45836 -8.7773e-15)
(11.5078 -6.73646 -1.42584e-14)
(13.9084 -8.1655 7.91066e-17)
(16.9606 -9.68327 -2.70257e-15)
(18.442 -10.509 -1.98537e-15)
(19.976 -15.66 -3.71767e-15)
(39.5937 -9.20919 -4.29729e-15)
(3.94 -2.14983 -8.15426e-15)
(5.393 -2.79563 4.38485e-15)
(7.15077 -3.71188 -3.45671e-15)
(9.32176 -4.80604 -8.74575e-15)
(11.7807 -5.93651 6.98954e-15)
(14.314 -7.16952 1.18349e-16)
(17.3803 -8.4305 5.33069e-15)
(18.8292 -9.54331 1.82075e-15)
(21.7245 -14.5563 2.19293e-15)
(40.4675 -6.01701 9.19567e-16)
(3.90652 -1.77389 2.45671e-15)
(5.38692 -2.36499 -2.21817e-15)
(7.21817 -3.16006 -3.87089e-17)
(9.4687 -4.09509 8.592e-15)
(12.002 -5.0707 -1.11751e-14)
(14.6541 -6.0922 3.4482e-15)
(17.6919 -7.04924 -2.28809e-15)
(19.1294 -8.4593 5.44718e-15)
(23.4138 -13.2224 0)
(41.3002 -2.6951 -2.04119e-16)
(3.8108 -1.37258 2.65583e-15)
(5.33496 -1.90157 2.22095e-15)
(7.24067 -2.56739 3.64592e-15)
(9.55736 -3.3309 -5.56469e-15)
(12.1504 -4.13486 2.16096e-15)
(14.9102 -4.95333 0)
(17.9042 -5.59209 -1.21982e-15)
(19.3838 -7.23873 -3.08937e-15)
(24.8727 -11.6447 1.83359e-16)
(42.1079 0.419062 4.17474e-15)
(3.68907 -0.977742 1.21748e-15)
(5.25652 -1.40943 0)
(7.2369 -1.91683 1.81617e-15)
(9.61487 -2.49092 1.45825e-15)
(12.2483 -3.10466 1.90005e-17)
(15.0943 -3.69453 -8.32857e-16)
(18.1282 -4.13073 1.18768e-15)
(19.7119 -5.64386 0)
(25.5707 -10.2391 9.34409e-16)
(42.2316 4.69249 5.00955e-15)
(3.65505 -0.573233 1.35538e-15)
(5.29392 -0.806907 -2.30554e-15)
(7.36077 -1.03111 -1.15374e-16)
(9.80158 -1.30183 6.48439e-16)
(12.4904 -1.64136 -1.62259e-17)
(15.4226 -2.07243 8.3324e-16)
(18.5955 -2.12601 -1.15194e-15)
(20.6132 -3.12766 2.33414e-16)
(26.593 -8.86569 1.67966e-15)
(44.0727 10.2591 -3.03038e-15)
(3.5913 0.0217517 2.07595e-29)
(5.42016 0.0652149 0)
(7.58199 0.244732 0)
(9.95882 0.452927 -7.66471e-16)
(12.5288 0.548469 0)
(15.4087 0.68488 0)
(18.3946 1.39321 6.99625e-16)
(20.1785 1.22898 0)
(23.1377 -5.67403 0)
(45.2257 6.4988 -1.18719e-29)
(1.52117 -1.17531 7.89162e-16)
(1.98499 -1.4926 -7.56045e-15)
(2.39658 -1.939 7.11858e-15)
(2.68344 -1.86041 -9.50193e-15)
(2.83481 -1.61383 5.85716e-15)
(2.82258 -1.27814 -1.15522e-14)
(2.70019 -0.931578 2.86414e-15)
(2.51061 -0.599642 -3.03791e-15)
(2.37007 -0.285767 0)
(2.14001 0.133094 -3.79239e-16)
(-0.167135 -0.901021 1.53674e-14)
(0.231469 -1.01221 0)
(1.02339 -1.5596 8.02413e-15)
(1.46566 -1.45352 -3.26127e-15)
(1.73029 -1.18209 -9.75818e-15)
(1.81044 -0.845646 0)
(1.73617 -0.514092 -2.95343e-15)
(1.56104 -0.226835 -1.27078e-15)
(1.38264 0.0366152 8.89546e-16)
(1.11439 0.296822 -3.95419e-16)
(-0.952359 -0.812681 -1.28254e-14)
(-0.977518 -0.981348 0)
(-0.242354 -1.27233 7.82843e-15)
(0.271865 -1.079 3.29724e-16)
(0.624244 -0.735042 8.50763e-15)
(0.813254 -0.406062 -3.64234e-15)
(0.821743 -0.0974262 0)
(0.718838 0.136951 3.35294e-15)
(0.583343 0.336401 -5.56048e-16)
(0.420077 0.47045 4.43447e-16)
(-0.844722 -0.709774 5.86236e-15)
(-1.54344 -0.913982 -2.92771e-15)
(-1.16838 -1.04471 6.40851e-15)
(-0.818025 -0.7383 -7.22216e-15)
(-0.504963 -0.318562 6.47845e-16)
(-0.277867 0.0685102 4.15019e-15)
(-0.151244 0.324403 -1.09633e-14)
(-0.13688 0.499566 1.81079e-15)
(-0.177362 0.62285 2.65321e-15)
(-0.210319 0.697948 6.99537e-17)
(-0.520033 -0.566592 -8.84398e-15)
(-1.46394 -0.74631 8.52755e-15)
(-1.52225 -0.804735 0)
(-1.40796 -0.530837 2.49021e-15)
(-1.1934 -0.167069 2.6123e-15)
(-0.986436 0.190616 -2.4173e-16)
(-0.81624 0.429348 1.81939e-15)
(-0.739058 0.592357 3.71991e-15)
(-0.704365 0.681377 -3.06156e-17)
(-0.678091 0.728725 3.13179e-16)
(-0.239503 -0.405653 -3.55509e-15)
(-1.14428 -0.529429 6.96322e-15)
(-1.36243 -0.541752 2.32734e-15)
(-1.51306 -0.319385 -3.97502e-15)
(-1.48979 -0.0257701 -2.21589e-15)
(-1.40504 0.272463 -3.00482e-16)
(-1.27627 0.48659 -3.54519e-15)
(-1.16801 0.61888 1.05564e-15)
(-1.08271 0.685963 3.03447e-16)
(-0.995098 0.723252 -3.34886e-16)
(-0.0598188 -0.241532 0)
(-0.785147 -0.318995 -2.35061e-15)
(-1.00845 -0.278816 5.45815e-16)
(-1.27667 -0.105315 -8.88545e-16)
(-1.40946 0.0928862 1.51955e-15)
(-1.43555 0.290703 0)
(-1.39636 0.440988 8.19247e-16)
(-1.31861 0.529693 1.13899e-15)
(-1.22639 0.574334 -1.01507e-15)
(-1.1114 0.601341 -2.64018e-17)
(0.0356013 -0.0827089 0)
(-0.470422 -0.102636 -6.29855e-16)
(-0.671183 -0.0286228 3.78291e-15)
(-0.929836 0.0883171 -2.73781e-15)
(-1.11406 0.189162 0)
(-1.20772 0.28193 -4.19554e-16)
(-1.22625 0.347743 -9.65194e-16)
(-1.19247 0.376677 7.92226e-16)
(-1.12065 0.391309 7.59305e-16)
(-1.00433 0.398949 -2.84119e-16)
(0.109942 0.0153852 -9.1843e-16)
(-0.174577 0.0727201 6.10153e-16)
(-0.370394 0.114735 5.75062e-16)
(-0.587641 0.130169 -5.28851e-16)
(-0.743267 0.128311 0)
(-0.827908 0.129387 4.53798e-16)
(-0.848338 0.129472 6.18284e-16)
(-0.81934 0.125555 -7.17557e-16)
(-0.743678 0.125053 -1.40398e-16)
(-0.625349 0.102308 1.00429e-17)
(0.515852 0.418905 -2.55639e-16)
(0.730088 0.695046 1.09461e-16)
(0.715403 0.69174 9.0254e-17)
(0.653168 0.628456 0)
(0.578228 0.590535 -3.2664e-17)
(0.50702 0.583608 0)
(0.448826 0.595704 -1.11642e-16)
(0.41114 0.618428 1.5338e-16)
(0.40726 0.651693 3.01797e-17)
(0.395018 0.717345 -7.94773e-18)
)
;

boundaryField
{
    right
    {
        type            cyclic;
    }
    left
    {
        type            cyclic;
    }
    outerWall
    {
        type            noSlip;
    }
    stirrerWall
    {
        type            noSlip;
    }
    top
    {
        type            empty;
    }
    bottom
    {
        type            empty;
    }
}


// ************************************************************************* //
