/*--------------------------------*- C++ -*----------------------------------*\
  =========                 |
  \\      /  F ield         | OpenFOAM: The Open Source CFD Toolbox
   \\    /   O peration     | Website:  https://openfoam.org
    \\  /    A nd           | Version:  10
     \\/     M anipulation  |
\*---------------------------------------------------------------------------*/
FoamFile
{
    format      ascii;
    class       volVectorField;
    location    "32000";
    object      Urel;
}
// * * * * * * * * * * * * * * * * * * * * * * * * * * * * * * * * * * * * * //

dimensions      [0 1 -1 0 0 0 0];

internalField   nonuniform List<vector> 
17808
(
(4.08377 -4.47703 -7.36912e-18)
(3.71301 -4.0666 -8.24388e-19)
(3.54828 -3.8854 5.33264e-18)
(3.43445 -3.76415 5.72021e-18)
(3.34867 -3.67045 -1.33969e-18)
(3.27913 -3.59477 -9.4199e-18)
(3.22071 -3.53097 4.72119e-18)
(3.17017 -3.47567 -5.00312e-18)
(3.1255 -3.42671 8.40573e-18)
(3.08536 -3.38267 -2.08135e-21)
(3.04883 -3.34254 -3.78524e-18)
(3.01521 -3.30558 2.70218e-18)
(2.98402 -3.27126 -3.87298e-18)
(2.95485 -3.23915 4.1161e-19)
(2.92741 -3.20893 0)
(2.90146 -3.18034 3.79042e-19)
(2.8768 -3.15316 -7.29418e-19)
(2.85328 -3.12723 -7.02881e-19)
(2.83075 -3.10238 -3.05088e-18)
(2.80911 -3.07851 2.76855e-21)
(2.78826 -3.05551 2.53763e-18)
(2.76813 -3.0333 0)
(2.74863 -3.01179 2.38016e-18)
(2.72972 -2.99091 -2.31262e-18)
(2.71134 -2.97062 2.24347e-18)
(2.69344 -2.95087 -2.72928e-18)
(2.67598 -2.93159 -5.3072e-19)
(2.65892 -2.91277 0)
(2.64224 -2.89435 -5.0334e-19)
(2.6259 -2.87631 -4.90571e-19)
(2.60988 -2.85862 1.91229e-18)
(2.59414 -2.84126 -1.40197e-18)
(2.57868 -2.82419 0)
(2.56347 -2.8074 0)
(2.54849 -2.79087 4.34795e-19)
(2.53373 -2.77458 2.12328e-18)
(2.51917 -2.75851 -1.24787e-18)
(2.50479 -2.74266 0)
(2.49059 -2.72699 -1.58817e-18)
(2.47655 -2.71151 3.04919e-21)
(2.46267 -2.69619 2.28479e-18)
(2.44892 -2.68103 2.23331e-18)
(2.4353 -2.66602 -1.46018e-18)
(2.42181 -2.65115 7.14054e-19)
(2.40843 -2.6364 0)
(2.39515 -2.62177 -6.84785e-19)
(2.38197 -2.60725 2.01056e-18)
(2.36888 -2.59283 -2.62937e-18)
(2.35588 -2.57851 6.4351e-19)
(2.34295 -2.56427 0)
(2.33009 -2.55011 0)
(2.3173 -2.53603 1.81293e-18)
(2.30456 -2.52202 -5.94095e-19)
(2.29189 -2.50807 0)
(2.27926 -2.49418 5.68402e-19)
(2.26667 -2.48034 5.56711e-19)
(2.25413 -2.46655 -5.45201e-19)
(2.24162 -2.4528 -5.33865e-19)
(2.22914 -2.43908 -5.22727e-19)
(2.21669 -2.4254 1.02188e-18)
(2.20427 -2.41174 -1.64597e-21)
(2.19186 -2.39811 9.79002e-19)
(2.17947 -2.3845 -9.61376e-19)
(2.16708 -2.37091 -9.39052e-19)
(2.15471 -2.35732 -1.83565e-18)
(2.14234 -2.34375 8.98544e-19)
(2.12997 -2.33017 -1.75915e-18)
(2.1176 -2.3166 1.71836e-18)
(2.10523 -2.30302 0)
(2.09285 -2.28944 8.20858e-19)
(2.08045 -2.27585 1.60241e-18)
(2.06804 -2.26224 -7.86912e-19)
(2.05561 -2.24861 -7.66924e-19)
(2.04316 -2.23497 7.47182e-19)
(2.03069 -2.2213 -1.69865e-21)
(2.01819 -2.2076 -2.13536e-18)
(2.00566 -2.19387 1.39061e-18)
(1.99309 -2.18011 0)
(1.9805 -2.16632 -6.6219e-19)
(1.96786 -2.15248 -1.93328e-18)
(1.95518 -2.1386 0)
(1.94246 -2.12467 0)
(1.92969 -2.1107 1.19079e-18)
(1.91687 -2.09667 0)
(1.904 -2.08258 1.12855e-18)
(1.89107 -2.06844 0)
(1.87808 -2.05424 -2.41762e-23)
(1.86503 -2.03997 0)
(1.85192 -2.02563 0)
(1.83874 -2.01122 9.81364e-19)
(1.82549 -1.99673 1.90682e-18)
(1.81216 -1.98217 1.85189e-18)
(4.07047 -4.47784 -8.23767e-19)
(3.70407 -4.0674 8.15537e-19)
(3.53892 -3.88904 0)
(3.42669 -3.76772 0)
(3.34159 -3.67448 1.33389e-18)
(3.27236 -3.59931 -6.23967e-19)
(3.21411 -3.53593 4.68394e-18)
(3.16364 -3.48099 -3.85896e-18)
(3.11899 -3.43232 -5.20434e-19)
(3.07885 -3.38851 3.9401e-18)
(3.04229 -3.34856 -4.21155e-18)
(3.00866 -3.31174 8.90853e-19)
(2.97744 -3.27752 4.25101e-19)
(2.94825 -3.2455 -4.06625e-19)
(2.9208 -3.21533 0)
(2.89484 -3.18678 -3.74282e-19)
(2.87017 -3.15963 3.60051e-19)
(2.84664 -3.13371 3.46913e-19)
(2.82411 -3.10887 0)
(2.80247 -3.085 0)
(2.78163 -3.06199 0)
(2.7615 -3.03976 -6.06068e-19)
(2.74202 -3.01824 0)
(2.72312 -2.99735 -5.70291e-19)
(2.70475 -2.97703 0)
(2.68686 -2.95725 5.3857e-19)
(2.66942 -2.93795 5.24044e-19)
(2.65238 -2.9191 0)
(2.63571 -2.90066 -1.98688e-18)
(2.61939 -2.88259 4.87483e-19)
(2.60338 -2.86487 1.41944e-18)
(2.58767 -2.84748 -4.61281e-19)
(2.57223 -2.83038 1.80015e-18)
(2.55704 -2.81356 -3.9596e-18)
(2.54208 -2.797 1.29124e-18)
(2.52734 -2.78068 -4.20273e-19)
(2.5128 -2.76458 -8.21991e-19)
(2.49845 -2.74869 0)
(2.48427 -2.733 0)
(2.47026 -2.71748 1.92345e-18)
(2.45639 -2.70213 -1.50904e-18)
(2.44267 -2.68694 -4.03565e-23)
(2.42908 -2.6719 -7.22766e-19)
(2.41561 -2.65699 -1.41578e-18)
(2.40225 -2.64221 -6.91891e-19)
(2.389 -2.62755 2.03958e-18)
(2.37585 -2.613 -1.32963e-18)
(2.36278 -2.59855 1.95813e-18)
(2.34981 -2.58419 -1.91562e-18)
(2.3369 -2.56993 1.25408e-18)
(2.32407 -2.55574 -1.2258e-18)
(2.31131 -2.54163 1.20439e-18)
(2.2986 -2.52758 -5.89353e-19)
(2.28595 -2.5136 0)
(2.27335 -2.49968 -5.65903e-19)
(2.2608 -2.48581 0)
(2.24828 -2.47198 0)
(2.2358 -2.4582 5.32231e-19)
(2.22335 -2.44445 1.65214e-21)
(2.21093 -2.43074 1.02298e-18)
(2.19853 -2.41705 -1.00025e-18)
(2.18615 -2.40339 9.79485e-19)
(2.17379 -2.38975 0)
(2.16143 -2.37612 0)
(2.14909 -2.36251 1.83617e-18)
(2.13675 -2.3489 -8.99294e-19)
(2.12441 -2.33529 1.76151e-18)
(2.11207 -2.32169 -1.70703e-21)
(2.09973 -2.30808 -8.43581e-19)
(2.08738 -2.29447 0)
(2.07501 -2.28084 -1.60797e-18)
(2.06263 -2.2672 3.14661e-18)
(2.05023 -2.25355 -3.41772e-21)
(2.03781 -2.23987 -3.42159e-21)
(2.02537 -2.22617 -1.70245e-21)
(2.0129 -2.21244 7.14497e-19)
(2.0004 -2.19868 -1.40002e-18)
(1.98787 -2.18489 6.8232e-19)
(1.97531 -2.17106 1.32972e-18)
(1.9627 -2.15719 -6.51032e-19)
(1.95006 -2.14328 6.31433e-19)
(1.93737 -2.12932 -1.85329e-18)
(1.92463 -2.11532 1.80268e-18)
(1.91184 -2.10126 -3.41711e-21)
(1.899 -2.08714 -1.14135e-18)
(1.88611 -2.07297 5.57321e-19)
(1.87315 -2.05873 -2.16315e-18)
(1.86014 -2.04443 0)
(1.84706 -2.03006 0)
(1.83391 -2.01561 -1.99068e-18)
(1.82069 -2.0011 -1.4496e-18)
(1.8074 -1.9865 -9.36822e-19)
(4.05797 -4.48406 1.64679e-18)
(3.69175 -4.07374 1.3018e-17)
(3.52675 -3.89568 -2.43223e-17)
(3.41598 -3.77347 1.13638e-17)
(3.33148 -3.68034 -6.62411e-19)
(3.26287 -3.60519 0)
(3.20514 -3.54186 0)
(3.15508 -3.48698 0)
(3.11077 -3.43839 -7.72126e-18)
(3.07089 -3.39466 7.79808e-18)
(3.03454 -3.35479 4.6228e-19)
(3.00107 -3.31804 9.74181e-23)
(2.96998 -3.28388 6.7125e-18)
(2.94089 -3.25191 -1.3243e-17)
(2.91352 -3.22179 6.15508e-18)
(2.88763 -3.19327 5.53481e-18)
(2.86302 -3.16614 -5.32849e-18)
(2.83953 -3.14023 0)
(2.81705 -3.1154 0)
(2.79544 -3.09154 0)
(2.77463 -3.06853 0)
(2.75454 -3.0463 1.19482e-18)
(2.73508 -3.02476 0)
(2.71621 -3.00386 5.62149e-19)
(2.69786 -2.98353 0)
(2.68 -2.96373 -5.30917e-19)
(2.66258 -2.94441 0)
(2.64557 -2.92554 2.01054e-18)
(2.62893 -2.90707 -1.96178e-18)
(2.61263 -2.88898 4.77821e-19)
(2.59665 -2.87124 -4.6613e-19)
(2.58096 -2.85382 2.27346e-18)
(2.56554 -2.83669 -2.87087e-21)
(2.55037 -2.81985 -1.30361e-18)
(2.53544 -2.80326 1.27127e-18)
(2.52073 -2.78691 -1.24582e-18)
(2.50621 -2.77078 4.05713e-19)
(2.49189 -2.75486 0)
(2.47773 -2.73913 0)
(2.46375 -2.72359 -2.28017e-18)
(2.44991 -2.70821 2.99169e-21)
(2.43621 -2.69299 2.97522e-21)
(2.42265 -2.67791 2.14468e-18)
(2.4092 -2.66298 -1.39822e-18)
(2.39587 -2.64816 6.8728e-19)
(2.38265 -2.63347 0)
(2.36952 -2.61889 0)
(2.35649 -2.60441 0)
(2.34354 -2.59002 1.56654e-21)
(2.33066 -2.57572 6.21808e-19)
(2.31786 -2.5615 0)
(2.30512 -2.54736 5.9599e-19)
(2.29245 -2.53328 -1.16689e-18)
(2.27983 -2.51927 1.7197e-18)
(2.26725 -2.50531 1.12114e-18)
(2.25473 -2.49141 -1.10211e-18)
(2.24224 -2.47755 -1.07699e-18)
(2.22979 -2.46374 5.30174e-19)
(2.21737 -2.44996 -5.17954e-19)
(2.20498 -2.43622 5.07507e-19)
(2.19261 -2.4225 9.94482e-19)
(2.18026 -2.40881 -9.74218e-19)
(2.16793 -2.39513 0)
(2.15561 -2.38147 0)
(2.14329 -2.36783 -2.1755e-23)
(2.13098 -2.35419 -1.79008e-18)
(2.11868 -2.34055 8.78613e-19)
(2.10637 -2.32691 -8.56535e-19)
(2.09405 -2.31328 2.51925e-18)
(2.08173 -2.29963 -1.70279e-21)
(2.0694 -2.28597 8.03483e-19)
(2.05705 -2.2723 -7.85698e-19)
(2.04469 -2.25861 0)
(2.0323 -2.24491 0)
(2.01989 -2.23117 0)
(2.00745 -2.21741 7.14901e-19)
(1.99499 -2.20362 -7.01574e-19)
(1.98249 -2.1898 -6.83344e-19)
(1.96995 -2.17594 0)
(1.95738 -2.16204 0)
(1.94477 -2.14809 -1.90316e-18)
(1.93211 -2.1341 3.098e-18)
(1.91941 -2.12006 -2.34618e-23)
(1.90666 -2.10597 0)
(1.89385 -2.09182 -5.71666e-19)
(1.88099 -2.07761 3.4243e-21)
(1.86807 -2.06334 5.45588e-19)
(1.85509 -2.04901 -1.05883e-18)
(1.84204 -2.03461 -1.03038e-18)
(1.82893 -2.02013 1.50189e-18)
(1.81575 -2.00558 -3.39174e-21)
(1.8025 -1.99095 4.72151e-19)
(4.04703 -4.49321 1.15238e-17)
(3.68059 -4.08275 1.21688e-17)
(3.51613 -3.90381 -1.28628e-17)
(3.406 -3.78097 7.05686e-19)
(3.32163 -3.68778 0)
(3.25334 -3.61242 0)
(3.19588 -3.54894 0)
(3.14608 -3.49395 8.64171e-18)
(3.10199 -3.44528 -1.6296e-17)
(3.06232 -3.40149 1.54094e-17)
(3.02616 -3.36157 -7.31038e-18)
(2.99286 -3.32479 6.51326e-18)
(2.96191 -3.29062 -6.6305e-18)
(2.93296 -3.25863 3.95912e-19)
(2.9057 -3.2285 6.44503e-18)
(2.8799 -3.19998 -5.46333e-18)
(2.85538 -3.17284 5.59815e-18)
(2.83197 -3.14693 -3.4259e-19)
(2.80955 -3.1221 -5.20674e-18)
(2.78801 -3.09822 -3.1421e-19)
(2.76726 -3.0752 0)
(2.74721 -3.05296 -1.17735e-18)
(2.7278 -3.03141 0)
(2.70897 -3.01049 0)
(2.69066 -2.99015 -4.83989e-18)
(2.67284 -2.97033 4.18795e-18)
(2.65545 -2.951 0)
(2.63847 -2.9321 0)
(2.62186 -2.91361 0)
(2.6056 -2.8955 -9.41996e-19)
(2.58965 -2.87773 4.59533e-19)
(2.57399 -2.86029 0)
(2.5586 -2.84314 0)
(2.54347 -2.82626 0)
(2.52856 -2.80965 -2.50784e-18)
(2.51388 -2.79327 3.68572e-18)
(2.49939 -2.77711 0)
(2.48509 -2.76116 0)
(2.47097 -2.74541 0)
(2.45701 -2.72983 3.37609e-18)
(2.4432 -2.71443 -5.90667e-21)
(2.42954 -2.69917 -7.2038e-18)
(2.416 -2.68407 4.94062e-18)
(2.40259 -2.6691 -2.07792e-18)
(2.38928 -2.65426 0)
(2.37609 -2.63953 6.64445e-19)
(2.36299 -2.62492 2.60245e-18)
(2.34999 -2.61041 -2.55751e-18)
(2.33706 -2.59599 -6.26155e-19)
(2.32422 -2.58166 3.06665e-18)
(2.31145 -2.56741 -1.20871e-18)
(2.29874 -2.55323 -1.18379e-18)
(2.28609 -2.53913 -1.15931e-18)
(2.2735 -2.52508 -1.58976e-21)
(2.26096 -2.51109 -1.67133e-18)
(2.24846 -2.49716 0)
(2.23601 -2.48327 5.33466e-19)
(2.22359 -2.46942 -1.05076e-18)
(2.2112 -2.45561 -1.54112e-18)
(2.19884 -2.44184 5.05701e-19)
(2.1865 -2.42809 9.88101e-19)
(2.17418 -2.41436 1.63768e-21)
(2.16188 -2.40066 3.3049e-21)
(2.14959 -2.38696 9.31286e-19)
(2.13731 -2.37329 -9.10663e-19)
(2.12503 -2.35961 8.91907e-19)
(2.11276 -2.34595 0)
(2.10048 -2.33228 -8.53457e-19)
(2.0882 -2.31861 -8.33726e-19)
(2.07591 -2.30493 1.68045e-21)
(2.06361 -2.29124 -1.60157e-18)
(2.05129 -2.27754 1.57012e-18)
(2.03896 -2.26382 0)
(2.02661 -2.25007 -1.70398e-21)
(2.01423 -2.23631 -1.46804e-18)
(2.00183 -2.22252 7.16544e-19)
(1.9894 -2.20869 7.00133e-19)
(1.97693 -2.19484 6.8389e-19)
(1.96443 -2.18094 0)
(1.95189 -2.16701 0)
(1.93931 -2.15303 1.27275e-18)
(1.92669 -2.13901 -2.48365e-18)
(1.91402 -2.12494 -1.21132e-18)
(1.90131 -2.11081 1.18117e-18)
(1.88853 -2.09663 1.72544e-18)
(1.87571 -2.08239 5.59329e-19)
(1.86282 -2.06808 1.09319e-18)
(1.84988 -2.05371 5.30631e-19)
(1.83687 -2.03928 1.03313e-18)
(1.8238 -2.02477 -5.06129e-19)
(1.81065 -2.01018 4.89067e-19)
(1.79743 -1.99552 -3.42716e-21)
(4.0356 -4.50283 1.3976e-17)
(3.66944 -4.09227 -1.29456e-17)
(3.50583 -3.9123 -1.12867e-17)
(3.39607 -3.78915 2.10284e-17)
(3.3119 -3.69579 -9.79304e-18)
(3.24388 -3.62019 1.03449e-17)
(3.18662 -3.55655 -1.82197e-17)
(3.13699 -3.50143 5.70212e-21)
(3.09306 -3.45265 8.05677e-18)
(3.05353 -3.40877 0)
(3.01751 -3.36877 0)
(2.98433 -3.33194 -4.28757e-19)
(2.9535 -3.29771 -4.08698e-19)
(2.92466 -3.26568 3.90522e-19)
(2.8975 -3.23552 3.57534e-23)
(2.8718 -3.20696 -3.58872e-19)
(2.84736 -3.1798 -6.90004e-19)
(2.82404 -3.15386 -1.96722e-23)
(2.80169 -3.129 0)
(2.78022 -3.10511 3.09545e-19)
(2.75953 -3.08207 4.78772e-18)
(2.73954 -3.0598 -4.06186e-18)
(2.72019 -3.03824 0)
(2.70141 -3.0173 4.90774e-18)
(2.68315 -2.99693 -3.71284e-18)
(2.66537 -2.9771 -4.11998e-18)
(2.64803 -2.95774 4.01451e-18)
(2.63109 -2.93882 4.88353e-19)
(2.61453 -2.92031 0)
(2.5983 -2.90217 4.64095e-19)
(2.58238 -2.88438 0)
(2.56676 -2.8669 0)
(2.55141 -2.84973 -3.45181e-18)
(2.53631 -2.83283 2.95681e-18)
(2.52144 -2.81619 -8.2516e-19)
(2.50679 -2.79978 -3.22539e-18)
(2.49233 -2.7836 2.7666e-18)
(2.47807 -2.76762 -3.86427e-19)
(2.46398 -2.75183 -3.02381e-18)
(2.45005 -2.73623 2.96701e-18)
(2.43627 -2.72079 -2.90065e-18)
(2.42264 -2.70551 3.55907e-18)
(2.40913 -2.69037 -2.78504e-18)
(2.39575 -2.67537 5.9309e-21)
(2.38248 -2.6605 4.68816e-18)
(2.36931 -2.64575 -3.28627e-18)
(2.35625 -2.6311 0)
(2.34327 -2.61656 2.52277e-18)
(2.33038 -2.60211 -2.48024e-18)
(2.31757 -2.58774 0)
(2.30483 -2.57346 -5.95779e-19)
(2.29215 -2.55926 1.1688e-18)
(2.27954 -2.54512 -2.2898e-18)
(2.26698 -2.53104 5.0605e-18)
(2.25447 -2.51702 -1.65771e-18)
(2.242 -2.50305 -5.40951e-19)
(2.22958 -2.48913 2.64965e-18)
(2.21719 -2.47525 1.03428e-18)
(2.20483 -2.46141 5.03846e-19)
(2.1925 -2.4476 -6.47721e-21)
(2.1802 -2.43382 -5.88726e-18)
(2.16791 -2.42006 -9.55425e-19)
(2.15564 -2.40632 6.56765e-21)
(2.14338 -2.3926 1.8517e-18)
(2.13113 -2.37889 -2.71376e-18)
(2.11889 -2.36518 -1.76819e-18)
(2.10665 -2.35148 5.01269e-21)
(2.09441 -2.33778 8.53201e-19)
(2.08216 -2.32408 -8.32219e-19)
(2.0699 -2.31037 1.63464e-18)
(2.05763 -2.29664 0)
(2.04535 -2.28291 -1.56277e-18)
(2.03305 -2.26915 7.67096e-19)
(2.02073 -2.25538 1.71559e-21)
(2.00839 -2.24158 1.46629e-18)
(1.99602 -2.22776 -7.16018e-19)
(1.98363 -2.2139 0)
(1.9712 -2.20001 -1.36801e-18)
(1.95873 -2.18608 0)
(1.94623 -2.17211 -1.30543e-18)
(1.93369 -2.1581 0)
(1.9211 -2.14405 6.239e-19)
(1.90847 -2.12994 6.08878e-19)
(1.89578 -2.11578 -1.77527e-18)
(1.88305 -2.10156 -5.75979e-19)
(1.87026 -2.08729 -1.68801e-18)
(1.85741 -2.07295 -5.47246e-19)
(1.8445 -2.05854 1.06982e-18)
(1.83153 -2.04407 -5.19302e-19)
(1.81849 -2.02953 1.01811e-18)
(1.80539 -2.01491 -4.92127e-19)
(1.79221 -2.00021 -1.4434e-18)
(4.02349 -4.51273 0)
(3.65781 -4.10192 0)
(3.49506 -3.92102 1.12281e-17)
(3.38559 -3.79767 -5.90927e-21)
(3.30171 -3.70406 -1.1008e-17)
(3.23398 -3.62826 9.04232e-18)
(3.17693 -3.56447 -8.45533e-18)
(3.12749 -3.50922 0)
(3.08374 -3.46033 -4.97458e-19)
(3.04437 -3.41636 -7.98354e-18)
(3.00849 -3.37629 7.12465e-18)
(2.97543 -3.33938 8.4598e-19)
(2.94473 -3.30509 4.03027e-19)
(2.916 -3.27301 -6.92733e-18)
(2.88894 -3.2428 5.53174e-18)
(2.86334 -3.2142 3.53615e-19)
(2.83899 -3.187 3.39898e-19)
(2.81575 -3.16102 5.88858e-18)
(2.79348 -3.13613 -5.36085e-21)
(2.77209 -3.11221 -9.75565e-18)
(2.75147 -3.08914 4.72023e-18)
(2.73154 -3.06685 0)
(2.71225 -3.04525 -4.42607e-18)
(2.69353 -3.02429 5.36397e-21)
(2.67533 -3.0039 4.17799e-18)
(2.6576 -2.98403 5.07473e-19)
(2.64031 -2.96465 3.94799e-18)
(2.62342 -2.9457 -8.65696e-18)
(2.6069 -2.92717 7.49954e-18)
(2.59072 -2.909 -5.44172e-21)
(2.57485 -2.89118 -4.01735e-18)
(2.55926 -2.87368 0)
(2.54395 -2.85648 0)
(2.52889 -2.83955 4.15859e-19)
(2.51406 -2.82288 4.06632e-19)
(2.49944 -2.80645 -7.95538e-19)
(2.48503 -2.79023 9.95012e-24)
(2.4708 -2.77423 3.81052e-19)
(2.45674 -2.75841 0)
(2.44285 -2.74278 -3.28654e-18)
(2.4291 -2.72731 2.15146e-18)
(2.4155 -2.712 -2.8046e-18)
(2.40203 -2.69683 3.44283e-18)
(2.38868 -2.6818 2.69507e-18)
(2.37544 -2.6669 -2.64848e-18)
(2.36231 -2.65211 0)
(2.34928 -2.63743 0)
(2.33634 -2.62286 0)
(2.32348 -2.60838 0)
(2.3107 -2.59398 -6.00636e-19)
(2.29799 -2.57967 -1.76488e-18)
(2.28535 -2.56543 1.73772e-18)
(2.27276 -2.55126 0)
(2.26024 -2.53715 -5.56676e-19)
(2.24776 -2.5231 -2.18171e-18)
(2.23533 -2.5091 2.68276e-18)
(2.22294 -2.49514 5.25801e-19)
(2.21058 -2.48123 -1.25954e-23)
(2.19826 -2.46736 5.06051e-19)
(2.18596 -2.45351 0)
(2.17369 -2.4397 9.73797e-19)
(2.16144 -2.42591 0)
(2.1492 -2.41214 0)
(2.13698 -2.39838 -2.75145e-18)
(2.12476 -2.38463 4.50105e-18)
(2.11255 -2.3709 -8.85685e-19)
(2.10035 -2.35716 8.64802e-19)
(2.08814 -2.34343 0)
(2.07592 -2.32969 8.30192e-19)
(2.0637 -2.31594 8.09824e-19)
(2.05147 -2.30219 -3.18552e-18)
(2.03922 -2.28842 1.56288e-18)
(2.02696 -2.27463 0)
(2.01467 -2.26082 0)
(2.00237 -2.24699 7.30922e-19)
(1.99003 -2.23313 0)
(1.97767 -2.21924 6.99238e-19)
(1.96528 -2.20532 -6.8021e-19)
(1.95285 -2.19136 1.33991e-18)
(1.94038 -2.17735 -6.5124e-19)
(1.92788 -2.16331 1.91544e-18)
(1.91533 -2.14922 0)
(1.90273 -2.13507 -6.06522e-19)
(1.89008 -2.12088 5.95413e-19)
(1.87739 -2.10663 0)
(1.86464 -2.09232 -5.66788e-19)
(1.85183 -2.07794 1.65132e-18)
(1.83896 -2.0635 0)
(1.82602 -2.04899 0)
(1.81302 -2.03441 -1.52812e-18)
(1.79995 -2.01976 2.48485e-18)
(1.78681 -2.00502 9.66987e-19)
(4.011 -4.52312 0)
(3.64589 -4.11188 -8.03859e-19)
(3.48398 -3.93016 7.44558e-19)
(3.37474 -3.8066 6.9117e-19)
(3.29117 -3.71271 9.62498e-18)
(3.22369 -3.6367 -9.55806e-18)
(3.16685 -3.57276 9.87837e-23)
(3.1176 -3.51737 -8.35567e-18)
(3.07402 -3.46836 8.35591e-18)
(3.03481 -3.42429 -7.41781e-18)
(2.99907 -3.38412 1.40546e-17)
(2.96616 -3.34713 -4.22735e-19)
(2.93558 -3.31278 -5.51901e-21)
(2.90696 -3.28062 -6.07419e-18)
(2.88002 -3.25035 0)
(2.85451 -3.2217 0)
(2.83026 -3.19445 5.35391e-18)
(2.80711 -3.16843 -1.06362e-17)
(2.78493 -3.1435 4.97548e-18)
(2.76361 -3.11953 -4.7998e-18)
(2.74306 -3.09643 4.64696e-18)
(2.72321 -3.0741 0)
(2.70399 -3.05247 -4.35695e-18)
(2.68533 -3.03147 3.17581e-18)
(2.66719 -3.01105 4.10742e-18)
(2.64952 -2.99116 -4.4986e-18)
(2.63229 -2.97174 0)
(2.61545 -2.95277 4.7348e-19)
(2.59898 -2.9342 0)
(2.58285 -2.91601 0)
(2.56702 -2.89816 4.39254e-19)
(2.55149 -2.88063 -3.42869e-18)
(2.53622 -2.8634 3.35524e-18)
(2.5212 -2.84644 -2.86472e-18)
(2.50641 -2.82974 3.20757e-18)
(2.49183 -2.81328 7.83872e-19)
(2.47746 -2.79704 -2.68243e-18)
(2.46327 -2.781 5.6337e-18)
(2.44925 -2.76515 -2.94557e-18)
(2.43539 -2.74949 3.60385e-19)
(2.42169 -2.73399 1.41264e-18)
(2.40812 -2.71865 -2.7665e-18)
(2.39469 -2.70345 2.03922e-18)
(2.38137 -2.68839 0)
(2.36817 -2.67345 1.30569e-18)
(2.35508 -2.65864 0)
(2.34208 -2.64393 1.88191e-18)
(2.32917 -2.62932 -6.22383e-19)
(2.31635 -2.6148 -2.42268e-18)
(2.3036 -2.60038 5.93657e-19)
(2.29093 -2.58603 0)
(2.27832 -2.57176 0)
(2.26577 -2.55756 0)
(2.25328 -2.54341 5.50856e-19)
(2.24084 -2.52933 -2.15953e-18)
(2.22844 -2.5153 4.24513e-18)
(2.21608 -2.50131 -4.68718e-18)
(2.20376 -2.48736 -5.04822e-19)
(2.19147 -2.47346 1.00631e-18)
(2.17921 -2.45958 -1.96555e-18)
(2.16697 -2.44573 6.40445e-21)
(2.15476 -2.43191 1.89839e-18)
(2.14255 -2.4181 9.2956e-19)
(2.13037 -2.40431 9.11792e-19)
(2.11819 -2.39053 0)
(2.10601 -2.37676 2.62729e-18)
(2.09384 -2.36299 -6.60047e-21)
(2.08167 -2.34922 -1.68882e-18)
(2.06949 -2.33545 -8.26001e-19)
(2.0573 -2.32167 0)
(2.0451 -2.30788 0)
(2.03289 -2.29408 -7.76772e-19)
(2.02067 -2.28025 0)
(2.00842 -2.26641 -7.44818e-19)
(1.99615 -2.25254 -2.18388e-18)
(1.98385 -2.23865 7.20344e-19)
(1.97153 -2.22472 -6.91272e-19)
(1.95917 -2.21076 1.36914e-18)
(1.94678 -2.19677 -6.67758e-19)
(1.93435 -2.18273 1.30566e-18)
(1.92188 -2.16865 -1.2761e-18)
(1.90937 -2.15452 0)
(1.89681 -2.14034 0)
(1.8842 -2.12611 1.18928e-18)
(1.87155 -2.11182 0)
(1.85883 -2.09748 1.13304e-18)
(1.84606 -2.08307 -2.21077e-18)
(1.83323 -2.06859 0)
(1.82034 -2.05405 1.05109e-18)
(1.80738 -2.03943 0)
(1.79435 -2.02474 -9.98185e-19)
(1.78125 -2.00996 0)
(3.99815 -4.53401 1.3932e-17)
(3.63376 -4.12218 1.44145e-17)
(3.47263 -3.93971 -2.36919e-17)
(3.36363 -3.81591 5.81556e-21)
(3.28037 -3.72173 1.14547e-17)
(3.21313 -3.64553 -1.00479e-17)
(3.15649 -3.58142 -5.45475e-19)
(3.10743 -3.52588 8.26271e-18)
(3.064 -3.47675 8.24566e-18)
(3.02494 -3.43255 -1.41889e-17)
(2.98934 -3.39228 4.38851e-19)
(2.95655 -3.3552 6.1727e-18)
(2.92609 -3.32076 0)
(2.89759 -3.28854 3.7386e-19)
(2.87075 -3.25819 3.57771e-19)
(2.84535 -3.22948 0)
(2.82119 -3.20217 5.27148e-18)
(2.79813 -3.1761 -5.29659e-21)
(2.77604 -3.15111 -4.59159e-18)
(2.7548 -3.1271 2.95429e-19)
(2.73433 -3.10395 0)
(2.71456 -3.08158 -3.86974e-18)
(2.6954 -3.05991 3.75647e-18)
(2.67681 -3.03888 -1.68143e-23)
(2.65874 -3.01842 -4.0419e-18)
(2.64113 -2.99849 4.42694e-18)
(2.62396 -2.97904 0)
(2.60718 -2.96003 0)
(2.59076 -2.94143 -3.17667e-18)
(2.57468 -2.9232 5.29921e-21)
(2.55891 -2.90532 3.4617e-18)
(2.54342 -2.88776 0)
(2.5282 -2.8705 -3.29809e-18)
(2.51323 -2.85351 2.82622e-18)
(2.49849 -2.83678 -2.75892e-18)
(2.48395 -2.82028 2.70497e-18)
(2.46962 -2.80401 -3.77886e-19)
(2.45547 -2.78794 -2.58755e-18)
(2.4415 -2.77206 2.90265e-18)
(2.42768 -2.75637 0)
(2.41402 -2.74084 2.78233e-18)
(2.40049 -2.72546 -2.73337e-18)
(2.38709 -2.71023 0)
(2.37382 -2.69514 0)
(2.36066 -2.68017 -3.21772e-18)
(2.3476 -2.66532 1.89886e-18)
(2.33464 -2.65058 3.098e-18)
(2.32177 -2.63594 -4.26064e-18)
(2.30898 -2.62139 2.39265e-18)
(2.29627 -2.60693 0)
(2.28363 -2.59255 0)
(2.27106 -2.57825 2.82296e-18)
(2.25855 -2.56401 -2.22259e-18)
(2.24609 -2.54984 -5.44786e-19)
(2.23368 -2.53572 0)
(2.22132 -2.52165 -2.62258e-18)
(2.209 -2.50763 6.19749e-21)
(2.19672 -2.49365 1.52152e-18)
(2.18446 -2.47971 2.97802e-18)
(2.17224 -2.4658 -2.44176e-18)
(2.16004 -2.45192 9.57422e-19)
(2.14786 -2.43806 0)
(2.13569 -2.42422 -1.82509e-23)
(2.12354 -2.41039 0)
(2.1114 -2.39658 8.87719e-19)
(2.09926 -2.38277 8.67557e-19)
(2.08712 -2.36897 -1.71154e-18)
(2.07499 -2.35516 8.37618e-19)
(2.06284 -2.34136 8.21287e-19)
(2.0507 -2.32754 8.0513e-19)
(2.03854 -2.31372 -1.57495e-18)
(2.02636 -2.29988 2.32332e-18)
(2.01417 -2.28602 0)
(2.00196 -2.27214 7.42153e-19)
(1.98973 -2.25824 -7.26784e-19)
(1.97747 -2.24431 -1.42316e-18)
(1.96518 -2.23035 -6.96518e-19)
(1.95287 -2.21635 0)
(1.94051 -2.20232 6.66852e-19)
(1.92812 -2.18825 0)
(1.91569 -2.17413 1.2755e-18)
(1.90322 -2.15997 0)
(1.8907 -2.14575 0)
(1.87813 -2.13148 -1.18696e-18)
(1.86551 -2.11716 3.4802e-21)
(1.85284 -2.10278 1.13517e-18)
(1.84011 -2.08833 1.74064e-23)
(1.82732 -2.07381 -1.08114e-18)
(1.81447 -2.05923 -1.05461e-18)
(1.80155 -2.04458 -2.05325e-18)
(1.78856 -2.02984 1.00595e-18)
(1.7755 -2.01503 0)
(3.98486 -4.5453 -1.39102e-17)
(3.62134 -4.13278 1.19727e-17)
(3.46097 -3.94961 0)
(3.35223 -3.82555 1.08906e-17)
(3.26929 -3.73108 -1.13505e-17)
(3.20227 -3.65468 -6.13299e-23)
(3.14583 -3.59039 8.17442e-18)
(3.09695 -3.5347 -5.75493e-21)
(3.05369 -3.48543 -8.62449e-18)
(3.01477 -3.44112 0)
(2.9793 -3.40074 -4.27172e-19)
(2.94664 -3.36357 -6.48406e-18)
(2.91629 -3.32904 6.17683e-18)
(2.8879 -3.29673 0)
(2.86117 -3.26631 -3.5227e-19)
(2.83586 -3.23752 -3.37756e-19)
(2.8118 -3.21015 0)
(2.78883 -3.18402 -4.68136e-18)
(2.76682 -3.15898 9.33225e-18)
(2.74567 -3.13491 -9.59202e-18)
(2.72528 -3.11171 8.99367e-18)
(2.70558 -3.08929 -5.4939e-19)
(2.6865 -3.06758 -3.69543e-18)
(2.66798 -3.0465 5.11948e-19)
(2.64997 -3.026 0)
(2.63243 -3.00602 -4.83592e-19)
(2.61532 -2.98654 0)
(2.5986 -2.96749 4.12325e-18)
(2.58224 -2.94885 -4.02434e-18)
(2.56622 -2.93059 3.48451e-18)
(2.5505 -2.91267 -6.80748e-18)
(2.53507 -2.89508 3.74254e-18)
(2.5199 -2.87778 0)
(2.50497 -2.86076 3.17364e-18)
(2.49028 -2.84399 -6.99086e-18)
(2.47579 -2.82746 3.04333e-18)
(2.46151 -2.81116 2.50235e-24)
(2.44741 -2.79506 0)
(2.43347 -2.77915 -3.21082e-18)
(2.4197 -2.76342 5.48469e-21)
(2.40608 -2.74786 2.06108e-18)
(2.3926 -2.73245 0)
(2.37924 -2.71719 -2.63677e-18)
(2.36601 -2.70206 3.23969e-18)
(2.35288 -2.68706 0)
(2.33987 -2.67217 1.08934e-23)
(2.32694 -2.6574 -2.44472e-18)
(2.31411 -2.64273 4.20478e-18)
(2.30137 -2.62815 -2.9516e-18)
(2.28869 -2.61365 0)
(2.2761 -2.59924 5.68596e-19)
(2.26356 -2.5849 -5.58378e-19)
(2.25109 -2.57063 0)
(2.23867 -2.55642 -2.15107e-18)
(2.2263 -2.54227 2.11853e-18)
(2.21397 -2.52817 5.19412e-19)
(2.20169 -2.51411 0)
(2.18944 -2.5001 1.00187e-18)
(2.17723 -2.48612 -4.9192e-19)
(2.16504 -2.47218 9.22701e-24)
(2.15288 -2.45826 9.45387e-19)
(2.14073 -2.44436 -1.8657e-18)
(2.12861 -2.43049 -9.14233e-19)
(2.11649 -2.41663 -8.97383e-19)
(2.10439 -2.40278 -8.80771e-19)
(2.09229 -2.38894 0)
(2.08019 -2.3751 8.48075e-19)
(2.06809 -2.36126 -8.32021e-19)
(2.05599 -2.34742 -1.63223e-18)
(2.04388 -2.33357 -8.00392e-19)
(2.03176 -2.31971 -1.5663e-18)
(2.01962 -2.30583 2.31151e-18)
(2.00747 -2.29194 -1.50489e-18)
(1.9953 -2.27802 7.42369e-19)
(1.98311 -2.26408 2.16869e-18)
(1.97089 -2.25012 -7.12566e-19)
(1.95864 -2.23612 6.94489e-19)
(1.94636 -2.22209 -1.35642e-18)
(1.93405 -2.20802 1.3344e-18)
(1.9217 -2.19391 0)
(1.90931 -2.17975 -2.54816e-18)
(1.89687 -2.16555 -1.24602e-18)
(1.8844 -2.1513 1.21824e-18)
(1.87187 -2.13699 -2.3815e-18)
(1.85929 -2.12263 1.16353e-18)
(1.84666 -2.10821 -2.26965e-18)
(1.83397 -2.09373 2.22329e-18)
(1.82122 -2.07917 1.61879e-23)
(1.80841 -2.06455 1.05391e-18)
(1.79553 -2.04986 -3.48715e-21)
(1.78259 -2.03509 -1.0061e-18)
(1.76957 -2.02024 9.77405e-19)
(3.97112 -4.55697 -1.30758e-17)
(3.60857 -4.14364 -1.27165e-17)
(3.44893 -3.95983 5.44893e-21)
(3.34049 -3.83547 2.1615e-17)
(3.25786 -3.74072 -9.37098e-18)
(3.19108 -3.66411 9.83958e-18)
(3.13485 -3.59964 -8.08577e-18)
(3.08614 -3.5438 0)
(3.04304 -3.4944 4.72679e-19)
(3.00427 -3.44997 6.67769e-18)
(2.96894 -3.40948 -6.31942e-18)
(2.9364 -3.37221 7.98961e-19)
(2.90617 -3.33758 3.80099e-19)
(2.87789 -3.30519 -5.43644e-18)
(2.85126 -3.27469 5.89801e-18)
(2.82605 -3.24583 5.64816e-18)
(2.80209 -3.21839 -5.11078e-18)
(2.77921 -3.19219 4.91291e-18)
(2.75728 -3.16709 -4.74073e-18)
(2.73621 -3.14296 -2.8591e-19)
(2.71591 -3.11971 -4.4202e-18)
(2.69628 -3.09724 4.28436e-18)
(2.67727 -3.07547 5.18818e-19)
(2.65883 -3.05434 -5.03472e-19)
(2.64089 -3.0338 0)
(2.62342 -3.01378 -3.80205e-18)
(2.60637 -2.99425 3.70541e-18)
(2.58971 -2.97516 -4.5085e-19)
(2.57341 -2.95648 0)
(2.55745 -2.93818 3.85608e-18)
(2.54179 -2.92023 -3.76926e-18)
(2.52641 -2.9026 -4.08535e-18)
(2.5113 -2.88526 3.19879e-18)
(2.49643 -2.8682 -3.12273e-18)
(2.48178 -2.8514 3.4424e-18)
(2.46735 -2.83484 0)
(2.45311 -2.81849 3.66287e-19)
(2.43906 -2.80236 3.58794e-19)
(2.42517 -2.78641 -2.10678e-18)
(2.41145 -2.77065 5.51394e-18)
(2.39787 -2.75505 -6.81244e-19)
(2.38443 -2.73961 -4.63967e-18)
(2.37112 -2.72432 2.60366e-18)
(2.35793 -2.70915 1.27327e-18)
(2.34485 -2.69412 -2.50751e-18)
(2.33187 -2.6792 6.1467e-19)
(2.31899 -2.66439 2.41099e-18)
(2.3062 -2.64968 -1.18791e-18)
(2.2935 -2.63507 2.90655e-18)
(2.28087 -2.62054 -1.71733e-18)
(2.26831 -2.60609 -9.33283e-24)
(2.25581 -2.59172 0)
(2.24338 -2.57742 -2.1635e-18)
(2.231 -2.56317 2.66326e-18)
(2.21867 -2.54898 0)
(2.20639 -2.53485 0)
(2.19414 -2.52076 2.01465e-18)
(2.18193 -2.50671 -9.97144e-19)
(2.16976 -2.4927 -2.43684e-18)
(2.15761 -2.47872 -1.43126e-18)
(2.14548 -2.46476 1.88155e-18)
(2.13338 -2.45083 -9.22426e-19)
(2.12129 -2.43692 9.02713e-19)
(2.10922 -2.42303 -8.92662e-19)
(2.09715 -2.40914 -1.74348e-18)
(2.08509 -2.39526 1.71793e-18)
(2.07303 -2.38139 -1.68313e-18)
(2.06097 -2.36751 0)
(2.04891 -2.35363 3.23863e-18)
(2.03684 -2.33975 -1.59362e-18)
(2.02476 -2.32585 -1.55672e-18)
(2.01266 -2.31194 7.68309e-19)
(2.00055 -2.29801 0)
(1.98842 -2.28406 7.35408e-19)
(1.97627 -2.27008 0)
(1.96409 -2.25608 7.06332e-19)
(1.95188 -2.24204 6.88605e-19)
(1.93964 -2.22797 -1.35897e-18)
(1.92737 -2.21386 0)
(1.91506 -2.19972 6.49735e-19)
(1.90271 -2.18552 2.54361e-18)
(1.89032 -2.17128 1.24439e-18)
(1.87789 -2.15699 -1.21722e-18)
(1.8654 -2.14265 1.69089e-23)
(1.85287 -2.12825 0)
(1.84028 -2.11379 -1.13719e-18)
(1.82763 -2.09926 -3.48976e-21)
(1.81492 -2.08467 -3.48646e-21)
(1.80216 -2.07001 0)
(1.78932 -2.05528 -1.03416e-18)
(1.77642 -2.04047 2.01468e-18)
(1.76345 -2.02558 -3.51695e-21)
(3.95693 -4.56901 -1.30562e-17)
(3.59545 -4.15479 -1.26661e-17)
(3.43652 -3.97037 2.32572e-17)
(3.3284 -3.8457 -1.07226e-17)
(3.24608 -3.75066 0)
(3.17954 -3.67384 0)
(3.12352 -3.60919 0)
(3.075 -3.55319 7.95345e-18)
(3.03206 -3.50365 -7.46462e-18)
(2.99344 -3.4591 4.39114e-19)
(2.95824 -3.4185 6.63732e-18)
(2.92583 -3.38112 -3.9886e-19)
(2.89572 -3.3464 -1.23506e-17)
(2.86754 -3.31392 5.35673e-18)
(2.84102 -3.28334 -6.82548e-19)
(2.81592 -3.2544 5.55711e-18)
(2.79204 -3.22688 3.0893e-19)
(2.76925 -3.20061 -5.13924e-18)
(2.74742 -3.17545 0)
(2.72643 -3.15126 5.05777e-18)
(2.70621 -3.12795 -4.35107e-18)
(2.68666 -3.10542 5.26226e-19)
(2.66773 -3.0836 -5.10042e-19)
(2.64935 -3.06242 4.94945e-19)
(2.63149 -3.04183 0)
(2.61408 -3.02176 3.73778e-18)
(2.5971 -3.00218 -3.64287e-18)
(2.58051 -2.98305 4.43265e-19)
(2.56427 -2.96433 4.32123e-19)
(2.54837 -2.94599 -8.43129e-19)
(2.53277 -2.92799 3.70135e-18)
(2.51745 -2.91032 -6.03022e-18)
(2.50239 -2.89294 3.14604e-18)
(2.48758 -2.87584 2.68728e-18)
(2.47299 -2.859 -6.01561e-18)
(2.45861 -2.8424 2.94688e-18)
(2.44442 -2.82602 3.60417e-19)
(2.43042 -2.80985 -3.53095e-19)
(2.41658 -2.79387 2.76572e-18)
(2.40291 -2.77807 -2.37743e-18)
(2.38938 -2.76244 -1.3281e-18)
(2.37598 -2.74696 1.96083e-18)
(2.36272 -2.73163 -6.40441e-19)
(2.34957 -2.71643 2.51145e-18)
(2.33654 -2.70136 -2.47075e-18)
(2.32361 -2.68641 3.02614e-18)
(2.31077 -2.67156 -5.57924e-21)
(2.29803 -2.65682 -5.89859e-19)
(2.28536 -2.64217 -2.29829e-18)
(2.27278 -2.62761 -5.63751e-19)
(2.26026 -2.61312 1.65868e-18)
(2.24781 -2.59871 -2.17959e-18)
(2.23541 -2.58437 -5.34697e-19)
(2.22308 -2.57009 0)
(2.21079 -2.55587 -5.16296e-19)
(2.19855 -2.5417 -2.02642e-18)
(2.18634 -2.52757 2.49577e-18)
(2.17418 -2.51349 2.93642e-18)
(2.16204 -2.49944 -9.65816e-19)
(2.14993 -2.48542 0)
(2.13785 -2.47143 9.29472e-19)
(2.12578 -2.45747 2.73641e-18)
(2.11374 -2.44352 -1.79726e-18)
(2.1017 -2.42959 8.81177e-19)
(2.08968 -2.41566 -1.72779e-18)
(2.07766 -2.40175 6.36672e-21)
(2.06564 -2.38784 3.34163e-18)
(2.05362 -2.37393 0)
(2.0416 -2.36001 -1.21402e-23)
(2.02957 -2.34609 1.57575e-18)
(2.01753 -2.33215 -1.55281e-18)
(2.00548 -2.3182 0)
(1.99341 -2.30423 2.23376e-18)
(1.98132 -2.29024 -6.66158e-21)
(1.96921 -2.27623 -1.43762e-18)
(1.95707 -2.26219 6.99675e-19)
(1.9449 -2.24811 -6.92443e-19)
(1.93271 -2.23401 0)
(1.92048 -2.21986 0)
(1.90821 -2.20567 -8.88526e-24)
(1.89591 -2.19144 -1.72889e-23)
(1.88356 -2.17716 1.2419e-18)
(1.87117 -2.16283 -1.21534e-18)
(1.85873 -2.14845 3.47988e-21)
(1.84623 -2.13401 6.9535e-21)
(1.83369 -2.11951 3.41468e-18)
(1.82109 -2.10494 1.11145e-18)
(1.80842 -2.09031 1.08605e-18)