/*--------------------------------*- C++ -*----------------------------------*\
  =========                 |
  \\      /  F ield         | OpenFOAM: The Open Source CFD Toolbox
   \\    /   O peration     | Website:  https://openfoam.org
    \\  /    A nd           | Version:  10
     \\/     M anipulation  |
\*---------------------------------------------------------------------------*/
FoamFile
{
    format      ascii;
    class       volScalarField;
    location    "32000";
    object      yPlus;
}
// * * * * * * * * * * * * * * * * * * * * * * * * * * * * * * * * * * * * * //

dimensions      [0 0 0 0 0 0 0];

internalField   uniform 0;

boundaryField
{
    right
    {
        type            cyclic;
    }
    left
    {
        type            cyclic;
    }
    outerWall
    {
        type            calculated;
        value           nonuniform List<scalar> 
200
(
22.1724
22.1679
22.169
22.1706
22.1725
22.1749
22.1777
22.1803
22.1829
22.1853
22.1876
22.1896
22.1915
22.1932
22.1947
22.1961
22.1974
22.1985
22.1995
22.2005
22.2013
22.2021
22.2029
22.2036
22.2042
22.2049
22.2055
22.206
22.2066
22.2071
22.2076
22.2082
22.2087
22.2092
22.2097
22.2101
22.2106
22.2111
22.2116
22.212
22.2125
22.213
22.2134
22.2139
22.2143
22.2148
22.2152
22.2157
22.2161
22.2165
22.2169
22.2174
22.2178
22.2181
22.2185
22.2189
22.2192
22.2196
22.2199
22.2202
22.2205
22.2207
22.221
22.2212
22.2213
22.2215
22.2216
22.2216
22.2216
22.2216
22.2216
22.2208
22.2187
22.2156
22.2131
22.2075
22.2065
22.2078
22.2094
22.2098
22.1655
22.1699
22.1794
22.1888
22.198
22.207
22.2157
22.2239
22.2313
22.2382
22.2444
22.25
22.255
22.2594
22.2632
22.2665
22.2693
22.2716
22.2734
22.2748
22.2757
22.2762
22.2763
22.276
22.2753
22.2742
22.2727
22.2708
22.2685
22.2657
22.2625
22.2589
22.2546
22.2498
22.2443
22.238
22.2305
22.2215
22.2102
22.1922
22.2114
22.2152
22.2171
22.2183
22.2187
22.216
22.2128
22.2108
22.2101
22.2101
22.2114
22.2132
22.215
22.2165
22.2177
22.2187
22.2195
22.2201
22.2205
22.2209
22.2212
22.2214
22.2216
22.2218
22.2219
22.2219
22.222
22.222
22.222
22.222
22.2219
22.2219
22.2218
22.2217
22.2216
22.2215
22.2214
22.2212
22.2211
22.2209
22.2208
22.2206
22.2204
22.2202
22.22
22.2198
22.2195
22.2193
22.219
22.2187
22.2185
22.2182
22.2179
22.2176
22.2172
22.2169
22.2165
22.2161
22.2157
22.2153
22.2149
22.2144
22.2139
22.2134
22.2128
22.2122
22.2115
22.2108
22.21
22.2091
22.2081
22.207
22.2057
22.2042
22.2024
22.2002
22.1974
22.1934
22.1879
22.1759
)
;
    }
    stirrerWall
    {
        type            calculated;
        value           nonuniform List<scalar> 0();
    }
    top
    {
        type            empty;
    }
    bottom
    {
        type            empty;
    }
    procBoundary2to3
    {
        type            processor;
        value           uniform 0;
    }
}


// ************************************************************************* //
