/*--------------------------------*- C++ -*----------------------------------*\
  =========                 |
  \\      /  F ield         | OpenFOAM: The Open Source CFD Toolbox
   \\    /   O peration     | Website:  https://openfoam.org
    \\  /    A nd           | Version:  10
     \\/     M anipulation  |
\*---------------------------------------------------------------------------*/
FoamFile
{
    format      ascii;
    class       volScalarField;
    location    "12000";
    object      p;
}
// * * * * * * * * * * * * * * * * * * * * * * * * * * * * * * * * * * * * * //

dimensions      [0 2 -2 0 0 0 0];

internalField   nonuniform List<scalar> 
17969
(
-5.52498
-5.51542
-5.507
-5.49825
-5.48906
-5.47943
-5.46937
-5.45884
-5.44781
-5.43624
-5.4241
-5.41139
-5.39812
-5.38429
-5.36993
-5.35504
-5.33962
-5.32367
-5.30717
-5.29012
-5.2725
-5.25429
-5.23547
-5.21603
-5.19594
-5.17518
-5.15372
-5.13155
-5.10863
-5.08493
-5.06044
-5.03512
-5.00893
-4.98185
-4.95385
-4.92488
-4.89492
-4.86392
-4.83185
-4.79866
-4.76431
-4.72875
-4.69194
-4.65383
-4.61437
-4.5735
-4.53117
-4.48732
-4.44189
-4.39481
-4.34602
-4.29544
-4.243
-4.18863
-4.13225
-4.07376
-4.01309
-3.95014
-3.88481
-3.817
-3.74661
-3.67353
-3.59762
-3.51879
-3.43689
-3.3518
-3.26336
-3.17145
-3.07589
-2.97654
-2.87322
-2.76575
-2.65396
-2.53764
-2.41833
-2.29939
-2.18255
-2.06783
-1.95524
-1.84478
-1.73647
-1.63029
-1.52625
-1.42435
-1.32457
-1.22689
-1.13131
-1.0378
-0.946354
-0.856936
-0.769527
-0.684101
-0.600631
-0.519089
-0.439446
-0.361672
-0.285735
-0.211603
-0.139244
-0.0686524
-5.52491
-5.51533
-5.50693
-5.4982
-5.48904
-5.47947
-5.46947
-5.45905
-5.44815
-5.43675
-5.42481
-5.4123
-5.39922
-5.38555
-5.37131
-5.35652
-5.34118
-5.32528
-5.30883
-5.29182
-5.27423
-5.25604
-5.23725
-5.21783
-5.19776
-5.17702
-5.15558
-5.13342
-5.11052
-5.08684
-5.06236
-5.03705
-5.01088
-4.98382
-4.95583
-4.92687
-4.89692
-4.86593
-4.83387
-4.80069
-4.76635
-4.7308
-4.694
-4.6559
-4.61645
-4.57559
-4.53326
-4.48941
-4.44398
-4.39691
-4.34812
-4.29754
-4.2451
-4.19073
-4.13434
-4.07586
-4.01518
-3.95222
-3.88688
-3.81907
-3.74866
-3.67556
-3.59965
-3.52079
-3.43888
-3.35376
-3.2653
-3.17336
-3.07777
-2.97838
-2.87503
-2.76752
-2.65568
-2.53931
-2.41994
-2.30095
-2.18405
-2.06926
-1.95661
-1.84609
-1.73771
-1.63147
-1.52736
-1.4254
-1.32555
-1.22781
-1.13217
-1.03861
-0.947104
-0.857634
-0.770176
-0.684705
-0.601193
-0.519612
-0.439933
-0.362127
-0.286162
-0.212006
-0.139628
-0.0689955
-5.52485
-5.51525
-5.50685
-5.49812
-5.48898
-5.47945
-5.46951
-5.45915
-5.44836
-5.4371
-5.42533
-5.41302
-5.40013
-5.38666
-5.37259
-5.35793
-5.3427
-5.3269
-5.31053
-5.29357
-5.27603
-5.25788
-5.23912
-5.21973
-5.19969
-5.17897
-5.15755
-5.13542
-5.11253
-5.08887
-5.06441
-5.03912
-5.01297
-4.98592
-4.95795
-4.92901
-4.89907
-4.8681
-4.83605
-4.80288
-4.76855
-4.73302
-4.69623
-4.65814
-4.61869
-4.57784
-4.53552
-4.49169
-4.44626
-4.39919
-4.3504
-4.29983
-4.24739
-4.19302
-4.13663
-4.07814
-4.01746
-3.9545
-3.88916
-3.82133
-3.75092
-3.67781
-3.60188
-3.52301
-3.44108
-3.35594
-3.26746
-3.17549
-3.07988
-2.98046
-2.87706
-2.76952
-2.65763
-2.54121
-2.4218
-2.30274
-2.18578
-2.07094
-1.95822
-1.84763
-1.73918
-1.63288
-1.52871
-1.42667
-1.32675
-1.22895
-1.13324
-1.03962
-0.94805
-0.858521
-0.771007
-0.685483
-0.601923
-0.520298
-0.440579
-0.362736
-0.286739
-0.212555
-0.140154
-0.0695018
-5.52478
-5.51515
-5.50675
-5.49804
-5.48891
-5.47939
-5.46949
-5.45919
-5.44848
-5.43732
-5.42568
-5.41354
-5.40085
-5.38759
-5.37372
-5.35924
-5.34415
-5.32847
-5.3122
-5.29532
-5.27785
-5.25976
-5.24104
-5.22169
-5.20168
-5.18099
-5.1596
-5.13749
-5.11463
-5.091
-5.06656
-5.04129
-5.01515
-4.98813
-4.96017
-4.93125
-4.90133
-4.87038
-4.83834
-4.80519
-4.77088
-4.73536
-4.69858
-4.6605
-4.62107
-4.58023
-4.53792
-4.49409
-4.44868
-4.40161
-4.35283
-4.30226
-4.24983
-4.19546
-4.13908
-4.08059
-4.01991
-3.95694
-3.89159
-3.82376
-3.75334
-3.68022
-3.60428
-3.5254
-3.44345
-3.3583
-3.2698
-3.17781
-3.08217
-2.98273
-2.8793
-2.77172
-2.65979
-2.54333
-2.42386
-2.30475
-2.18773
-2.07283
-1.96004
-1.84939
-1.74088
-1.6345
-1.53026
-1.42815
-1.32816
-1.23029
-1.13451
-1.04082
-0.94918
-0.859586
-0.772009
-0.686424
-0.602807
-0.521128
-0.441359
-0.363471
-0.287432
-0.213212
-0.140777
-0.070096
-0.00113599
0.0661361
0.131753
0.195749
-5.52471
-5.51506
-5.50666
-5.49794
-5.48882
-5.47933
-5.46946
-5.4592
-5.44854
-5.43745
-5.42592
-5.41391
-5.40139
-5.38831
-5.37465
-5.36038
-5.34548
-5.32995
-5.31381
-5.29705
-5.27966
-5.26165
-5.243
-5.2237
-5.20373
-5.18308
-5.16173
-5.13965
-5.11682
-5.09321
-5.0688
-5.04355
-5.01744
-4.99043
-4.9625
-4.9336
-4.9037
-4.87276
-4.84075
-4.80761
-4.77331
-4.73781
-4.70105
-4.66299
-4.62357
-4.58274
-4.54044
-4.49663
-4.45122
-4.40417
-4.35539
-4.30483
-4.25241
-4.19804
-4.14166
-4.08318
-4.0225
-3.95953
-3.89418
-3.82635
-3.75593
-3.6828
-3.60685
-3.52796
-3.446
-3.36083
-3.27232
-3.18031
-3.08465
-2.98517
-2.88172
-2.7741
-2.66214
-2.54563
-2.42612
-2.30696
-2.18989
-2.07492
-1.96208
-1.85136
-1.74278
-1.63633
-1.53202
-1.42984
-1.32978
-1.23183
-1.13598
-1.04221
-0.9505
-0.860833
-0.773187
-0.687535
-0.603854
-0.522115
-0.442289
-0.364348
-0.28826
-0.213995
-0.14152
-0.0708029
-0.00181064
0.0654898
0.131132
0.195148
-5.52464
-5.51497
-5.50657
-5.49785
-5.48873
-5.47925
-5.4694
-5.45917
-5.44855
-5.43753
-5.42607
-5.41416
-5.40177
-5.38885
-5.37538
-5.36131
-5.34662
-5.3313
-5.31532
-5.2987
-5.28144
-5.26353
-5.24496
-5.22573
-5.20583
-5.18523
-5.16392
-5.14187
-5.11908
-5.0955
-5.07111
-5.04589
-5.01981
-4.99283
-4.96492
-4.93604
-4.90616
-4.87524
-4.84325
-4.81013
-4.77586
-4.74037
-4.70363
-4.66558
-4.62618
-4.58536
-4.54308
-4.49928
-4.45388
-4.40684
-4.35808
-4.30752
-4.25511
-4.20075
-4.14438
-4.08589
-4.02522
-3.96225
-3.89691
-3.82907
-3.75865
-3.68552
-3.60956
-3.53066
-3.44869
-3.36351
-3.27499
-3.18296
-3.08728
-2.98778
-2.8843
-2.77666
-2.66466
-2.54811
-2.42856
-2.30935
-2.19223
-2.07721
-1.9643
-1.85353
-1.74488
-1.63836
-1.53398
-1.43173
-1.33159
-1.23357
-1.13764
-1.04379
-0.952003
-0.862259
-0.774537
-0.688812
-0.60506
-0.523252
-0.443362
-0.36536
-0.289216
-0.214898
-0.142375
-0.0716135
-0.00258162
0.0647541
0.130427
0.19447
-5.52459
-5.51489
-5.50648
-5.49776
-5.48864
-5.47917
-5.46934
-5.45913
-5.44855
-5.43756
-5.42616
-5.41433
-5.40203
-5.38924
-5.37592
-5.36204
-5.34756
-5.33244
-5.31667
-5.30023
-5.28312
-5.26534
-5.24689
-5.22775
-5.20793
-5.18739
-5.16614
-5.14415
-5.12139
-5.09785
-5.0735
-5.04831
-5.02226
-4.9953
-4.96742
-4.93856
-4.90871
-4.87782
-4.84584
-4.81275
-4.77849
-4.74302
-4.7063
-4.66827
-4.62888
-4.58809
-4.54582
-4.50203
-4.45665
-4.40962
-4.36087
-4.31032
-4.25792
-4.20357
-4.1472
-4.08873
-4.02806
-3.9651
-3.89975
-3.83192
-3.76149
-3.68836
-3.6124
-3.5335
-3.45152
-3.36633
-3.27779
-3.18575
-3.09006
-2.99054
-2.88704
-2.77937
-2.66734
-2.55076
-2.43116
-2.31191
-2.19474
-2.07967
-1.96671
-1.85588
-1.74716
-1.64058
-1.53613
-1.43381
-1.3336
-1.23549
-1.13948
-1.04555
-0.953686
-0.863862
-0.776059
-0.690255
-0.606426
-0.524544
-0.444582
-0.366512
-0.290303
-0.215924
-0.143345
-0.0725317
-0.0034523
0.0639266
0.129638
0.193716
0.256194
-5.52454
-5.51482
-5.5064
-5.49767
-5.48856
-5.47909
-5.46926
-5.45908
-5.44852
-5.43757
-5.42621
-5.41443
-5.40221
-5.38951
-5.37631
-5.36258
-5.34827
-5.33336
-5.3178
-5.30157
-5.28465
-5.26704
-5.24873
-5.22972
-5.20999
-5.18955
-5.16837
-5.14644
-5.12374
-5.10025
-5.07594
-5.05079
-5.02477
-4.99784
-4.96999
-4.94116
-4.91133
-4.88046
-4.84851
-4.81544
-4.78121
-4.74576
-4.70906
-4.67105
-4.63168
-4.5909
-4.54865
-4.50487
-4.45951
-4.41249
-4.36375
-4.31322
-4.26083
-4.20649
-4.15013
-4.09166
-4.031
-3.96805
-3.9027
-3.83487
-3.76445
-3.69132
-3.61536
-3.53645
-3.45447
-3.36927
-3.28072
-3.18867
-3.09296
-2.99343
-2.88991
-2.78222
-2.67016
-2.55355
-2.43392
-2.31463
-2.19741
-2.0823
-1.96929
-1.85839
-1.74962
-1.64298
-1.53846
-1.43606
-1.33578
-1.2376
-1.14151
-1.0475
-0.955546
-0.865637
-0.77775
-0.691862
-0.60795
-0.525988
-0.445948
-0.367802
-0.291522
-0.217075
-0.144432
-0.0735592
-0.00442468
0.0630048
0.128763
0.192882
0.255397
0.316341
0.375747
-5.52449
-5.51475
-5.50632
-5.49758
-5.48847
-5.47901
-5.46919
-5.45902
-5.44848
-5.43755
-5.42623
-5.41449
-5.40232
-5.3897
-5.37659
-5.36297
-5.34881
-5.33406
-5.3187
-5.30269
-5.28598
-5.26857
-5.25043
-5.23157
-5.21198
-5.19166
-5.17058
-5.14873
-5.1261
-5.10267
-5.07841
-5.05331
-5.02732
-5.00044
-4.97261
-4.94382
-4.91402
-4.88318
-4.85125
-4.81821
-4.78399
-4.74857
-4.71189
-4.6739
-4.63455
-4.59379
-4.55156
-4.5078
-4.46245
-4.41545
-4.36672
-4.31621
-4.26382
-4.2095
-4.15315
-4.09469
-4.03403
-3.97109
-3.90575
-3.83793
-3.7675
-3.69437
-3.61841
-3.53951
-3.45752
-3.37232
-3.28377
-3.19171
-3.09599
-2.99644
-2.8929
-2.78519
-2.67311
-2.55647
-2.43681
-2.31748
-2.20023
-2.08507
-1.97201
-1.86107
-1.75224
-1.64554
-1.54095
-1.43849
-1.33813
-1.23987
-1.1437
-1.04961
-0.957575
-0.86758
-0.779606
-0.693631
-0.609632
-0.527583
-0.44746
-0.369233
-0.292874
-0.218352
-0.145637
-0.0746977
-0.0055004
0.0619874
0.127799
0.191968
0.254528
0.315512
0.374954
0.432888
-5.52445
-5.51469
-5.50625
-5.49751
-5.48839
-5.47893
-5.46912
-5.45895
-5.44843
-5.43752
-5.42623
-5.41453
-5.4024
-5.38982
-5.37678
-5.36325
-5.3492
-5.33459
-5.31939
-5.30356
-5.28707
-5.26987
-5.25195
-5.23328
-5.21385
-5.19366
-5.17271
-5.15097
-5.12843
-5.10508
-5.08089
-5.05584
-5.02991
-5.00307
-4.97528
-4.94653
-4.91676
-4.88595
-4.85405
-4.82103
-4.78684
-4.75144
-4.71478
-4.67682
-4.63749
-4.59675
-4.55454
-4.51079
-4.46546
-4.41848
-4.36977
-4.31927
-4.2669
-4.21258
-4.15624
-4.0978
-4.03715
-3.97421
-3.90888
-3.84106
-3.77064
-3.69751
-3.62156
-3.54265
-3.46066
-3.37546
-3.2869
-3.19484
-3.09911
-2.99955
-2.896
-2.78827
-2.67617
-2.55951
-2.43982
-2.32046
-2.20317
-2.08797
-1.97487
-1.86388
-1.755
-1.64824
-1.5436
-1.44107
-1.34064
-1.24231
-1.14606
-1.05189
-0.959767
-0.869685
-0.781622
-0.695558
-0.611468
-0.52933
-0.449117
-0.370803
-0.29436
-0.219757
-0.146964
-0.0759499
-0.0066826
0.0608708
0.126743
0.190969
0.25358
0.314612
0.374097
0.43207
0.488562
0.543608
-5.52442
-5.51463
-5.50618
-5.49743
-5.48831
-5.47885
-5.46904
-5.45889
-5.44837
-5.43748
-5.42621
-5.41454
-5.40244
-5.38991
-5.37692
-5.36345
-5.34948
-5.33497
-5.3199
-5.30423
-5.28792
-5.27093
-5.25322
-5.23476
-5.21553
-5.19552
-5.17472
-5.15311
-5.13069
-5.10744
-5.08334
-5.05837
-5.0325
-5.00571
-4.97798
-4.94926
-4.91953
-4.88876
-4.85689
-4.8239
-4.78974
-4.75437
-4.71773
-4.67979
-4.64048
-4.59976
-4.55757
-4.51385
-4.46854
-4.42157
-4.37287
-4.32239
-4.27003
-4.21573
-4.15941
-4.10097
-4.04033
-3.9774
-3.91208
-3.84427
-3.77385
-3.70073
-3.62478
-3.54587
-3.46389
-3.37868
-3.29012
-3.19805
-3.10231
-3.00275
-2.89919
-2.79144
-2.67933
-2.56265
-2.44293
-2.32354
-2.20622
-2.09099
-1.97785
-1.86682
-1.75789
-1.65108
-1.54638
-1.44379
-1.34329
-1.24489
-1.14857
-1.05432
-0.962114
-0.871945
-0.783793
-0.697637
-0.613455
-0.531224
-0.450919
-0.372514
-0.29598
-0.22129
-0.148412
-0.0773175
-0.00797324
0.0596528
0.125594
0.189883
0.252553
0.313639
0.373174
0.431191
0.487724
0.542807
0.596471
0.64875
0.699675
0.749278
-5.52439
-5.51458
-5.50612
-5.49736
-5.48823
-5.47877
-5.46897
-5.45882
-5.44831
-5.43744
-5.42618
-5.41453
-5.40246
-5.38996
-5.37702
-5.3636
-5.34969
-5.33526
-5.32029
-5.30473
-5.28857
-5.27175
-5.25424
-5.23599
-5.21698
-5.19718
-5.17656
-5.15512
-5.13284
-5.10972
-5.08573
-5.06085
-5.03506
-5.00835
-4.98067
-4.95201
-4.92233
-4.89159
-4.85977
-4.82681
-4.79268
-4.75734
-4.72073
-4.68281
-4.64353
-4.60283
-4.56066
-4.51696
-4.47166
-4.42471
-4.37603
-4.32556
-4.27322
-4.21894
-4.16262
-4.1042
-4.04357
-3.98065
-3.91534
-3.84753
-3.77713
-3.70401
-3.62806
-3.54916
-3.46717
-3.38197
-3.29341
-3.20133
-3.10559
-3.00602
-2.90245
-2.7947
-2.68257
-2.56587
-2.44613
-2.32672
-2.20937
-2.09411
-1.98094
-1.86986
-1.7609
-1.65404
-1.54929
-1.44664
-1.34608
-1.24761
-1.15122
-1.05689
-0.964604
-0.874351
-0.786111
-0.699864
-0.615589
-0.533263
-0.452862
-0.374362
-0.297734
-0.222951
-0.149984
-0.0788021
-0.00937443
0.058331
0.124347
0.188706
0.251443
0.312589
0.37218
0.430249
0.48683
0.541954
0.595657
0.64797
0.698926
0.748556
-5.52437
-5.51453
-5.50607
-5.49729
-5.48816
-5.47869
-5.46889
-5.45875
-5.44825
-5.43738
-5.42614
-5.4145
-5.40246
-5.38999
-5.37708
-5.3637
-5.34984
-5.33547
-5.32057
-5.30511
-5.28905
-5.27237
-5.25503
-5.23697
-5.21817
-5.19858
-5.17818
-5.15693
-5.13483
-5.11185
-5.088
-5.06324
-5.03756
-5.01094
-4.98334
-4.95474
-4.92512
-4.89444
-4.86265
-4.82974
-4.79564
-4.76033
-4.72375
-4.68586
-4.64661
-4.60593
-4.56378
-4.5201
-4.47483
-4.4279
-4.37924
-4.32878
-4.27646
-4.22219
-4.16589
-4.10747
-4.04686
-3.98395
-3.91864
-3.85085
-3.78045
-3.70734
-3.63139
-3.5525
-3.47051
-3.38531
-3.29675
-3.20468
-3.10893
-3.00936
-2.90578
-2.79802
-2.68588
-2.56917
-2.44941
-2.32998
-2.21261
-2.09731
-1.98411
-1.873
-1.764
-1.6571
-1.5523
-1.44959
-1.34898
-1.25045
-1.15399
-1.05959
-0.967227
-0.876892
-0.788566
-0.702229
-0.617861
-0.53544
-0.454943
-0.376345
-0.299619
-0.22474
-0.151678
-0.0804042
-0.0108873
0.0569037
0.123001
0.187438
0.250246
0.311461
0.371115
0.429242
0.485876
0.541049
0.594796
0.647149
0.69814
0.747801
-5.52435
-5.51449
-5.50601
-5.49723
-5.48809
-5.47862
-5.46882
-5.45867
-5.44818
-5.43732
-5.42609
-5.41447
-5.40244
-5.39
-5.37711
-5.36377
-5.34995
-5.33563
-5.32078
-5.30539
-5.28942
-5.27285
-5.25563
-5.23773
-5.21911
-5.19972
-5.17953
-5.1585
-5.1366
-5.11381
-5.09012
-5.0655
-5.03995
-5.01344
-4.98594
-4.95743
-4.92788
-4.89726
-4.86554
-4.83267
-4.79862
-4.76334
-4.7268
-4.68894
-4.64971
-4.60906
-4.56694
-4.52328
-4.47803
-4.43111
-4.38247
-4.33204
-4.27973
-4.22547
-4.16918
-4.11078
-4.05018
-3.98728
-3.92199
-3.8542
-3.78381
-3.71071
-3.63477
-3.55588
-3.4739
-3.3887
-3.30014
-3.20807
-3.11232
-3.01275
-2.90916
-2.80139
-2.68925
-2.57252
-2.45275
-2.3333
-2.21591
-2.10059
-1.98736
-1.87622
-1.76718
-1.66024
-1.5554
-1.45265
-1.35199
-1.2534
-1.15687
-1.0624
-0.969969
-0.879557
-0.791148
-0.704724
-0.620265
-0.53775
-0.457155
-0.378458
-0.301634
-0.226655
-0.153495
-0.0821239
-0.0125128
0.0553694
0.121554
0.186074
0.248962
0.310251
0.369974
0.428165
0.484859
0.540087
0.593884
0.646282
0.697314
0.747013
-5.52433
-5.51446
-5.50596
-5.49717
-5.48802
-5.47854
-5.46874
-5.4586
-5.44811
-5.43726
-5.42603
-5.41442
-5.40241
-5.38998
-5.37712
-5.3638
-5.35001
-5.33573
-5.32094
-5.3056
-5.2897
-5.27321
-5.25609
-5.23831
-5.21984
-5.20062
-5.18063
-5.15981
-5.13813
-5.11555
-5.09205
-5.0676
-5.0422
-5.01582
-4.98845
-4.96004
-4.93059
-4.90005
-4.86839
-4.83558
-4.80158
-4.76635
-4.72985
-4.69202
-4.65283
-4.61221
-4.57011
-4.52648
-4.48125
-4.43436
-4.38574
-4.33532
-4.28302
-4.22878
-4.17251
-4.11412
-4.05353
-3.99064
-3.92536
-3.85758
-3.7872
-3.71411
-3.63818
-3.55929
-3.47732
-3.39212
-3.30357
-3.21149
-3.11575
-3.01617
-2.91259
-2.80481
-2.69266
-2.57592
-2.45614
-2.33667
-2.21926
-2.10392
-1.99067
-1.8795
-1.77044
-1.66346
-1.55858
-1.45579
-1.35508
-1.25643
-1.15985
-1.06532
-0.972818
-0.882332
-0.793845
-0.707338
-0.62279
-0.540183
-0.459493
-0.380698
-0.303773
-0.228693
-0.155431
-0.0839603
-0.0142508
0.0537272
0.120005
0.184614
0.247586
0.308955
0.368754
0.427016
0.483775
0.539064
0.592917
0.645367
0.696446
0.746186
0.79462
-5.52432
-5.51442
-5.50591
-5.49711
-5.48795
-5.47847
-5.46866
-5.45852
-5.44804
-5.43719
-5.42597
-5.41437
-5.40237
-5.38996
-5.37711
-5.36382
-5.35006
-5.33581
-5.32105
-5.30576
-5.28992
-5.27349
-5.25644
-5.23876
-5.2204
-5.20132
-5.18149
-5.16086
-5.13938
-5.11702
-5.09373
-5.06949
-5.04427
-5.01805
-4.99081
-4.96254
-4.9332
-4.90275
-4.87118
-4.83845
-4.80452
-4.76934
-4.73289
-4.6951
-4.65595
-4.61536
-4.57329
-4.52969
-4.48448
-4.43761
-4.38901
-4.33861
-4.28634
-4.23211
-4.17585
-4.11748
-4.0569
-3.99403
-3.92876
-3.86099
-3.79062
-3.71753
-3.64161
-3.56273
-3.48076
-3.39557
-3.30702
-3.21495
-3.1192
-3.01963
-2.91604
-2.80826
-2.6961
-2.57936
-2.45956
-2.34008
-2.22266
-2.1073
-1.99403
-1.88284
-1.77374
-1.66674
-1.56182
-1.45899
-1.35824
-1.25955
-1.16292
-1.06832
-0.975759
-0.885205
-0.796644
-0.710058
-0.625427
-0.54273
-0.461947
-0.383055
-0.306031
-0.230849
-0.157485
-0.0859115
-0.0161004
0.0519774
0.118352
0.183055
0.246117
0.307572
0.367453
0.425791
0.482622
0.537978
0.591892
0.644399
0.69553
0.745318
0.793795
-5.52432
-5.5144
-5.50588
-5.49706
-5.48789
-5.4784
-5.4686
-5.45845
-5.44797
-5.43713
-5.42592
-5.41432
-5.40233
-5.38993
-5.3771
-5.36382
-5.35008
-5.33586
-5.32114
-5.30589
-5.29008
-5.27371
-5.25673
-5.23912
-5.22085
-5.20188
-5.18217
-5.16169
-5.14039
-5.11823
-5.09515
-5.07112
-5.04611
-5.02008
-4.99301
-4.96488
-4.93567
-4.90535
-4.87389
-4.84125
-4.80739
-4.77229
-4.73589
-4.69816
-4.65905
-4.6185
-4.57647
-4.5329
-4.48772
-4.44087
-4.39229
-4.34191
-4.28966
-4.23545
-4.17921
-4.12085
-4.06028
-3.99742
-3.93216
-3.8644
-3.79404
-3.72096
-3.64505
-3.56617
-3.48421
-3.39903
-3.31048
-3.21841
-3.12268
-3.0231
-2.91951
-2.81173
-2.69957
-2.58282
-2.46302
-2.34352
-2.22608
-2.11071
-1.99742
-1.88621
-1.77709
-1.67006
-1.56511
-1.46225
-1.36146
-1.26272
-1.16604
-1.0714
-0.978778
-0.888162
-0.799533
-0.712872
-0.628162
-0.545381
-0.464508
-0.385522
-0.3084
-0.233118
-0.159651
-0.087974
-0.0180592
0.0501213
0.116597
0.181398
0.244555
0.306101
0.366068
0.424489
0.481397
0.536825
0.590807
0.643376
0.694565
0.744405
0.792931
-5.52432
-5.51438
-5.50584
-5.49702
-5.48784
-5.47835
-5.46853
-5.45839
-5.44791
-5.43707
-5.42586
-5.41428
-5.4023
-5.38991
-5.37709
-5.36383
-5.35011
-5.33591
-5.32121
-5.30599
-5.29022
-5.27389
-5.25696
-5.23941
-5.22121
-5.20233
-5.18272
-5.16236
-5.14121
-5.11921
-5.09632
-5.0725
-5.0477
-5.02188
-4.995
-4.96705
-4.93799
-4.90781
-4.87647
-4.84394
-4.81019
-4.77517
-4.73885
-4.70118
-4.66212
-4.62162
-4.57963
-4.53609
-4.49094
-4.44412
-4.39557
-4.34521
-4.29298
-4.23879
-4.18256
-4.12422
-4.06367
-4.00082
-3.93557
-3.86782
-3.79747
-3.7244
-3.64849
-3.56963
-3.48767
-3.4025
-3.31395
-3.22189
-3.12616
-3.02658
-2.923
-2.81522
-2.70305
-2.58629
-2.46649
-2.34698
-2.22953
-2.11415
-2.00084
-1.88961
-1.78047
-1.67341
-1.56844
-1.46555
-1.36472
-1.26595
-1.16923
-1.07454
-0.981861
-0.891187
-0.802495
-0.715767
-0.630983
-0.548123
-0.467165
-0.388089
-0.310873
-0.235492
-0.161924
-0.0901428
-0.0201234
0.0481618
0.114741
0.179644
0.2429
0.304542
0.3646
0.423108
0.480099
0.535605
0.58966
0.642296
0.693548
0.743446
0.792025
0.839315
-5.52433
-5.51437
-5.50582
-5.49698
-5.4878
-5.4783
-5.46848
-5.45834
-5.44786
-5.43703
-5.42583
-5.41425
-5.40227
-5.38989
-5.37709
-5.36384
-5.35014
-5.33596
-5.32128
-5.30608
-5.29035
-5.27405
-5.25717
-5.23966
-5.22152
-5.2027
-5.18318
-5.16292
-5.14187
-5.12001
-5.09728
-5.07364
-5.04903
-5.02342
-4.99676
-4.969
-4.94012
-4.9101
-4.8789
-4.8465
-4.81287
-4.77795
-4.74172
-4.70413
-4.66514
-4.6247
-4.58275
-4.53925
-4.49414
-4.44736
-4.39883
-4.3485
-4.29629
-4.24212
-4.18591
-4.12758
-4.06704
-4.00421
-3.93897
-3.87124
-3.80089
-3.72783
-3.65193
-3.57308
-3.49113
-3.40596
-3.31742
-3.22537
-3.12964
-3.03007
-2.92648
-2.8187
-2.70653
-2.58978
-2.46996
-2.35045
-2.23299
-2.11759
-2.00427
-1.89303
-1.78387
-1.67679
-1.57179
-1.46887
-1.36801
-1.26921
-1.17245
-1.07771
-0.984993
-0.894267
-0.805519
-0.718728
-0.633876
-0.550943
-0.469906
-0.390745
-0.313438
-0.237962
-0.164295
-0.0924115
-0.0222877
0.0461029
0.112787
0.177794
0.241153
0.302894
0.363049
0.421649
0.478727
0.534316
0.588449
0.641158
0.692477
0.742439
0.791075
0.838419
-5.52434
-5.51436
-5.5058
-5.49695
-5.48776
-5.47826
-5.46845
-5.45831
-5.44783
-5.437
-5.42581
-5.41423
-5.40227
-5.3899
-5.3771
-5.36387
-5.35018
-5.33601
-5.32135
-5.30618
-5.29047
-5.27421
-5.25736
-5.2399
-5.2218
-5.20304
-5.18358
-5.16339
-5.14243
-5.12068
-5.09807
-5.07458
-5.05015
-5.02472
-4.99826
-4.97071
-4.94203
-4.91219
-4.88116
-4.84891
-4.8154
-4.78061
-4.74448
-4.70699
-4.66808
-4.62771
-4.58582
-4.54238
-4.49731
-4.45056
-4.40207
-4.35176
-4.29957
-4.24542
-4.18924
-4.13093
-4.07041
-4.00758
-3.94236
-3.87464
-3.8043
-3.73125
-3.65537
-3.57652
-3.49458
-3.40942
-3.32088
-3.22883
-3.13311
-3.03354
-2.92996
-2.82218
-2.71002
-2.59326
-2.47344
-2.35392
-2.23645
-2.12105
-2.00771
-1.89645
-1.78727
-1.68018
-1.57516
-1.47221
-1.37133
-1.27249
-1.1757
-1.08093
-0.988162
-0.897389
-0.808589
-0.721742
-0.636828
-0.553826
-0.472716
-0.393476
-0.316084
-0.240517
-0.166755
-0.094772
-0.0245454
0.0439501
0.110741
0.175853
0.239317
0.301161
0.361415
0.420111
0.477281
0.532958
0.587173
0.63996
0.691352
0.741381
0.790081
0.837482
-5.52435
-5.51435
-5.50579
-5.49693
-5.48774
-5.47824
-5.46842
-5.45829
-5.44781
-5.43699
-5.4258
-5.41424
-5.40228
-5.38992
-5.37714
-5.36391
-5.35024
-5.33609
-5.32145
-5.30629
-5.29061
-5.27436
-5.25754
-5.24012
-5.22206
-5.20334
-5.18393
-5.16381
-5.14292
-5.12125
-5.09875
-5.07537
-5.05108
-5.02581
-4.99953
-4.97218
-4.9437
-4.91406
-4.88321
-4.85113
-4.81777
-4.78311
-4.74711
-4.70973
-4.67092
-4.63063
-4.58882
-4.54543
-4.50042
-4.45372
-4.40526
-4.35499
-4.30283
-4.24871
-4.19254
-4.13425
-4.07374
-4.01093
-3.94573
-3.87801
-3.80769
-3.73465
-3.65878
-3.57994
-3.49801
-3.41285
-3.32433
-3.23228
-3.13656
-3.037
-2.93343
-2.82565
-2.71349
-2.59673
-2.47691
-2.35739
-2.23991
-2.12449
-2.01114
-1.89987
-1.79068
-1.68357
-1.57853
-1.47556
-1.37465
-1.27579
-1.17896
-1.08416
-0.991354
-0.900539
-0.811692
-0.724794
-0.639824
-0.556761
-0.475583
-0.39627
-0.318798
-0.243147
-0.169294
-0.0972151
-0.0268886
0.0417101
0.108606
0.173825
0.237395
0.299344
0.359701
0.418497
0.475763
0.531531
0.585834
0.638703
0.690172
0.740274
0.78904
0.836504
-5.52437
-5.51436
-5.50578
-5.49692
-5.48772
-5.47822
-5.46841
-5.45828
-5.44781
-5.43699
-5.42581
-5.41426
-5.40231
-5.38996
-5.37719
-5.36398
-5.35031
-5.33618
-5.32155
-5.30642
-5.29075
-5.27453
-5.25773
-5.24033
-5.22231
-5.20363
-5.18427
-5.16419
-5.14337
-5.12176
-5.09934
-5.07606
-5.05187
-5.02674
-5.00061
-4.97343
-4.94514
-4.9157
-4.88504
-4.85314
-4.81995
-4.78545
-4.74958
-4.71233
-4.67363
-4.63344
-4.59172
-4.54841
-4.50346
-4.45681
-4.4084
-4.35817
-4.30604
-4.25195
-4.1958
-4.13753
-4.07705
-4.01426
-3.94906
-3.88137
-3.81106
-3.73803
-3.66216
-3.58333
-3.50141
-3.41626
-3.32775
-3.23571
-3.14
-3.04044
-2.93687
-2.8291
-2.71694
-2.60018
-2.48036
-2.36083
-2.24335
-2.12793
-2.01457
-1.90329
-1.79408
-1.68695
-1.58189
-1.4789
-1.37797
-1.27908
-1.18223
-1.08739
-0.994558
-0.903705
-0.814817
-0.727872
-0.642851
-0.559733
-0.478494
-0.399113
-0.321569
-0.245839
-0.1719
-0.0997306
-0.0293081
0.0393909
0.10639
0.171715
0.235391
0.297446
0.357908
0.416807
0.474173
0.530037
0.584431
0.637387
0.688938
0.739117
0.787955
0.835486
-5.5244
-5.51436
-5.50577
-5.49691
-5.48772
-5.47822
-5.46841
-5.45828
-5.44782
-5.43701
-5.42584
-5.4143
-5.40236
-5.39002
-5.37726
-5.36406
-5.35041
-5.33628
-5.32167
-5.30655
-5.2909
-5.2747
-5.25793
-5.24056
-5.22256
-5.20391
-5.18459
-5.16455
-5.14378
-5.12223
-5.09987
-5.07666
-5.05257
-5.02754
-5.00153
-4.97449
-4.94637
-4.91711
-4.88664
-4.85493
-4.82193
-4.78759
-4.75188
-4.71476
-4.67619
-4.63612
-4.5945
-4.55128
-4.5064
-4.45982
-4.41147
-4.36128
-4.3092
-4.25513
-4.19902
-4.14078
-4.08031
-4.01754
-3.95236
-3.88468
-3.81439
-3.74137
-3.66551
-3.58669
-3.50478
-3.41964
-3.33114
-3.23911
-3.1434
-3.04386
-2.94029
-2.83252
-2.72036
-2.60361
-2.48378
-2.36426
-2.24677
-2.13134
-2.01798
-1.90668
-1.79746
-1.69032
-1.58525
-1.48224
-1.38128
-1.28237
-1.1855
-1.09063
-0.997764
-0.906877
-0.817951
-0.730965
-0.645898
-0.562729
-0.481434
-0.401993
-0.324382
-0.248579
-0.174562
-0.102307
-0.0317937
0.0370015
0.104101
0.16953
0.233312
0.295474
0.356042
0.415045
0.472513
0.528476
0.582966
0.636013
0.687651
0.737911
0.786826
0.834427
-5.52442
-5.51437
-5.50578
-5.49691
-5.48771
-5.47822
-5.46842
-5.4583
-5.44785
-5.43705
-5.42588
-5.41435
-5.40242
-5.39009
-5.37734
-5.36415
-5.35052
-5.33641
-5.32181
-5.30671
-5.29107
-5.27489
-5.25814
-5.24078
-5.22281
-5.20419
-5.1849
-5.1649
-5.14416
-5.12266
-5.10036
-5.07722
-5.0532
-5.02825
-5.00234
-4.97542
-4.94743
-4.91832
-4.88803
-4.85651
-4.82369
-4.78953
-4.75398
-4.71701
-4.67858
-4.63864
-4.59714
-4.55402
-4.50924
-4.46273
-4.41445
-4.36432
-4.31228
-4.25826
-4.20218
-4.14397
-4.08353
-4.02078
-3.95562
-3.88795
-3.81767
-3.74467
-3.66882
-3.59001
-3.50812
-3.42299
-3.33449
-3.24247
-3.14677
-3.04723
-2.94367
-2.83591
-2.72376
-2.60701
-2.48718
-2.36766
-2.25017
-2.13473
-2.02136
-1.91006
-1.80083
-1.69367
-1.58858
-1.48555
-1.38458
-1.28565
-1.18875
-1.09386
-1.00096
-0.910044
-0.821084
-0.73406
-0.648952
-0.565737
-0.484393
-0.404897
-0.327226
-0.251356
-0.177266
-0.104933
-0.0343343
0.0345519
0.101748
0.167278
0.231164
0.293431
0.354106
0.413216
0.470788
0.526853
0.581442
0.634584
0.686312
0.736657
0.785653
0.833331
-5.52444
-5.51437
-5.50578
-5.49691
-5.48772
-5.47823
-5.46843
-5.45832
-5.44788
-5.43709
-5.42594
-5.41441
-5.4025
-5.39018
-5.37744
-5.36426
-5.35064
-5.33654
-5.32196
-5.30687
-5.29125
-5.27509
-5.25835
-5.24102
-5.22307
-5.20447
-5.1852
-5.16524
-5.14454
-5.12308
-5.10082
-5.07773
-5.05377
-5.0289
-5.00307
-4.97624
-4.94836
-4.91938
-4.88924
-4.85787
-4.82523
-4.79125
-4.75588
-4.71908
-4.6808
-4.64099
-4.59962
-4.55662
-4.51194
-4.46553
-4.41732
-4.36726
-4.31528
-4.26131
-4.20527
-4.14709
-4.08668
-4.02395
-3.95881
-3.89117
-3.8209
-3.74792
-3.67209
-3.59329
-3.5114
-3.42629
-3.3378
-3.24579
-3.1501
-3.05057
-2.94702
-2.83927
-2.72712
-2.61037
-2.49055
-2.37103
-2.25353
-2.13809
-2.02471
-1.9134
-1.80416
-1.69699
-1.59189
-1.48885
-1.38786
-1.28891
-1.19198
-1.09707
-1.00415
-0.913199
-0.824207
-0.737149
-0.652003
-0.568747
-0.487358
-0.407812
-0.330086
-0.254157
-0.180001
-0.107596
-0.0369183
0.0320531
0.0993405
0.164966
0.228953
0.291325
0.352106
0.411322
0.469001
0.52517
0.57986
0.633101
0.684923
0.735358
0.784439
0.832197
-5.52447
-5.51438
-5.50578
-5.49692
-5.48773
-5.47824
-5.46845
-5.45835
-5.44792
-5.43714
-5.42599
-5.41448
-5.40258
-5.39027
-5.37754
-5.36438
-5.35077
-5.33668
-5.32211
-5.30704
-5.29144
-5.27529
-5.25857
-5.24125
-5.22332
-5.20475
-5.18551
-5.16557
-5.1449
-5.12347
-5.10125
-5.07821
-5.0543
-5.02949
-5.00373
-4.97698
-4.94919
-4.92031
-4.89029
-4.85907
-4.82658
-4.79277
-4.75758
-4.72094
-4.68282
-4.64316
-4.60192
-4.55905
-4.51449
-4.46818
-4.42007
-4.37009
-4.31818
-4.26426
-4.20827
-4.15013
-4.08976
-4.02706
-3.96195
-3.89432
-3.82408
-3.75111
-3.67529
-3.59651
-3.51464
-3.42953
-3.34106
-3.24906
-3.15338
-3.05386
-2.95032
-2.84258
-2.73043
-2.61369
-2.49388
-2.37435
-2.25686
-2.14142
-2.02803
-1.91672
-1.80747
-1.70028
-1.59517
-1.49211
-1.3911
-1.29213
-1.19519
-1.10025
-1.0073
-0.916332
-0.827312
-0.740222
-0.655042
-0.571749
-0.490319
-0.410728
-0.332953
-0.256969
-0.182754
-0.110283
-0.0395338
0.0295162
0.0968888
0.162606
0.22669
0.289163
0.350048
0.40937
0.467156
0.523431
0.578225
0.631566
0.683486
0.734015
0.783185
0.831026
-5.5245
-5.51439
-5.50579
-5.49693
-5.48774
-5.47826
-5.46848
-5.45838
-5.44796
-5.43719
-5.42606
-5.41455
-5.40266
-5.39036
-5.37765
-5.3645
-5.3509
-5.33683
-5.32227
-5.30721
-5.29162
-5.27549
-5.25878
-5.24149
-5.22358
-5.20502
-5.1858
-5.16589
-5.14524
-5.12385
-5.10166
-5.07866
-5.05479
-5.03003
-5.00433
-4.97765
-4.94994
-4.92114
-4.89122
-4.86012
-4.82776
-4.7941
-4.75907
-4.72261
-4.68465
-4.64514
-4.60405
-4.56131
-4.51688
-4.47069
-4.42268
-4.37279
-4.32095
-4.26711
-4.21118
-4.15309
-4.09275
-4.03009
-3.96501
-3.89741
-3.82719
-3.75424
-3.67844
-3.59968
-3.51782
-3.43273
-3.34426
-3.25228
-3.15661
-3.0571
-2.95357
-2.84584
-2.7337
-2.61697
-2.49716
-2.37764
-2.26015
-2.1447
-2.03131
-1.91999
-1.81073
-1.70354
-1.59841
-1.49534
-1.39432
-1.29533
-1.19836
-1.1034
-1.01044
-0.919438
-0.830391
-0.743273
-0.658062
-0.574734
-0.493266
-0.413635
-0.335815
-0.259783
-0.185514
-0.112984
-0.042169
0.0269527
0.0944039
0.160206
0.224382
0.286952
0.347938
0.407365
0.465256
0.521638
0.576537
0.629982
0.682003
0.732628
0.78189
0.82982
-5.52452
-5.5144
-5.5058
-5.49693
-5.48775
-5.47827
-5.4685
-5.45842
-5.448
-5.43724
-5.42612
-5.41462
-5.40274
-5.39046
-5.37775
-5.36461
-5.35103
-5.33697
-5.32243
-5.30738
-5.2918
-5.27568
-5.259
-5.24172
-5.22382
-5.20529
-5.18609
-5.16619
-5.14558
-5.12421
-5.10205
-5.07908
-5.05526
-5.03054
-5.00489
-4.97826
-4.95061
-4.92189
-4.89206
-4.86105
-4.82881
-4.79527
-4.76038
-4.72407
-4.68628
-4.64693
-4.60599
-4.56339
-4.51909
-4.47302
-4.42513
-4.37534
-4.3236
-4.26983
-4.21397
-4.15594
-4.09565
-4.03303
-3.96799
-3.90042
-3.83022
-3.7573
-3.68152
-3.60277
-3.52093
-3.43586
-3.34741
-3.25544
-3.15979
-3.06029
-2.95677
-2.84904
-2.73692
-2.62019
-2.50039
-2.38087
-2.26338
-2.14794
-2.03455
-1.92322
-1.81395
-1.70675
-1.60161
-1.49853
-1.39749
-1.29849
-1.2015
-1.10652
-1.01353
-0.922511
-0.833439
-0.746294
-0.661054
-0.577694
-0.496192
-0.416524
-0.338664
-0.262587
-0.18827
-0.115686
-0.0448129
0.0243739
0.0918968
0.157778
0.222039
0.2847
0.345784
0.405313
0.463309
0.519796
0.574801
0.628351
0.680474
0.7312
0.780558
0.828579
-5.52454
-5.51441
-5.5058
-5.49694
-5.48776
-5.47829
-5.46853
-5.45845
-5.44804
-5.43729
-5.42618
-5.41469
-5.40282
-5.39054
-5.37785
-5.36473
-5.35115
-5.3371
-5.32257
-5.30754
-5.29198
-5.27587
-5.2592
-5.24193
-5.22406
-5.20554
-5.18636
-5.16648
-5.14589
-5.12454
-5.10242
-5.07948
-5.05568
-5.031
-5.0054
-4.97882
-4.95123
-4.92257
-4.89281
-4.86188
-4.82973
-4.79631
-4.76154
-4.72537
-4.68772
-4.64854
-4.60774
-4.56529
-4.52113
-4.47519
-4.42742
-4.37774
-4.3261
-4.27242
-4.21664
-4.15867
-4.09845
-4.03588
-3.97087
-3.90334
-3.83318
-3.76027
-3.68452
-3.6058
-3.52397
-3.43892
-3.35049
-3.25853
-3.1629
-3.06341
-2.95991
-2.85219
-2.74008
-2.62336
-2.50357
-2.38406
-2.26657
-2.15113
-2.03773
-1.9264
-1.81713
-1.70992
-1.60477
-1.50168
-1.40062
-1.3016
-1.2046
-1.1096
-1.01659
-0.925546
-0.83645
-0.74928
-0.664012
-0.580624
-0.49909
-0.419387
-0.34149
-0.265374
-0.191012
-0.118381
-0.0474547
0.0217906
0.0893784
0.155331
0.219671
0.282418
0.343594
0.40322
0.461317
0.517909
0.57302
0.626676
0.678903
0.729731
0.779187
0.827304
-5.52457
-5.51441
-5.50581
-5.49695
-5.48777
-5.47831
-5.46855
-5.45848
-5.44808