/*--------------------------------*- C++ -*----------------------------------*\
  =========                 |
  \\      /  F ield         | OpenFOAM: The Open Source CFD Toolbox
   \\    /   O peration     | Website:  https://openfoam.org
    \\  /    A nd           | Version:  10
     \\/     M anipulation  |
\*---------------------------------------------------------------------------*/
FoamFile
{
    format      ascii;
    class       volScalarField;
    location    "52000";
    object      nut;
}
// * * * * * * * * * * * * * * * * * * * * * * * * * * * * * * * * * * * * * //

dimensions      [0 2 -1 0 0 0 0];

internalField   nonuniform List<scalar> 
17808
(
2.81156e-06
2.04143e-05
3.55631e-05
5.0354e-05
6.59654e-05
8.21407e-05
9.8768e-05
0.000115791
0.000133179
0.000150913
0.000168984
0.000187384
0.000206113
0.000225167
0.000244549
0.00026426
0.000284301
0.000304677
0.00032539
0.000346445
0.000367845
0.000389596
0.000411702
0.000434167
0.000456998
0.000480198
0.000503775
0.000527732
0.000552076
0.000576813
0.000601949
0.000627488
0.000653439
0.000679805
0.000706595
0.000733814
0.000761468
0.000789564
0.000818108
0.000847107
0.000876567
0.000906494
0.000936895
0.000967776
0.000999144
0.001031
0.00106337
0.00109623
0.00112961
0.0011635
0.00119792
0.00123287
0.00126835
0.00130438
0.00134095
0.00137807
0.00141574
0.00145398
0.00149277
0.00153214
0.00157208
0.00161259
0.00165369
0.00169536
0.00173761
0.00178043
0.00182383
0.00186781
0.00191237
0.00195749
0.00200319
0.00204945
0.00209628
0.00214366
0.00219158
0.00224005
0.00228904
0.00233855
0.00238856
0.00243906
0.00249003
0.00254145
0.0025933
0.00264556
0.0026982
0.0027512
0.00280452
0.00285813
0.002912
0.00296609
0.00302035
0.00307473
2.80148e-06
2.07119e-05
3.55467e-05
5.03392e-05
6.59472e-05
8.21191e-05
9.87435e-05
0.000115764
0.000133149
0.000150882
0.000168951
0.000187351
0.000206079
0.000225133
0.000244515
0.000264226
0.000284267
0.000304643
0.000325357
0.000346412
0.000367813
0.000389564
0.00041167
0.000434136
0.000456967
0.000480168
0.000503745
0.000527703
0.000552048
0.000576785
0.000601921
0.000627462
0.000653412
0.00067978
0.00070657
0.000733789
0.000761444
0.000789541
0.000818085
0.000847084
0.000876544
0.000906472
0.000936874
0.000967755
0.000999124
0.00103099
0.00106335
0.00109621
0.00112959
0.00116349
0.0011979
0.00123285
0.00126834
0.00130436
0.00134093
0.00137805
0.00141573
0.00145396
0.00149276
0.00153213
0.00157207
0.00161258
0.00165367
0.00169535
0.00173759
0.00178042
0.00182382
0.0018678
0.00191236
0.00195748
0.00200318
0.00204945
0.00209627
0.00214365
0.00219158
0.00224004
0.00228903
0.00233854
0.00238855
0.00243905
0.00249002
0.00254144
0.00259329
0.00264555
0.0026982
0.00275119
0.00280452
0.00285813
0.002912
0.00296609
0.00302035
0.00307474
2.79641e-06
2.07817e-05
3.55264e-05
5.032e-05
6.59261e-05
8.20969e-05
9.87201e-05
0.000115739
0.000133124
0.000150856
0.000168925
0.000187324
0.000206052
0.000225106
0.000244488
0.000264198
0.00028424
0.000304616
0.00032533
0.000346385
0.000367786
0.000389538
0.000411644
0.000434111
0.000456942
0.000480144
0.000503721
0.000527679
0.000552025
0.000576762
0.000601899
0.000627439
0.000653391
0.000679758
0.000706549
0.000733769
0.000761424
0.000789521
0.000818066
0.000847066
0.000876526
0.000906454
0.000936856
0.000967738
0.000999107
0.00103097
0.00106333
0.0010962
0.00112957
0.00116347
0.00119789
0.00123284
0.00126832
0.00130435
0.00134092
0.00137804
0.00141571
0.00145395
0.00149275
0.00153212
0.00157206
0.00161257
0.00165367
0.00169534
0.00173759
0.00178041
0.00182381
0.00186779
0.00191235
0.00195748
0.00200318
0.00204944
0.00209627
0.00214365
0.00219157
0.00224004
0.00228903
0.00233854
0.00238855
0.00243905
0.00249002
0.00254144
0.00259329
0.00264556
0.0026982
0.0027512
0.00280452
0.00285813
0.002912
0.00296609
0.00302035
0.00307474
2.79548e-06
2.07629e-05
3.55118e-05
5.03036e-05
6.59077e-05
8.20773e-05
9.86993e-05
0.000115718
0.000133101
0.000150833
0.000168901
0.0001873
0.000206027
0.000225082
0.000244463
0.000264174
0.000284216
0.000304592
0.000325307
0.000346362
0.000367764
0.000389516
0.000411622
0.000434089
0.000456921
0.000480122
0.0005037
0.000527659
0.000552004
0.000576742
0.000601879
0.00062742
0.000653372
0.00067974
0.000706531
0.000733751
0.000761406
0.000789503
0.000818049
0.000847049
0.00087651
0.000906438
0.00093684
0.000967723
0.000999092
0.00103095
0.00106332
0.00109618
0.00112956
0.00116346
0.00119788
0.00123283
0.00126831
0.00130434
0.00134091
0.00137803
0.0014157
0.00145394
0.00149274
0.00153211
0.00157205
0.00161256
0.00165366
0.00169533
0.00173758
0.0017804
0.00182381
0.00186779
0.00191234
0.00195747
0.00200317
0.00204944
0.00209626
0.00214364
0.00219157
0.00224004
0.00228903
0.00233854
0.00238855
0.00243905
0.00249002
0.00254144
0.0025933
0.00264556
0.0026982
0.0027512
0.00280452
0.00285814
0.00291201
0.0029661
0.00302036
0.00307475
2.79512e-06
2.07547e-05
3.55032e-05
5.02923e-05
6.58954e-05
8.2064e-05
9.86848e-05
0.000115702
0.000133085
0.000150815
0.000168882
0.000187281
0.000206008
0.000225061
0.000244443
0.000264154
0.000284196
0.000304572
0.000325286
0.000346342
0.000367744
0.000389496
0.000411603
0.00043407
0.000456902
0.000480104
0.000503682
0.000527641
0.000551986
0.000576725
0.000601862
0.000627403
0.000653355
0.000679723
0.000706514
0.000733735
0.00076139
0.000789488
0.000818033
0.000847034
0.000876495
0.000906423
0.000936826
0.000967709
0.000999078
0.00103094
0.0010633
0.00109617
0.00112955
0.00116345
0.00119787
0.00123282
0.0012683
0.00130432
0.0013409
0.00137802
0.00141569
0.00145393
0.00149273
0.0015321
0.00157204
0.00161256
0.00165365
0.00169532
0.00173757
0.0017804
0.0018238
0.00186778
0.00191234
0.00195747
0.00200316
0.00204943
0.00209626
0.00214364
0.00219157
0.00224003
0.00228903
0.00233854
0.00238855
0.00243905
0.00249002
0.00254144
0.0025933
0.00264556
0.0026982
0.0027512
0.00280452
0.00285814
0.00291201
0.0029661
0.00302036
0.00307475
2.79469e-06
2.07519e-05
3.54973e-05
5.02835e-05
6.5886e-05
8.20537e-05
9.86737e-05
0.00011569
0.000133071
0.000150801
0.000168867
0.000187265
0.000205991
0.000225045
0.000244426
0.000264136
0.000284178
0.000304555
0.000325269
0.000346325
0.000367727
0.000389479
0.000411586
0.000434053
0.000456885
0.000480087
0.000503665
0.000527625
0.000551971
0.000576709
0.000601846
0.000627388
0.00065334
0.000679708
0.0007065
0.00073372
0.000761376
0.000789474
0.00081802
0.00084702
0.000876482
0.000906411
0.000936813
0.000967696
0.000999066
0.00103093
0.00106329
0.00109616
0.00112954
0.00116343
0.00119785
0.0012328
0.00126829
0.00130432
0.00134089
0.00137801
0.00141568
0.00145392
0.00149272
0.00153209
0.00157203
0.00161255
0.00165364
0.00169531
0.00173756
0.00178039
0.00182379
0.00186777
0.00191233
0.00195746
0.00200316
0.00204943
0.00209625
0.00214364
0.00219156
0.00224003
0.00228903
0.00233854
0.00238855
0.00243905
0.00249002
0.00254144
0.0025933
0.00264556
0.0026982
0.0027512
0.00280453
0.00285814
0.00291202
0.0029661
0.00302037
0.00307476
2.79456e-06
2.07478e-05
3.5493e-05
5.02761e-05
6.58779e-05
8.20448e-05
9.86641e-05
0.000115679
0.00013306
0.000150789
0.000168854
0.000187251
0.000205977
0.00022503
0.000244411
0.000264121
0.000284163
0.000304539
0.000325253
0.000346309
0.000367711
0.000389463
0.000411571
0.000434038
0.00045687
0.000480073
0.000503651
0.00052761
0.000551956
0.000576695
0.000601833
0.000627374
0.000653326
0.000679695
0.000706487
0.000733708
0.000761364
0.000789462
0.000818008
0.000847008
0.00087647
0.000906399
0.000936802
0.000967685
0.000999055
0.00103092
0.00106328
0.00109615
0.00112953
0.00116342
0.00119785
0.0012328
0.00126828
0.00130431
0.00134088
0.001378
0.00141568
0.00145391
0.00149272
0.00153209
0.00157203
0.00161254
0.00165364
0.00169531
0.00173755
0.00178038
0.00182379
0.00186777
0.00191232
0.00195746
0.00200316
0.00204942
0.00209625
0.00214363
0.00219156
0.00224003
0.00228902
0.00233853
0.00238855
0.00243905
0.00249002
0.00254144
0.0025933
0.00264556
0.00269821
0.00275121
0.00280453
0.00285815
0.00291202
0.00296611
0.00302037
0.00307476
2.79471e-06
2.07443e-05
3.549e-05
5.02701e-05
6.5871e-05
8.20371e-05
9.86558e-05
0.000115671
0.00013305
0.000150778
0.000168843
0.00018724
0.000205965
0.000225017
0.000244398
0.000264107
0.000284149
0.000304525
0.000325239
0.000346295
0.000367697
0.00038945
0.000411557
0.000434024
0.000456857
0.000480059
0.000503638
0.000527597
0.000551944
0.000576683
0.00060182
0.000627362
0.000653314
0.000679683
0.000706475
0.000733696
0.000761353
0.000789451
0.000817997
0.000846998
0.000876459
0.000906389
0.000936792
0.000967675
0.000999045
0.00103091
0.00106327
0.00109614
0.00112952
0.00116342
0.00119784
0.00123279
0.00126827
0.0013043
0.00134087
0.00137799
0.00141567
0.00145391
0.00149271
0.00153208
0.00157202
0.00161254
0.00165363
0.0016953
0.00173755
0.00178038
0.00182378
0.00186776
0.00191232
0.00195745
0.00200315
0.00204942
0.00209625
0.00214363
0.00219156
0.00224003
0.00228902
0.00233853
0.00238855
0.00243905
0.00249002
0.00254144
0.0025933
0.00264556
0.00269821
0.00275121
0.00280453
0.00285815
0.00291202
0.00296611
0.00302038
0.00307477
2.79499e-06
2.07421e-05
3.54881e-05
5.02653e-05
6.58651e-05
8.20305e-05
9.86487e-05
0.000115663
0.000133042
0.000150769
0.000168833
0.000187229
0.000205954
0.000225006
0.000244386
0.000264095
0.000284137
0.000304513
0.000325227
0.000346283
0.000367685
0.000389437
0.000411544
0.000434012
0.000456844
0.000480047
0.000503626
0.000527585
0.000551932
0.000576671
0.000601809
0.000627351
0.000653303
0.000679673
0.000706465
0.000733686
0.000761342
0.000789441
0.000817987
0.000846988
0.00087645
0.000906379
0.000936783
0.000967666
0.000999036
0.0010309
0.00106326
0.00109613
0.00112951
0.00116341
0.00119783
0.00123278
0.00126827
0.00130429
0.00134086
0.00137799
0.00141566
0.0014539
0.0014927
0.00153207
0.00157202
0.00161253
0.00165362
0.00169529
0.00173754
0.00178037
0.00182378
0.00186776
0.00191232
0.00195745
0.00200315
0.00204942
0.00209624
0.00214363
0.00219156
0.00224003
0.00228902
0.00233853
0.00238855
0.00243905
0.00249002
0.00254145
0.0025933
0.00264556
0.00269821
0.00275121
0.00280454
0.00285816
0.00291203
0.00296612
0.00302038
0.00307477
2.7953e-06
2.07407e-05
3.54872e-05
5.02617e-05
6.58601e-05
8.20248e-05
9.86425e-05
0.000115656
0.000133035
0.000150761
0.000168825
0.00018722
0.000205944
0.000224996
0.000244375
0.000264085
0.000284126
0.000304502
0.000325215
0.000346271
0.000367673
0.000389425
0.000411533
0.000434
0.000456833
0.000480036
0.000503614
0.000527574
0.000551921
0.00057666
0.000601798
0.00062734
0.000653293
0.000679663
0.000706455
0.000733676
0.000761333
0.000789431
0.000817978
0.000846979
0.000876441
0.000906371
0.000936774
0.000967658
0.000999028
0.00103089
0.00106325
0.00109612
0.0011295
0.0011634
0.00119782
0.00123277
0.00126826
0.00130428
0.00134086
0.00137798
0.00141566
0.0014539
0.0014927
0.00153207
0.00157201
0.00161253
0.00165362
0.00169529
0.00173754
0.00178037
0.00182377
0.00186775
0.00191231
0.00195744
0.00200315
0.00204941
0.00209624
0.00214363
0.00219156
0.00224002
0.00228902
0.00233853
0.00238855
0.00243905
0.00249002
0.00254145
0.0025933
0.00264557
0.00269821
0.00275122
0.00280454
0.00285816
0.00291203
0.00296612
0.00302039
0.00307478
2.79566e-06
2.07399e-05
3.5487e-05
5.0259e-05
6.5856e-05
8.20198e-05
9.86371e-05
0.00011565
0.000133029
0.000150755
0.000168818
0.000187213
0.000205936
0.000224987
0.000244366
0.000264075
0.000284116
0.000304491
0.000325205
0.000346261
0.000367663
0.000389415
0.000411522
0.00043399
0.000456823
0.000480026
0.000503604
0.000527564
0.000551911
0.00057665
0.000601788
0.000627331
0.000653284
0.000679653
0.000706446
0.000733667
0.000761324
0.000789423
0.00081797
0.000846971
0.000876433
0.000906363
0.000936767
0.000967651
0.000999021
0.00103088
0.00106325
0.00109612
0.0011295
0.00116339
0.00119782
0.00123277
0.00126825
0.00130428
0.00134085
0.00137797
0.00141565
0.00145389
0.00149269
0.00153206
0.00157201
0.00161252
0.00165362
0.00169529
0.00173753
0.00178036
0.00182377
0.00186775
0.00191231
0.00195744
0.00200314
0.00204941
0.00209624
0.00214362
0.00219156
0.00224002
0.00228902
0.00233853
0.00238855
0.00243905
0.00249002
0.00254145
0.00259331
0.00264557
0.00269822
0.00275122
0.00280455
0.00285816
0.00291204
0.00296613
0.00302039
0.00307479
2.79602e-06
2.07395e-05
3.54875e-05
5.02571e-05
6.58525e-05
8.20155e-05
9.86323e-05
0.000115645
0.000133023
0.000150749
0.000168811
0.000187206
0.000205928
0.000224979
0.000244358
0.000264067
0.000284107
0.000304482
0.000325196
0.000346252
0.000367653
0.000389405
0.000411513
0.00043398
0.000456813
0.000480016
0.000503595
0.000527555
0.000551902
0.000576641
0.000601779
0.000627322
0.000653275
0.000679645
0.000706438
0.000733659
0.000761316
0.000789415
0.000817962
0.000846964
0.000876426
0.000906356
0.00093676
0.000967644
0.000999015
0.00103088
0.00106324
0.00109611
0.00112949
0.00116339
0.00119781
0.00123276
0.00126825
0.00130427
0.00134085
0.00137797
0.00141565
0.00145389
0.00149269
0.00153206
0.001572
0.00161252
0.00165361
0.00169528
0.00173753
0.00178036
0.00182376
0.00186775
0.00191231
0.00195744
0.00200314
0.00204941
0.00209624
0.00214362
0.00219155
0.00224002
0.00228902
0.00233853
0.00238855
0.00243905
0.00249003
0.00254145
0.00259331
0.00264557
0.00269822
0.00275122
0.00280455
0.00285817
0.00291204
0.00296614
0.0030204
0.0030748
2.79639e-06
2.07394e-05
3.54884e-05
5.0256e-05
6.58496e-05
8.20118e-05
9.8628e-05
0.000115641
0.000133018
0.000150743
0.000168806
0.000187199
0.000205922
0.000224972
0.000244351
0.000264059
0.000284099
0.000304474
0.000325188
0.000346243
0.000367645
0.000389397
0.000411504
0.000433972
0.000456804
0.000480007
0.000503586
0.000527546
0.000551893
0.000576633
0.000601771
0.000627314
0.000653267
0.000679637
0.00070643
0.000733652
0.000761309
0.000789408
0.000817955
0.000846957
0.000876419
0.000906349
0.000936753
0.000967638
0.000999009
0.00103087
0.00106324
0.0010961
0.00112949
0.00116338
0.00119781
0.00123276
0.00126824
0.00130427
0.00134084
0.00137797
0.00141564
0.00145388
0.00149269
0.00153206
0.001572
0.00161252
0.00165361
0.00169528
0.00173753
0.00178036
0.00182376
0.00186775
0.0019123
0.00195744
0.00200314
0.00204941
0.00209624
0.00214362
0.00219155
0.00224002
0.00228902
0.00233853
0.00238855
0.00243905
0.00249003
0.00254145
0.00259331
0.00264558
0.00269823
0.00275123
0.00280456
0.00285818
0.00291205
0.00296614
0.00302041
0.0030748
2.79674e-06
2.07397e-05
3.54898e-05
5.02554e-05
6.58475e-05
8.20086e-05
9.86242e-05
0.000115636
0.000133014
0.000150739
0.000168801
0.000187194
0.000205916
0.000224966
0.000244344
0.000264052
0.000284092
0.000304467
0.00032518
0.000346235
0.000367637
0.000389389
0.000411496
0.000433963
0.000456796
0.000479999
0.000503578
0.000527538
0.000551885
0.000576625
0.000601763
0.000627306
0.000653259
0.00067963
0.000706422
0.000733644
0.000761302
0.000789401
0.000817948
0.00084695
0.000876413
0.000906343
0.000936748
0.000967632
0.000999003
0.00103087
0.00106323
0.0010961
0.00112948
0.00116338
0.0011978
0.00123275
0.00126824
0.00130427
0.00134084
0.00137796
0.00141564
0.00145388
0.00149268
0.00153206
0.001572
0.00161251
0.00165361
0.00169528
0.00173753
0.00178035
0.00182376
0.00186774
0.0019123
0.00195744
0.00200314
0.00204941
0.00209624
0.00214362
0.00219156
0.00224003
0.00228902
0.00233854
0.00238855
0.00243906
0.00249003
0.00254146
0.00259332
0.00264558
0.00269823
0.00275123
0.00280456
0.00285818
0.00291206
0.00296615
0.00302042
0.00307481
2.79708e-06
2.07401e-05
3.54915e-05
5.02554e-05
6.58458e-05
8.20059e-05
9.86209e-05
0.000115633
0.00013301
0.000150734
0.000168796
0.000187189
0.000205911
0.00022496
0.000244338
0.000264046
0.000284085
0.00030446
0.000325173
0.000346228
0.000367629
0.000389381
0.000411489
0.000433956
0.000456789
0.000479992
0.000503571
0.000527531
0.000551878
0.000576618
0.000601756
0.000627299
0.000653252
0.000679623
0.000706416
0.000733638
0.000761295
0.000789395
0.000817942
0.000846944
0.000876407
0.000906338
0.000936742
0.000967627
0.000998998
0.00103086
0.00106323
0.0010961
0.00112948
0.00116337
0.0011978
0.00123275
0.00126824
0.00130426
0.00134084
0.00137796
0.00141564
0.00145388
0.00149268
0.00153205
0.001572
0.00161251
0.0016536
0.00169528
0.00173752
0.00178035
0.00182376
0.00186774
0.0019123
0.00195744
0.00200314
0.00204941
0.00209624
0.00214362
0.00219156
0.00224003
0.00228902
0.00233854
0.00238856
0.00243906
0.00249003
0.00254146
0.00259332
0.00264559
0.00269824
0.00275124
0.00280457
0.00285819
0.00291206
0.00296616
0.00302042
0.00307482
2.79739e-06
2.07407e-05
3.54935e-05
5.02559e-05
6.58448e-05
8.20037e-05
9.8618e-05
0.000115629
0.000133006
0.00015073
0.000168792
0.000187184
0.000205906
0.000224955
0.000244333
0.00026404
0.000284079
0.000304454
0.000325167
0.000346222
0.000367623
0.000389375
0.000411482
0.000433949
0.000456782
0.000479985
0.000503564
0.000527524
0.000551871
0.000576611
0.000601749
0.000627292
0.000653246
0.000679616
0.000706409
0.000733632
0.000761289
0.000789389
0.000817936
0.000846938
0.000876402
0.000906332
0.000936737
0.000967622
0.000998993
0.00103086
0.00106322
0.00109609
0.00112947
0.00116337
0.00119779
0.00123275
0.00126823
0.00130426
0.00134083
0.00137796
0.00141564
0.00145388
0.00149268
0.00153205
0.00157199
0.00161251
0.0016536
0.00169527
0.00173752
0.00178035
0.00182376
0.00186774
0.0019123
0.00195743
0.00200314
0.00204941
0.00209624
0.00214363
0.00219156
0.00224003
0.00228903
0.00233854
0.00238856
0.00243906
0.00249004
0.00254147
0.00259332
0.00264559
0.00269824
0.00275125
0.00280457
0.0028582
0.00291207
0.00296616
0.00302043
0.00307483
2.79769e-06
2.07415e-05
3.54956e-05
5.02569e-05
6.58442e-05
8.2002e-05
9.86155e-05
0.000115626
0.000133003
0.000150727
0.000168788
0.00018718
0.000205902
0.00022495
0.000244328
0.000264035
0.000284074
0.000304448
0.000325161
0.000346216
0.000367617
0.000389369
0.000411476
0.000433943
0.000456775
0.000479979
0.000503557
0.000527518
0.000551865
0.000576605
0.000601743
0.000627286
0.00065324
0.00067961
0.000706403
0.000733626
0.000761284
0.000789383
0.000817931
0.000846933
0.000876397
0.000906327
0.000936732
0.000967617
0.000998989
0.00103085
0.00106322
0.00109609
0.00112947
0.00116337
0.00119779
0.00123274
0.00126823
0.00130426
0.00134083
0.00137795
0.00141563
0.00145387
0.00149268
0.00153205
0.00157199
0.00161251
0.0016536
0.00169527
0.00173752
0.00178035
0.00182376
0.00186774
0.0019123
0.00195744
0.00200314
0.00204941
0.00209624
0.00214363
0.00219156
0.00224003
0.00228903
0.00233854
0.00238856
0.00243907
0.00249004
0.00254147
0.00259333
0.0026456
0.00269825
0.00275125
0.00280458
0.0028582
2.79796e-06
2.07423e-05
3.54979e-05
5.02582e-05
6.58441e-05
8.20007e-05
9.86134e-05
0.000115624
0.000133
0.000150724
0.000168784
0.000187177
0.000205898
0.000224946
0.000244323
0.00026403
0.000284069
0.000304443
0.000325156
0.00034621
0.000367611
0.000389363
0.00041147
0.000433937
0.00045677
0.000479973
0.000503551
0.000527512
0.000551859
0.000576599
0.000601737
0.00062728
0.000653234
0.000679605
0.000706398
0.00073362
0.000761278
0.000789378
0.000817926
0.000846928
0.000876392
0.000906323
0.000936728
0.000967613
0.000998985
0.00103085
0.00106321
0.00109608
0.00112947
0.00116336
0.00119779
0.00123274
0.00126823
0.00130425
0.00134083
0.00137795
0.00141563
0.00145387
0.00149268
0.00153205
0.00157199
0.00161251
0.0016536
0.00169527
0.00173752
0.00178035
0.00182376
0.00186774
0.0019123
0.00195744
0.00200314
0.00204941
0.00209624
0.00214363
0.00219156
0.00224003
0.00228903
0.00233855
0.00238857
0.00243907
0.00249005
0.00254148
0.00259334
0.0026456
0.00269825
0.00275126
0.00280459
0.00285821
2.79821e-06
2.07433e-05
3.55003e-05
5.02598e-05
6.58444e-05
8.19999e-05
9.86117e-05
0.000115622
0.000132997
0.000150721
0.000168781
0.000187173
0.000205894
0.000224942
0.000244319
0.000264026
0.000284065
0.000304438
0.000325151
0.000346205
0.000367606
0.000389358
0.000411465
0.000433932
0.000456764
0.000479967
0.000503546
0.000527506
0.000551854
0.000576593
0.000601732
0.000627275
0.000653229
0.000679599
0.000706393
0.000733615
0.000761273
0.000789373
0.000817921
0.000846924
0.000876387
0.000906318
0.000936723
0.000967609
0.000998981
0.00103085
0.00106321
0.00109608
0.00112946
0.00116336
0.00119778
0.00123274
0.00126822
0.00130425
0.00134083
0.00137795
0.00141563
0.00145387
0.00149268
0.00153205
0.00157199
0.00161251
0.0016536
0.00169527
0.00173752
0.00178035
0.00182376
0.00186774
0.0019123
0.00195744
0.00200314
0.00204941
0.00209625
0.00214363
0.00219157
0.00224004
0.00228904
0.00233855
0.00238857
0.00243908
0.00249005
0.00254148
0.00259334
0.00264561
0.00269826
0.00275126
0.00280459
0.00285821
2.79844e-06
2.07444e-05
3.55028e-05
5.02618e-05
6.58452e-05
8.19995e-05
9.86104e-05
0.00011562
0.000132995
0.000150718
0.000168779
0.00018717
0.000205891
0.000224939
0.000244315
0.000264022
0.00028406
0.000304434
0.000325146
0.000346201
0.000367602
0.000389353
0.00041146
0.000433927
0.000456759
0.000479962
0.000503541
0.000527501
0.000551849
0.000576589
0.000601727
0.00062727
0.000653224
0.000679595
0.000706388
0.000733611
0.000761269
0.000789369
0.000817917
0.00084692
0.000876383
0.000906315
0.00093672
0.000967605
0.000998977
0.00103084
0.00106321
0.00109608
0.00112946
0.00116336
0.00119778
0.00123274
0.00126822
0.00130425
0.00134083
0.00137795
0.00141563
0.00145387
0.00149268
0.00153205
0.00157199
0.00161251
0.0016536
0.00169527
0.00173752
0.00178035
0.00182376
0.00186774
0.0019123
0.00195744
0.00200314
0.00204942
0.00209625
0.00214363
0.00219157
0.00224004
0.00228904
0.00233856
0.00238858
0.00243908
0.00249006
0.00254149
0.00259335
0.00264562
0.00269827
2.79865e-06
2.07455e-05
3.55054e-05
5.02639e-05
6.58463e-05
8.19995e-05
9.86095e-05
0.000115618
0.000132993
0.000150716
0.000168776
0.000187168
0.000205888
0.000224936
0.000244312
0.000264018
0.000284057
0.00030443
0.000325142
0.000346197
0.000367597
0.000389349
0.000411455
0.000433923
0.000456755
0.000479958
0.000503537
0.000527497
0.000551844
0.000576584
0.000601723
0.000627266
0.00065322
0.00067959
0.000706384
0.000733606
0.000761265
0.000789365
0.000817913
0.000846916
0.000876379
0.000906311
0.000936716
0.000967602
0.000998974
0.00103084
0.0010632
0.00109607
0.00112946
0.00116336
0.00119778
0.00123273
0.00126822
0.00130425
0.00134082
0.00137795
0.00141563
0.00145387
0.00149268
0.00153205
0.00157199
0.00161251
0.0016536
0.00169527
0.00173752
0.00178035
0.00182376
0.00186774
0.00191231
0.00195744
0.00200315
0.00204942
0.00209625
0.00214364
0.00219157
0.00224005
0.00228905
0.00233856
0.00238858
0.00243909
0.00249007
0.0025415
0.00259336
0.00264563
0.00269827
2.79884e-06
2.07466e-05
3.55079e-05
5.02663e-05
6.58477e-05
8.19998e-05
9.8609e-05
0.000115617
0.000132991
0.000150714
0.000168774
0.000187165
0.000205885
0.000224933
0.000244309
0.000264015
0.000284053
0.000304427
0.000325139
0.000346193
0.000367593
0.000389345
0.000411451
0.000433918
0.000456751
0.000479954
0.000503532
0.000527493
0.00055184
0.00057658
0.000601718
0.000627262
0.000653216
0.000679586
0.00070638
0.000733603
0.000761261
0.000789361
0.000817909
0.000846912
0.000876376
0.000906308
0.000936713
0.000967599
0.000998971
0.00103084
0.0010632
0.00109607
0.00112945
0.00116335
0.00119778
0.00123273
0.00126822
0.00130425
0.00134082
0.00137795
0.00141563
0.00145387
0.00149268
0.00153205
0.00157199
0.00161251
0.0016536
0.00169527
0.00173752
0.00178035
0.00182376
0.00186775
0.00191231
0.00195744
0.00200315
0.00204942
0.00209625
0.00214364
0.00219158
0.00224005
0.00228905
0.00233857
0.00238859
0.0024391
0.00249007
0.0025415
0.00259337
0.00264563
0.00269828
2.79902e-06
2.07478e-05
3.55105e-05
5.02688e-05
6.58494e-05
8.20005e-05
9.86088e-05
0.000115616
0.00013299
0.000150712
0.000168772
0.000187163
0.000205883
0.00022493
0.000244306
0.000264012
0.00028405
0.000304423
0.000325135
0.000346189
0.00036759
0.000389341
0.000411448
0.000433915
0.000456747
0.00047995
0.000503529
0.000527489
0.000551836
0.000576576
0.000601715
0.000627258
0.000653212
0.000679583
0.000706376
0.000733599
0.000761257
0.000789357
0.000817906
0.000846909
0.000876373
0.000906305
0.00093671
0.000967596
0.000998969
0.00103083
0.0010632
0.00109607
0.00112945
0.00116335
0.00119778
0.00123273
0.00126822
0.00130425
0.00134082
0.00137795
0.00141563
0.00145387
0.00149268
0.00153205
0.00157199
0.00161251
0.0016536
0.00169528
0.00173753
0.00178035
0.00182376
0.00186775
0.00191231
0.00195745
0.00200315
0.00204942
0.00209626
0.00214365
0.00219158
0.00224006
0.00228906
0.00233857
0.0023886
0.0024391
0.00249008
0.00254151
0.00259337
0.00264564
0.00269829
2.79918e-06
2.07491e-05
3.5513e-05
5.02715e-05
6.58514e-05
8.20016e-05
9.86089e-05
0.000115615
0.000132989
0.00015071
0.00016877
0.000187161
0.00020588
0.000224928
0.000244304
0.000264009
0.000284047
0.00030442
0.000325132
0.000346186
0.000367586
0.000389338
0.000411444
0.000433911
0.000456744
0.000479946
0.000503525
0.000527485
0.000551833
0.000576573
0.000601711
0.000627255
0.000653209
0.000679579
0.000706373
0.000733596
0.000761254
0.000789354
0.000817903
0.000846906
0.00087637
0.000906302
0.000936707
0.000967594
0.000998966
0.00103083
0.0010632
0.00109607
0.00112945
0.00116335
0.00119778
0.00123273
0.00126822
0.00130425
0.00134082
0.00137795
0.00141563
0.00145387
0.00149268
0.00153205
0.00157199
0.00161251
0.00165361
0.00169528
0.00173753
0.00178036
0.00182376
0.00186775
0.00191231
0.00195745
0.00200316
0.00204943
0.00209626
0.00214365
0.00219159
0.00224006
0.00228906
0.00233858
0.0023886
0.00243911
0.00249009
0.00254152
0.00259338
0.00264565
0.0026983
2.79933e-06
2.07503e-05
3.55155e-05
5.02743e-05
6.58536e-05
8.20029e-05
9.86094e-05
0.000115615
0.000132988
0.000150709
0.000168768
0.000187159
0.000205878
0.000224926
0.000244301
0.000264007
0.000284045
0.000304418
0.000325129
0.000346183
0.000367583
0.000389335
0.000411441
0.000433908
0.00045674
0.000479943
0.000503522
0.000527482
0.000551829
0.000576569
0.000601708
0.000627251
0.000653205
0.000679576
0.00070637
0.000733593
0.000761251
0.000789352
0.0008179
0.000846903
0.000876368
0.000906299
0.000936705
0.000967591
0.000998964
0.00103083
0.0010632
0.00109607
0.00112945
0.00116335
0.00119777
0.00123273
0.00126822
0.00130425
0.00134082
0.00137795
0.00141563
0.00145387
0.00149268
0.00153205
0.001572
0.00161251
0.00165361
0.00169528
0.00173753
0.00178036
0.00182377
0.00186775
0.00191232
0.00195745
0.00200316
0.00204943
0.00209627
0.00214366
0.00219159
0.00224007
0.00228907
0.00233859
0.00238861
0.00243912
0.0024901
0.00254153
0.00259339
0.00264566
0.00269831
2.79947e-06
2.07516e-05
3.55179e-05
5.02771e-05
6.5856e-05
8.20045e-05
9.86102e-05
0.000115615
0.000132987
0.000150708
0.000168767
0.000187157
0.000205877
0.000224924
0.000244299
0.000264005
0.000284042
0.000304415
0.000325127
0.00034618
0.000367581
0.000389332
0.000411438
0.000433905
0.000456737
0.00047994
0.000503519
0.000527479
0.000551826
0.000576567
0.000601705
0.000627249
0.000653203
0.000679574
0.000706367
0.00073359
0.000761249
0.000789349
0.000817898
0.000846901
0.000876365
0.000906297
0.000936703
0.000967589
0.000998963
0.00103083
0.00106319
0.00109607
0.00112945
0.00116335
0.00119777
0.00123273
0.00126822
0.00130425
0.00134082
0.00137795
0.00141563
0.00145387
0.00149268
0.00153205
0.001572
0.00161252
0.00165361
0.00169528
0.00173753
0.00178036
0.00182377
0.00186776
0.00191232
0.00195746
0.00200316
0.00204944
0.00209627
0.00214366
0.0021916
0.00224007
0.00228908
0.0023386
0.00238862
0.00243913
0.00249011
0.00254154
0.0025934
0.00264567
0.00269832
2.7996e-06
2.07529e-05
3.55203e-05
5.028e-05
6.58586e-05
8.20064e-05
9.86113e-05
0.000115616
0.000132987
0.000150708
0.000168766
0.000187156
0.000205875
0.000224922
0.000244297
0.000264003
0.00028404
0.000304413
0.000325124
0.000346178
0.000367578
0.000389329
0.000411436
0.000433903
0.000456735
0.000479938
0.000503516
0.000527477
0.000551824
0.000576564
0.000601703
0.000627246
0.0006532
0.000679571
0.000706365
0.000733588
0.000761247
0.000789347
0.000817896
0.000846899
0.000876364
0.000906296
0.000936702
0.000967588
0.000998961
0.00103083
0.00106319
0.00109606
0.00112945
0.00116335
0.00119777
0.00123273
0.00126822
0.00130425
0.00134082
0.00137795
0.00141563
0.00145387
0.00149268
0.00153205
0.001572
0.00161252
0.00165361
0.00169528
0.00173753
0.00178036
0.00182377
0.00186776
0.00191232
0.00195746
0.00200317
0.00204944
0.00209628
0.00214367
0.00219161
0.00224008
0.00228909
0.00233861
0.00238863
0.00243914
0.00249012
0.00254155
0.00259341
0.00264568
0.00269833
2.79973e-06
2.07543e-05
3.55227e-05
5.02829e-05
6.58614e-05
8.20086e-05
9.86127e-05
0.000115616
0.000132987
0.000150707
0.000168765
0.000187155
0.000205874
0.00022492
0.000244296
0.000264001
0.000284038
0.000304411
0.000325122
0.000346176
0.000367576
0.000389327
0.000411433
0.0004339
0.000456732
0.000479935
0.000503514
0.000527474
0.000551822
0.000576562
0.0006017
0.000627244
0.000653198
0.000679569
0.000706363
0.000733586
0.000761245
0.000789345
0.000817894
0.000846897
0.000876362
0.000906294
0.0009367
0.000967587
0.00099896
0.00103083
0.00106319
0.00109606
0.00112945
0.00116335
0.00119777
0.00123273
0.00126822
0.00130425
0.00134082
0.00137795
0.00141563
0.00145388
0.00149268
0.00153206
0.001572
0.00161252
0.00165361
0.00169529
0.00173754
0.00178037
0.00182378
0.00186776
0.00191233
0.00195746
0.00200317
0.00204945
0.00209628
0.00214368
0.00219161
0.00224009
0.00228909
0.00233861
0.00238864
0.00243915
0.00249013
0.00254156
0.00259342
0.00264569
0.00269834
2.79984e-06
2.07556e-05
3.5525e-05
5.02859e-05
6.58642e-05
8.20109e-05
9.86144e-05
0.000115617
0.000132988
0.000150707
0.000168765
0.000187154
0.000205873
0.000224919
0.000244294
0.000263999
0.000284037
0.000304409
0.00032512
0.000346174
0.000367574
0.000389325
0.000411431
0.000433898
0.00045673
0.000479933
0.000503512
0.000527472
0.000551819
0.00057656
0.000601698
0.000627242
0.000653196
0.000679567
0.000706361
0.000733584
0.000761243
0.000789344
0.000817892
0.000846896
0.000876361
0.000906293
0.000936699
0.000967586
0.000998959
0.00103083
0.00106319
0.00109606
0.00112945
0.00116335
0.00119777
0.00123273
0.00126822
0.00130425
0.00134083
0.00137795
0.00141563
0.00145388
0.00149268
0.00153206
0.001572
0.00161252
0.00165362
0.00169529
0.00173754
0.00178037
0.00182378
0.00186777
0.00191233
0.00195747