/*--------------------------------*- C++ -*----------------------------------*\
  =========                 |
  \\      /  F ield         | OpenFOAM: The Open Source CFD Toolbox
   \\    /   O peration     | Website:  https://openfoam.org
    \\  /    A nd           | Version:  10
     \\/     M anipulation  |
\*---------------------------------------------------------------------------*/
FoamFile
{
    format      ascii;
    class       volVectorField;
    location    "39000";
    object      U;
}
// * * * * * * * * * * * * * * * * * * * * * * * * * * * * * * * * * * * * * //

dimensions      [0 1 -1 0 0 0 0];

internalField   nonuniform List<vector> 
17969
(
(0.12236 1.53659 0)
(-0.0456099 1.59345 0)
(-0.0210607 1.60075 -8.03712e-18)
(-0.0205148 1.61123 9.21588e-18)
(-0.0204122 1.62317 -2.99539e-18)
(-0.0195564 1.63631 -2.36194e-18)
(-0.0179357 1.65128 1.97697e-18)
(-0.0153921 1.66898 0)
(-0.0116347 1.69026 1.06829e-19)
(-0.00614626 1.71562 0)
(0.00150069 1.74586 0)
(0.012175 1.78309 0)
(0.0268602 1.82968 0)
(0.0455214 1.88535 -1.1927e-18)
(0.0674884 1.94739 1.11908e-18)
(0.0916127 2.01181 0)
(0.116492 2.07464 -7.91677e-19)
(0.14069 2.13264 6.90647e-19)
(0.163132 2.18372 -6.00363e-19)
(0.183055 2.22711 5.28181e-19)
(0.199938 2.26293 0)
(0.213986 2.29236 0)
(0.225514 2.31663 -5.00282e-20)
(0.234711 2.33684 0)
(0.241979 2.354 0)
(0.247713 2.36886 3.17576e-19)
(0.252236 2.38203 -5.8932e-19)
(0.255809 2.39399 2.73235e-19)
(0.258699 2.40513 2.51213e-19)
(0.260991 2.41571 -3.05637e-20)
(0.26292 2.42592 -2.70578e-19)
(0.264538 2.43589 0)
(0.26592 2.44571 1.85743e-19)
(0.26712 2.45544 -3.91296e-19)
(0.268168 2.46511 1.15919e-21)
(0.269085 2.47478 3.05432e-19)
(0.269884 2.48445 -1.44329e-19)
(0.270574 2.49417 -1.69227e-19)
(0.27116 2.50394 9.68507e-20)
(0.271644 2.51379 0)
(0.272028 2.52373 2.90889e-20)
(0.272311 2.53378 2.77362e-20)
(0.27249 2.54395 2.10404e-19)
(0.272565 2.55425 -2.03368e-19)
(0.272532 2.5647 -1.92921e-19)
(0.272388 2.57532 -4.46179e-20)
(0.27213 2.58611 1.79948e-19)
(0.271753 2.59708 1.71122e-19)
(0.271253 2.60826 -2.07427e-21)
(0.270627 2.61964 -1.60885e-19)
(0.269869 2.63124 -1.91825e-19)
(0.268976 2.64308 1.87273e-19)
(0.267942 2.65516 0)
(0.266762 2.66749 0)
(0.265432 2.68009 3.37095e-20)
(0.263946 2.69297 1.94082e-19)
(0.262299 2.70613 -1.26893e-19)
(0.260484 2.71959 0)
(0.258497 2.73335 0)
(0.25633 2.74743 5.55887e-20)
(0.253979 2.76184 -1.11551e-19)
(0.251436 2.77659 0)
(0.248694 2.79168 0)
(0.245748 2.80713 -5.01832e-20)
(0.242589 2.82295 -9.53286e-20)
(0.239213 2.83914 4.96614e-20)
(0.23561 2.85572 9.1689e-20)
(0.231776 2.87269 0)
(0.227702 2.89007 0)
(0.223384 2.90786 0)
(0.218815 2.92608 7.65177e-20)
(0.21399 2.94474 -5.31018e-21)
(0.208904 2.96384 -1.47746e-19)
(0.203551 2.98341 0)
(0.198007 3.00318 6.55861e-20)
(0.192435 3.0226 6.15749e-20)
(0.186916 3.04142 -5.74666e-20)
(0.181473 3.05968 0)
(0.176103 3.07735 0)
(0.170793 3.09441 0)
(0.165573 3.11088 0)
(0.160445 3.1268 0)
(0.15541 3.14219 7.19494e-20)
(0.150468 3.15707 -1.20213e-19)
(0.145618 3.17146 8.15056e-20)
(0.140857 3.18538 -1.45442e-20)
(0.136184 3.19885 0)
(0.131607 3.2119 0)
(0.127147 3.22463 0)
(0.122837 3.23715 -2.50584e-20)
(0.118704 3.2496 3.29466e-20)
(0.114716 3.26191 2.52386e-20)
(0.11081 3.27397 -2.48251e-20)
(0.10697 3.28571 1.8166e-20)
(0.103188 3.29713 -3.49019e-20)
(0.0994616 3.3082 1.2986e-20)
(0.0957922 3.31892 0)
(0.0921803 3.32928 -6.14969e-21)
(0.088627 3.33926 6.0213e-21)
(0.0851329 3.34886 3.17411e-22)
(0.0892433 1.5421 0)
(-0.0841002 1.59946 -3.00608e-17)
(-0.058236 1.60399 2.04133e-17)
(-0.0582027 1.61076 3.77793e-19)
(-0.0587556 1.6194 1.51443e-17)
(-0.0587867 1.62902 -2.19906e-17)
(-0.058354 1.6398 9.22055e-18)
(-0.0573983 1.65226 8.33087e-18)
(-0.0557452 1.66702 -7.89351e-18)
(-0.0532005 1.68459 -7.46961e-18)
(-0.0495495 1.70527 1.31522e-20)
(-0.0443772 1.72929 6.16462e-18)
(-0.0372901 1.75722 0)
(-0.0276938 1.79047 0)
(-0.0147912 1.83088 -5.0237e-18)
(0.00172704 1.87907 4.70618e-18)
(0.0215035 1.93384 0)
(0.0438252 1.9926 -3.60419e-18)
(0.0676168 2.05223 3.27113e-18)
(0.0916649 2.10978 0)
(0.114797 2.16287 -2.43718e-18)
(0.136155 2.20996 2.02184e-18)
(0.155068 2.25041 5.95085e-20)
(0.171174 2.28445 0)
(0.184682 2.31299 1.58782e-18)
(0.195831 2.33698 -1.00256e-19)
(0.204793 2.35732 -2.76866e-18)
(0.211928 2.37484 1.29512e-18)
(0.217557 2.39017 -7.54179e-20)
(0.222001 2.40384 1.15337e-18)
(0.225485 2.4163 -9.81992e-19)
(0.228221 2.4279 0)
(0.230388 2.43892 7.87472e-19)
(0.232123 2.44957 -6.86271e-19)
(0.233526 2.45997 0)
(0.234672 2.47024 9.1758e-20)
(0.235612 2.48043 -8.58724e-20)
(0.236381 2.4906 -6.00241e-19)
(0.237 2.50079 1.24684e-18)
(0.237484 2.51102 -7.63096e-20)
(0.237842 2.52132 -5.74746e-19)
(0.238077 2.53171 -6.03884e-19)
(0.238192 2.54222 9.69449e-19)
(0.238185 2.55285 -1.03818e-18)
(0.238056 2.56362 8.79617e-19)
(0.237801 2.57456 -3.70014e-19)
(0.237416 2.58566 3.99629e-19)
(0.236898 2.59695 -8.66737e-19)
(0.236241 2.60844 7.38903e-19)
(0.23544 2.62013 -7.09738e-19)
(0.23449 2.63205 3.00475e-19)
(0.233386 2.6442 -4.09258e-20)
(0.232121 2.65659 0)
(0.230691 2.66923 0)
(0.229088 2.68214 -3.66407e-20)
(0.227307 2.69533 -7.07109e-20)
(0.225341 2.7088 2.71517e-19)
(0.223183 2.72257 -3.99852e-19)
(0.220827 2.73665 -5.06119e-19)
(0.218264 2.75105 7.17765e-20)
(0.215489 2.76577 4.8244e-19)
(0.212492 2.78084 5.71552e-19)
(0.209267 2.79625 -5.62849e-19)
(0.205804 2.81203 5.35885e-20)
(0.202096 2.82817 0)
(0.198134 2.84469 5.08502e-20)
(0.19391 2.86159 3.8142e-19)
(0.189415 2.8789 -3.79838e-19)
(0.184641 2.8966 -1.81016e-19)
(0.179581 2.91473 -1.66075e-19)
(0.174226 2.93327 3.40631e-19)
(0.168569 2.95226 2.41202e-19)
(0.162605 2.97169 3.00925e-19)
(0.156326 2.99158 -3.01471e-19)
(0.149821 3.01166 -6.92129e-20)
(0.143279 3.03138 -6.50163e-20)
(0.136798 3.0505 6.07438e-20)
(0.130408 3.06905 1.15053e-19)
(0.124096 3.08701 3.1563e-19)
(0.117856 3.10434 -1.25758e-20)
(0.111719 3.12106 -1.93952e-19)
(0.105684 3.13722 -4.40707e-20)
(0.0997527 3.15284 0)
(0.0939289 3.16794 1.91865e-20)
(0.088214 3.18256 -1.70684e-20)
(0.0826065 3.19671 1.56051e-20)
(0.0771032 3.21042 0)
(0.071701 3.22368 0)
(0.0664032 3.23655 -1.75667e-19)
(0.0612258 3.24909 6.88353e-21)
(0.0561983 3.26144 1.48157e-19)
(0.0513474 3.27371 0)
(0.0466669 3.28591 0)
(0.042093 3.29791 7.96085e-20)
(0.0375936 3.30958 -1.41853e-19)
(0.0331691 3.32092 7.0137e-20)
(0.0288194 3.3319 0)
(0.0245458 3.34251 0)
(0.0203496 3.35275 -1.55931e-20)
(0.0162329 3.36259 8.82615e-21)
(0.0557239 1.54602 4.18879e-17)
(-0.121096 1.6027 -6.52065e-17)
(-0.0942267 1.60659 9.92548e-17)
(-0.0942234 1.61127 -3.21289e-17)
(-0.0950942 1.61793 5.95107e-19)
(-0.0955831 1.62546 0)
(-0.0958116 1.63377 3.29871e-19)
(-0.0957713 1.64309 0)
(-0.0953556 1.65379 0)
(-0.0944203 1.66631 5.11196e-19)
(-0.0928161 1.681 2.39086e-19)
(-0.0903842 1.69817 0)
(-0.0869451 1.71807 0)
(-0.0822082 1.74083 3.73816e-19)
(-0.0757739 1.76681 -5.40265e-18)
(-0.0673107 1.79679 4.53014e-18)
(-0.0561729 1.83222 -4.38306e-18)
(-0.0417773 1.87431 4.37811e-18)
(-0.0242504 1.92281 -1.24586e-19)
(-0.00397221 1.97628 -3.79311e-18)
(0.0183303 2.03243 2.97899e-18)
(0.0416663 2.08866 3.5043e-19)
(0.0649484 2.14259 1.55153e-19)
(0.0871696 2.19225 0)
(0.107624 2.23643 0)
(0.125681 2.27466 1.85065e-18)
(0.141132 2.30726 -1.39915e-18)
(0.154204 2.335 -1.85872e-19)
(0.16504 2.35865 -1.1251e-18)
(0.173825 2.37901 1.30643e-18)
(0.180863 2.39676 0)
(0.186446 2.41243 0)
(0.190836 2.42651 1.33585e-19)
(0.194259 2.43942 1.87222e-18)
(0.196914 2.45149 -3.74769e-18)
(0.198967 2.46301 1.64915e-18)
(0.200554 2.47416 1.0218e-19)
(0.201777 2.48508 -1.92218e-19)
(0.202713 2.49589 1.8014e-19)
(0.203413 2.50666 8.41116e-20)
(0.203912 2.51743 0)
(0.204233 2.52825 7.45113e-20)
(0.204391 2.53916 1.41461e-19)
(0.204394 2.55017 -9.29372e-19)
(0.204245 2.56131 1.04819e-20)
(0.203945 2.5726 1.08759e-18)
(0.203493 2.58406 0)
(0.202884 2.59569 -6.55834e-22)
(0.202116 2.60752 -2.0905e-19)
(0.201183 2.61956 0)
(0.20008 2.63181 9.51361e-20)
(0.198801 2.64429 -7.26887e-19)
(0.197341 2.65702 7.0776e-19)
(0.195691 2.67 0)
(0.193847 2.68325 1.62865e-19)
(0.191801 2.69677 0)
(0.189545 2.71058 -1.50926e-19)
(0.187072 2.72468 -5.7508e-19)
(0.184375 2.7391 5.63851e-19)
(0.181444 2.75383 1.3514e-19)
(0.178273 2.7689 0)
(0.17485 2.78431 -6.19644e-19)
(0.171168 2.80007 1.32869e-18)
(0.167216 2.81619 -1.19316e-20)
(0.162985 2.83268 -2.37857e-19)
(0.158465 2.84954 -1.20276e-19)
(0.153645 2.8668 -8.34926e-19)
(0.148515 2.88446 1.31247e-20)
(0.143065 2.90252 7.81358e-19)
(0.137285 2.921 1.93742e-21)
(0.131166 2.9399 0)
(0.124698 2.95923 5.02245e-19)
(0.117872 2.97901 1.35382e-19)
(0.110681 2.99925 -6.45452e-19)
(0.103225 3.01967 0)
(0.0957215 3.03972 0)
(0.0882857 3.05915 -1.3212e-19)
(0.080947 3.07801 3.56139e-19)
(0.0736946 3.09626 -1.04184e-18)
(0.0665233 3.11388 8.71142e-19)
(0.0594629 3.13088 -5.23852e-19)
(0.0525144 3.1473 -3.20698e-19)
(0.0456787 3.16317 3.66062e-19)
(0.0389598 3.17852 -3.55992e-19)
(0.0323604 3.19337 6.02793e-19)
(0.0258817 3.20775 -2.87139e-19)
(0.0195232 3.22169 2.40805e-19)
(0.0132823 3.2352 -4.54972e-19)
(0.00715573 3.24829 1.95262e-20)
(0.00114412 3.26102 1.85853e-20)
(-0.00474186 3.27342 1.86884e-19)
(-0.0104803 3.28563 0)
(-0.0160477 3.29776 1.06386e-19)
(-0.0214281 3.30987 -1.90531e-19)
(-0.0266816 3.32179 3.44064e-21)
(-0.0318503 3.33338 8.98555e-21)
(-0.0369209 3.34462 5.79514e-21)
(-0.0418927 3.35548 6.83679e-21)
(-0.0467647 3.36595 2.65474e-20)
(-0.0515344 3.37602 8.39906e-22)
(0.0220724 1.54849 -1.33491e-18)
(-0.156896 1.60334 -1.34261e-16)
(-0.129394 1.60744 1.50655e-19)
(-0.129365 1.61123 2.35308e-18)
(-0.130406 1.61685 4.45166e-17)
(-0.131155 1.62325 3.0363e-17)
(-0.131765 1.63023 -4.06946e-19)
(-0.132253 1.63783 -1.9982e-17)
(-0.132565 1.64622 0)
(-0.132616 1.65568 1.71735e-17)
(-0.13229 1.6665 -1.65323e-17)
(-0.131468 1.679 0)
(-0.130012 1.69345 0)
(-0.12778 1.71015 -4.31885e-19)
(-0.124622 1.72932 3.98524e-19)
(-0.120342 1.75108 3.64841e-19)
(-0.11461 1.77555 1.01885e-17)
(-0.107167 1.80326 -9.64161e-18)
(-0.097553 1.83522 0)
(-0.0851621 1.87261 2.62332e-19)
(-0.0697896 1.91586 8.49257e-18)
(-0.0516124 1.96442 -1.43631e-17)
(-0.0310559 2.01676 6.15978e-18)
(-0.00887332 2.07079 3.53843e-19)
(0.0140064 2.12426 5.02021e-18)
(0.0365886 2.17515 -4.48793e-18)
(0.0579983 2.22184 -4.23459e-18)
(0.0776608 2.26341 4.02425e-18)
(0.0949592 2.29959 7.50142e-22)
(0.109846 2.33082 -2.96747e-18)
(0.122565 2.35777 2.7955e-18)
(0.133159 2.38105 0)
(0.141816 2.40138 0)
(0.148804 2.41932 -2.31124e-18)
(0.154374 2.43534 2.46171e-18)
(0.158759 2.44986 -2.04272e-18)
(0.162167 2.46328 1.93309e-18)
(0.164782 2.47592 -1.57613e-18)
(0.166764 2.48803 -1.98106e-19)
(0.16824 2.4998 1.3331e-20)
(0.169312 2.51139 2.99682e-18)
(0.170053 2.52289 -2.81789e-18)
(0.170514 2.53437 1.16719e-18)
(0.170732 2.5459 0)
(0.170729 2.55752 0)
(0.170519 2.56925 -1.39095e-19)
(0.170111 2.58113 -1.05119e-18)
(0.169507 2.59317 8.82269e-19)
(0.168708 2.6054 -7.09919e-19)
(0.167712 2.61782 1.14088e-18)
(0.166516 2.63045 1.07654e-18)
(0.165116 2.64331 -1.03903e-18)
(0.163507 2.65641 0)
(0.161682 2.66976 -5.60467e-19)
(0.159636 2.68337 7.31304e-19)
(0.157362 2.69726 0)
(0.154851 2.71143 1.66059e-19)
(0.152097 2.7259 1.59495e-19)
(0.149091 2.74068 -3.09044e-19)
(0.145824 2.75578 -1.47394e-19)
(0.142286 2.77121 2.85981e-19)
(0.138468 2.78698 1.08363e-18)
(0.134359 2.80311 -1.33031e-18)
(0.129948 2.8196 1.00276e-18)
(0.125224 2.83646 -1.46653e-18)
(0.120173 2.8537 9.54592e-19)
(0.114786 2.87134 -1.11961e-18)
(0.109048 2.88938 1.1045e-18)
(0.102947 2.90782 -2.08433e-19)
(0.0964717 2.92668 -9.90778e-19)
(0.0896091 2.94596 7.88792e-19)
(0.0823477 2.96568 0)
(0.0746764 2.98583 -1.76808e-19)
(0.0665851 3.00645 0)
(0.0581862 3.02723 0)
(0.0497249 3.04762 0)
(0.0413335 3.06739 6.91243e-19)
(0.0330478 3.08657 -5.47834e-19)
(0.0248577 3.10515 -2.53424e-19)
(0.0167496 3.12308 -2.3877e-19)
(0.00875728 3.14038 1.10311e-19)
(0.000883112 3.15709 -1.04823e-19)
(-0.00687188 3.17323 -3.73818e-19)
(-0.0145035 3.18885 3.71902e-19)
(-0.0220086 3.20396 3.18766e-19)
(-0.0293849 3.21859 -2.40754e-20)
(-0.036631 3.23277 -8.20404e-19)
(-0.0437466 3.24652 4.449e-20)
(-0.0507327 3.25987 4.73039e-19)
(-0.0575915 3.27283 -5.09089e-20)
(-0.0643232 3.28544 2.29778e-20)
(-0.0709213 3.29776 -2.8766e-19)
(-0.0773718 3.30987 2.76072e-19)
(-0.0836549 3.32191 -1.3682e-20)
(-0.0897418 3.33393 1.08332e-20)
(-0.095685 3.34575 1.20825e-19)
(-0.101525 3.35722 -2.21481e-19)
(-0.107234 3.3683 1.04038e-19)
(-0.112815 3.37899 4.77394e-20)
(-0.118268 3.38926 -7.10952e-20)
(-0.123588 3.39909 2.51456e-20)
(-0.128775 3.40848 -1.76974e-21)
(-0.133825 3.4174 -3.64315e-20)
(-0.138735 3.42585 3.51965e-20)
(-0.0111201 1.54991 8.96665e-17)
(-0.191625 1.6024 0)
(-0.163713 1.60707 1.16635e-16)
(-0.163729 1.61052 1.13124e-18)
(-0.164905 1.61566 -1.01681e-16)
(-0.165838 1.62148 6.95298e-17)
(-0.166703 1.62776 -2.50469e-17)
(-0.167531 1.63448 0)
(-0.168289 1.64168 1.91736e-17)
(-0.168937 1.64948 -3.47788e-17)
(-0.169412 1.65806 1.63731e-17)
(-0.169627 1.66765 -5.18486e-19)
(-0.169489 1.67849 1.61091e-17)
(-0.168877 1.69085 -3.07573e-17)
(-0.16766 1.70502 1.403e-17)
(-0.165716 1.72127 -8.42004e-19)
(-0.162912 1.73981 1.24376e-17)
(-0.159104 1.76079 -1.07532e-17)
(-0.154066 1.78424 0)
(-0.147485 1.81048 9.36832e-18)
(-0.139133 1.84008 -9.69622e-18)
(-0.128499 1.87398 -5.04275e-19)
(-0.115078 1.91303 0)
(-0.0989211 1.95718 -8.69886e-19)
(-0.0802374 2.00561 0)
(-0.0595109 2.05676 5.31812e-18)
(-0.0375023 2.10871 2.95962e-19)
(-0.0150901 2.15952 -5.13056e-18)
(0.00681069 2.20752 -2.54165e-19)
(0.0274615 2.25135 0)
(0.046359 2.29043 0)
(0.0629953 2.32473 0)
(0.0774219 2.35473 -2.43666e-18)
(0.0898421 2.38093 2.63877e-18)
(0.100256 2.40391 -3.09198e-19)
(0.108846 2.42426 2.33138e-18)
(0.115837 2.44245 -1.93943e-18)
(0.121448 2.45888 2.07546e-18)
(0.12588 2.47396 -1.97278e-18)
(0.12932 2.48803 0)
(0.131935 2.50138 2.17627e-18)
(0.13387 2.51426 -1.65278e-18)
(0.135248 2.52685 1.1547e-18)
(0.136162 2.53929 -1.10243e-18)
(0.136684 2.55166 3.45773e-19)
(0.136864 2.56406 -3.26419e-19)
(0.13674 2.57653 0)
(0.136334 2.58912 -1.84092e-21)
(0.135662 2.60185 0)
(0.134734 2.61476 1.81633e-18)
(0.133554 2.62785 -2.24472e-18)
(0.132124 2.64115 2.35087e-19)
(0.130444 2.65468 -1.78392e-18)
(0.128511 2.66845 1.51247e-18)
(0.126323 2.68247 -2.0364e-19)
(0.123873 2.69676 0)
(0.121155 2.71134 0)
(0.118163 2.7262 -1.41777e-18)
(0.114889 2.74137 3.67632e-19)
(0.111323 2.75687 1.32781e-18)
(0.107456 2.77269 9.33829e-19)
(0.103278 2.78885 -1.22424e-18)
(0.0987768 2.80537 0)
(0.0939398 2.82226 0)
(0.0887542 2.83952 -2.66934e-19)
(0.083206 2.85717 0)
(0.077281 2.87521 -2.51411e-19)
(0.0709641 2.89366 6.99253e-19)
(0.0642403 2.91251 -9.2879e-19)
(0.0570944 2.93179 4.40772e-19)
(0.0495111 2.95148 4.22845e-19)
(0.0414758 2.97161 4.05326e-19)
(0.0329742 2.99218 0)
(0.0239936 3.0132 3.46685e-19)
(0.0146578 3.03438 -3.63648e-19)
(0.00524176 3.05515 6.379e-19)
(-0.00410956 3.07526 -3.21797e-19)
(-0.0133438 3.09478 1.12176e-18)
(-0.0224749 3.11371 -6.87505e-20)
(-0.0315288 3.13198 1.93607e-19)
(-0.040467 3.14961 -1.00352e-18)
(-0.0492842 3.16664 7.64589e-19)
(-0.057979 3.18309 -6.64807e-19)
(-0.0665467 3.19901 0)
(-0.0749836 3.2144 9.22124e-20)
(-0.0832871 3.22931 6.45294e-19)
(-0.0914551 3.24376 -1.28204e-19)
(-0.0994856 3.25778 -4.86519e-20)
(-0.107377 3.27138 -5.2477e-19)
(-0.115128 3.28459 -1.40699e-21)
(-0.122738 3.29744 2.74514e-19)
(-0.130206 3.30997 -3.62671e-19)
(-0.137528 3.32223 2.73924e-19)
(-0.144695 3.33429 -2.77894e-19)
(-0.151685 3.34627 1.83779e-19)
(-0.158474 3.35818 -1.66272e-19)
(-0.165101 3.36984 0)
(-0.17159 3.3811 0)
(-0.177912 3.39196 6.07382e-20)
(-0.184074 3.4024 -5.22025e-20)
(-0.190076 3.4124 1.0084e-21)
(-0.195916 3.42193 -2.95814e-22)
(-0.201592 3.43098 -3.4154e-20)
(-0.207101 3.43954 3.29385e-20)
(-0.0435989 1.55054 -4.07304e-18)
(-0.22536 1.60055 2.95311e-16)
(-0.197178 1.60591 -2.47161e-16)
(-0.197286 1.60921 8.31084e-17)
(-0.19858 1.61412 0)
(-0.199657 1.61967 0)
(-0.200705 1.6256 -1.74441e-18)
(-0.201762 1.63187 -2.23436e-17)
(-0.20281 1.63848 3.76222e-17)
(-0.203826 1.64548 -1.72566e-17)
(-0.204783 1.65293 0)
(-0.205644 1.66094 2.77245e-23)
(-0.206333 1.66968 -4.94659e-19)
(-0.20679 1.67935 0)
(-0.206925 1.69018 9.66378e-19)
(-0.20661 1.70242 9.32855e-19)
(-0.205733 1.71635 -8.82382e-19)
(-0.204165 1.73222 -8.25048e-19)
(-0.201785 1.75027 0)
(-0.198472 1.77064 0)
(-0.194067 1.79338 6.40462e-19)
(-0.188304 1.81857 -2.70158e-22)
(-0.180974 1.8466 5.27392e-19)
(-0.17175 1.87812 -3.83126e-22)
(-0.160131 1.91387 0)
(-0.145861 1.9542 -4.26419e-19)
(-0.129051 1.99883 -1.17347e-18)
(-0.109982 2.04675 -3.56268e-19)
(-0.0891975 2.09643 0)
(-0.0674461 2.14612 0)
(-0.0455571 2.19419 -5.18666e-19)
(-0.0243412 2.23927 4.67038e-19)
(-0.00440035 2.28036 2.51704e-18)
(0.0137839 2.31717 -4.02216e-19)
(0.0298808 2.34983 -3.71416e-19)
(0.0439749 2.37876 -2.97994e-18)
(0.0561732 2.40437 -2.48012e-18)
(0.066496 2.42719 2.95211e-18)
(0.0750919 2.4477 -2.21779e-18)
(0.0821471 2.46629 2.11526e-18)
(0.0878449 2.48334 -4.96994e-19)
(0.0923545 2.49917 0)
(0.0958364 2.51411 3.99417e-18)
(0.0984401 2.52841 -3.38509e-18)
(0.100299 2.54229 -3.97214e-19)
(0.101525 2.55591 3.75469e-19)
(0.102209 2.56941 3.57207e-19)
(0.102421 2.58287 -2.00538e-18)
(0.102212 2.59637 2.56468e-18)
(0.101621 2.60996 0)
(0.100676 2.62368 -5.74064e-19)
(0.0993939 2.63757 0)
(0.0977897 2.65163 0)
(0.0958723 2.66592 -4.91562e-19)
(0.0936451 2.68043 0)
(0.091108 2.69519 -4.45536e-19)
(0.0882594 2.71022 4.24811e-19)
(0.0850964 2.72553 -1.60034e-18)
(0.0816135 2.74114 1.94434e-18)
(0.0778034 2.75706 1.45974e-18)
(0.0736574 2.77331 -1.77956e-18)
(0.0691653 2.7899 6.78283e-19)
(0.0643151 2.80684 6.28203e-19)
(0.0590936 2.82415 -1.25436e-18)
(0.0534863 2.84185 1.17184e-18)
(0.0474778 2.85993 -1.15429e-18)
(0.0410512 2.87841 5.42883e-19)
(0.034189 2.89729 1.02966e-18)
(0.0268731 2.9166 -1.01978e-18)
(0.0190849 2.93632 -4.77706e-19)
(0.0108059 2.95647 -9.20308e-19)
(0.00201765 2.97705 4.24455e-19)
(-0.00729749 2.99808 1.20844e-18)
(-0.0171554 3.01955 -4.36609e-19)
(-0.0274215 3.04116 1.10066e-18)
(-0.0377922 3.06233 -1.4671e-18)
(-0.0481034 3.08281 4.96536e-21)
(-0.0583011 3.10268 -9.06429e-19)
(-0.0683933 3.12198 1.52855e-18)
(-0.0784027 3.14063 0)
(-0.0883032 3.15863 0)
(-0.0980835 3.17601 2.48223e-19)
(-0.107741 3.19281 -1.13633e-18)
(-0.117272 3.20905 9.01629e-19)
(-0.126672 3.22477 6.76977e-19)
(-0.135937 3.24 -5.8384e-19)
(-0.145065 3.25475 5.6453e-19)
(-0.154054 3.26906 -5.6667e-19)
(-0.162899 3.28294 -7.05632e-20)
(-0.171596 3.29642 6.14545e-20)
(-0.180139 3.30952 5.42104e-20)
(-0.188522 3.32228 0)
(-0.196738 3.33473 0)
(-0.204785 3.34692 3.38443e-20)
(-0.212662 3.35894 2.88085e-20)
(-0.220323 3.37085 1.65322e-19)
(-0.227775 3.38258 -3.05487e-20)
(-0.235052 3.39397 -1.39368e-19)
(-0.242141 3.40496 6.62438e-20)
(-0.249036 3.41553 -6.73751e-20)
(-0.255743 3.42565 -1.29942e-20)
(-0.262262 3.4353 1.24776e-20)
(-0.26859 3.44446 -3.0211e-20)
(-0.274722 3.4531 -2.0024e-20)
(-0.0752041 1.55053 -8.98941e-17)
(-0.258139 1.59812 1.52692e-16)
(-0.229739 1.60416 -2.60019e-16)
(-0.22992 1.60732 9.10812e-17)
(-0.231296 1.61208 1.86757e-18)
(-0.23247 1.61749 -4.07579e-17)
(-0.233638 1.62325 6.11293e-17)
(-0.234841 1.62931 -2.38422e-17)
(-0.236068 1.63565 2.05622e-17)
(-0.237306 1.64228 -1.75279e-17)
(-0.238544 1.64922 0)
(-0.239764 1.65652 4.74133e-19)
(-0.240945 1.66425 -1.5303e-17)
(-0.242043 1.6725 1.48495e-17)
(-0.242999 1.68143 -9.29879e-19)
(-0.243745 1.69122 -1.48451e-17)
(-0.244203 1.70208 1.56901e-17)
(-0.244268 1.71426 1.53256e-17)
(-0.243803 1.72803 -3.45371e-20)
(-0.242688 1.74362 -1.30217e-17)
(-0.240805 1.76128 -7.56405e-19)
(-0.238026 1.78115 6.98404e-19)
(-0.23424 1.80333 -1.91667e-18)
(-0.229264 1.8278 -5.77627e-19)
(-0.222822 1.85476 -9.39574e-18)
(-0.214775 1.88459 8.55685e-18)
(-0.204742 1.91782 -7.97266e-22)
(-0.19224 1.95501 8.28983e-19)
(-0.177251 1.99613 -7.70025e-19)
(-0.159934 2.04068 7.06669e-19)
(-0.140633 2.08757 5.76803e-18)
(-0.119924 2.13535 -5.24337e-18)
(-0.0985245 2.18251 5.24247e-19)
(-0.0772006 2.22775 -1.52239e-21)
(-0.0566452 2.27 4.28974e-19)
(-0.0373447 2.30861 3.89703e-19)
(-0.0197674 2.34347 -6.05438e-18)
(-0.00410685 2.37481 4.13579e-20)
(0.00974332 2.40295 5.64609e-18)
(0.0218017 2.42823 0)
(0.0320912 2.45117 0)
(0.0407241 2.47212 0)
(0.0478472 2.49142 -4.51238e-18)
(0.0536071 2.50935 3.83889e-18)
(0.0581437 2.52622 0)
(0.0615948 2.54228 0)
(0.0640938 2.55777 -3.64226e-18)
(0.0657631 2.57288 2.71708e-18)
(0.0667087 2.58775 2.90596e-18)
(0.0670189 2.6025 -2.78728e-18)
(0.0667648 2.61721 6.54342e-19)
(0.0660015 2.63197 0)
(0.0647794 2.64681 0)
(0.0631287 2.66178 1.12164e-18)
(0.0610664 2.67694 2.11433e-18)
(0.0586082 2.6923 -1.53725e-18)
(0.0557685 2.70788 -4.79733e-19)
(0.0525544 2.72372 0)
(0.0489664 2.73984 -2.16611e-18)
(0.0450019 2.75625 3.28321e-20)
(0.0406562 2.77298 2.00177e-18)
(0.0359217 2.79004 -1.51786e-18)
(0.0307873 2.80745 7.21483e-19)
(0.02524 2.82523 0)
(0.0192653 2.84339 0)
(0.0128468 2.86194 6.1256e-19)
(0.00596544 2.88089 -3.5674e-20)
(-0.00139896 2.90026 -3.63765e-20)
(-0.00926757 2.92005 -5.6978e-19)
(-0.0176625 2.94027 0)
(-0.0266063 2.96091 1.01392e-18)
(-0.0361213 2.982 9.74724e-19)
(-0.0462294 3.00352 -1.38958e-18)
(-0.0569506 3.02548 -8.71951e-19)
(-0.0681409 3.04758 0)
(-0.079469 3.0692 -2.31337e-18)
(-0.0907486 3.09008 1.88423e-18)
(-0.101932 3.11033 5.46241e-21)
(-0.113003 3.13002 -3.29381e-19)
(-0.123978 3.14907 3.13433e-19)
(-0.13486 3.16747 2.95773e-19)
(-0.145628 3.18524 0)
(-0.156277 3.20242 0)
(-0.166804 3.21904 0)
(-0.177204 3.23512 -8.58361e-19)
(-0.187473 3.2507 -1.40508e-19)
(-0.197607 3.2658 1.69233e-18)
(-0.207603 3.28045 -7.9933e-19)
(-0.217453 3.29465 -5.14572e-19)
(-0.227149 3.30842 5.80059e-19)
(-0.236678 3.32179 0)
(-0.246025 3.33476 4.02417e-19)
(-0.255173 3.34739 -3.87925e-19)
(-0.264115 3.35972 0)
(-0.272856 3.37182 -6.33355e-20)
(-0.281375 3.38375 -1.86287e-19)
(-0.289652 3.3955 1.78221e-19)
(-0.297726 3.40696 -1.10608e-19)
(-0.3056 3.41804 1.06489e-19)
(-0.313257 3.42871 0)
(-0.320702 3.43894 -2.4068e-20)
(-0.327935 3.44868 1.89086e-20)
(-0.334949 3.45792 2.59058e-20)
(-0.341737 3.46662 -7.27506e-20)
(-0.348293 3.47476 4.94361e-20)
(-0.105896 1.54995 2.85627e-18)
(-0.289979 1.59514 0)
(-0.261347 1.60176 -1.29033e-16)
(-0.261547 1.60472 9.60662e-17)
(-0.262955 1.60933 -8.0296e-23)
(-0.264175 1.61464 -1.37169e-18)
(-0.265402 1.62033 0)
(-0.26668 1.6263 -2.47029e-17)
(-0.267997 1.63253 2.18192e-17)
(-0.269347 1.63901 0)
(-0.270728 1.64575 1.01635e-18)
(-0.272133 1.65276 0)
(-0.273554 1.66008 6.31112e-23)
(-0.274977 1.66774 -1.37608e-17)
(-0.276378 1.67581 2.74496e-17)
(-0.277733 1.6844 -1.38608e-17)
(-0.278978 1.69362 1.39663e-17)
(-0.280044 1.70362 -2.9889e-17)
(-0.280864 1.71461 1.4085e-17)
(-0.281319 1.72682 8.71513e-19)
(-0.281312 1.74051 -8.45456e-19)
(-0.2807 1.75593 -1.1207e-17)
(-0.27935 1.77329 1.35317e-17)
(-0.277153 1.79277 1.39221e-18)
(-0.273985 1.81448 1.28193e-18)
(-0.269724 1.83841 -1.15826e-18)
(-0.264159 1.86453 1.04746e-18)
(-0.257064 1.89311 0)
(-0.248302 1.92449 -7.05527e-22)
(-0.237479 1.95908 8.36066e-22)
(-0.224238 1.99713 -7.53607e-19)
(-0.208688 2.03837 0)
(-0.191043 2.08218 0)
(-0.171697 2.12747 9.88212e-18)
(-0.151223 2.17298 -7.43712e-18)
(-0.13029 2.2175 0)
(-0.109587 2.26003 -6.96341e-18)
(-0.089701 2.29976 1.11395e-17)
(-0.0710191 2.3363 -6.56117e-18)
(-0.054022 2.36965 0)
(-0.0387768 2.40009 -5.62885e-18)
(-0.0251598 2.42784 4.76443e-18)
(-0.0132645 2.45325 1.12367e-18)
(-0.00305945 2.47669 -4.77809e-18)
(0.00554221 2.49844 3.56338e-18)
(0.0126426 2.51874 0)
(0.0183474 2.53784 3.63966e-18)
(0.0227716 2.55599 -4.36804e-18)
(0.0260375 2.5734 3.28468e-18)
(0.0282679 2.59028 -2.36984e-18)
(0.0295804 2.60677 -3.70991e-18)
(0.0300619 2.62302 2.84938e-18)
(0.0298836 2.63914 -6.74619e-19)
(0.0289239 2.65522 1.8989e-18)
(0.0274494 2.67134 -3.66659e-20)
(0.0254137 2.68755 -2.32286e-18)
(0.0228664 2.70389 0)
(0.0198399 2.72042 -3.11095e-18)
(0.0163466 2.73718 2.96837e-18)
(0.0123957 2.7542 -1.9049e-18)
(0.00799501 2.7715 0)
(0.00314467 2.78911 8.52061e-19)
(-0.002163 2.80706 2.43374e-18)
(-0.00793826 2.82537 7.4465e-19)
(-0.0141924 2.84405 -3.82255e-20)
(-0.0209413 2.86312 -7.31841e-19)
(-0.0282059 2.8826 2.6668e-18)
(-0.0360085 2.9025 -2.62337e-18)
(-0.0443723 2.92282 -1.23317e-18)
(-0.053323 2.94358 2.31147e-18)
(-0.0628872 2.96477 -1.71554e-18)
(-0.0730916 2.98641 -2.14057e-18)
(-0.0839624 3.00849 3.00601e-18)
(-0.095525 3.03101 -1.00584e-18)
(-0.107628 3.05364 0)
(-0.119916 3.07577 -8.22744e-19)
(-0.132177 3.0971 8.57667e-19)
(-0.144377 3.11775 -2.61374e-18)
(-0.156453 3.13782 1.82264e-18)
(-0.168416 3.15731 -6.79794e-19)
(-0.180303 3.17615 -1.56669e-18)
(-0.192088 3.19436 7.68869e-20)
(-0.203763 3.21196 7.48989e-20)
(-0.215325 3.229 1.09426e-18)
(-0.226768 3.24549 1.19444e-18)
(-0.238087 3.26148 -6.83188e-20)
(-0.249275 3.27697 -6.53783e-19)
(-0.260327 3.292 1.91619e-19)
(-0.271228 3.30656 -6.5337e-19)
(-0.281962 3.32066 7.95615e-19)
(-0.292506 3.33431 0)
(-0.302839 3.3475 4.45682e-19)
(-0.312934 3.36026 -7.57874e-19)
(-0.32278 3.37268 3.633e-19)
(-0.332385 3.38482 2.94801e-19)
(-0.341735 3.39678 -2.46328e-19)
(-0.350834 3.40856 2.32532e-20)
(-0.359734 3.42008 -1.07579e-19)
(-0.36843 3.43125 1.07204e-19)
(-0.376896 3.44203 9.41446e-21)
(-0.385131 3.45236 4.71234e-21)
(-0.393127 3.46219 0)
(-0.400872 3.47149 9.14861e-22)
(-0.408353 3.48021 -2.29343e-21)
(-0.415563 3.48834 -3.50865e-21)
(-0.422491 3.49587 1.52549e-19)
(-0.429134 3.50278 -1.59392e-19)
(-0.135693 1.54879 -9.29179e-17)
(-0.320873 1.59155 0)
(-0.291957 1.59858 1.42639e-16)
(-0.292117 1.60127 -1.00654e-16)
(-0.29351 1.60571 -2.11314e-18)
(-0.294731 1.61092 2.92571e-18)
(-0.295972 1.61655 3.46416e-17)
(-0.29727 1.62247 -2.81547e-17)
(-0.298616 1.62866 -1.40568e-18)
(-0.300005 1.63508 -2.04057e-17)
(-0.301436 1.64176 1.69273e-17)
(-0.302911 1.64869 9.53351e-19)
(-0.304427 1.65588 5.19297e-23)
(-0.305981 1.66334 8.29745e-19)
(-0.307568 1.67111 8.00521e-19)
(-0.309174 1.67923 1.26277e-17)
(-0.310782 1.68775 -2.91657e-20)
(-0.312362 1.69676 -1.21212e-17)
(-0.313875 1.70637 0)
(-0.315265 1.71672 -8.31399e-19)
(-0.316424 1.72797 -1.17226e-17)
(-0.31729 1.74034 1.17545e-17)
(-0.317714 1.75407 1.3119e-17)
(-0.317604 1.7694 -1.26122e-17)
(-0.316789 1.78654 0)
(-0.315159 1.80569 1.38763e-18)
(-0.312593 1.82696 0)
(-0.308987 1.85037 1.16567e-18)
(-0.304201 1.87589 2.10623e-18)
(-0.298018 1.90349 -9.48955e-19)
(-0.290279 1.93344 8.56712e-19)
(-0.280818 1.96601 -1.57552e-18)
(-0.269286 2.00142 1.46873e-18)
(-0.255496 2.03965 -1.22719e-17)
(-0.239608 2.08035 1.01306e-17)
(-0.221889 2.12285 0)
(-0.202754 2.16621 8.45377e-18)
(-0.182745 2.20938 -5.82786e-18)
(-0.16247 2.25142 0)
(-0.142539 2.2916 0)
(-0.123429 2.32926 7.35664e-19)
(-0.105547 2.36425 0)
(-0.0892019 2.39666 -6.30035e-19)
(-0.0743964 2.42668 0)
(-0.0611465 2.45451 -3.92476e-18)
(-0.0495356 2.48048 4.3003e-18)
(-0.0395557 2.50479 -1.01982e-18)
(-0.0311559 2.52763 9.64352e-19)
(-0.0242746 2.54918 0)
(-0.0188319 2.56965 -8.7342e-19)
(-0.0147272 2.58923 8.31314e-19)
(-0.0118461 2.6081 7.96795e-19)
(-0.0100959 2.62646 -5.5559e-21)
(-0.00932226 2.64444 0)
(-0.00945063 2.66215 2.02827e-18)
(-0.0104023 2.67973 -4.0698e-20)
(-0.0120684 2.69726 -2.49478e-18)
(-0.0144621 2.71483 1.17188e-18)
(-0.0174613 2.73252 -1.10395e-18)
(-0.021061 2.75036 1.08065e-18)
(-0.0252262 2.76841 -2.00691e-18)
(-0.0299457 2.78672 2.89021e-18)
(-0.0352208 2.80534 -2.77291e-18)
(-0.0410491 2.82428 -2.60017e-18)
(-0.0474279 2.84358 1.68868e-18)
(-0.0543692 2.86326 -7.98887e-19)
(-0.0618958 2.88334 -2.98456e-18)
(-0.0700297 2.90384 1.47827e-18)
(-0.0787939 2.92477 -6.37799e-19)
(-0.0882169 2.94614 3.98278e-18)
(-0.0983299 2.96795 1.61407e-20)
(-0.109162 2.99021 -1.59098e-20)
(-0.120744 3.01291 -2.2068e-18)
(-0.133107 3.03606 2.13545e-18)
(-0.146097 3.05932 -3.08506e-18)
(-0.159333 3.08202 -1.85283e-18)
(-0.172586 3.10389 2.73233e-18)
(-0.185815 3.12499 -1.64135e-18)
(-0.198961 3.14543 3.93069e-18)
(-0.211988 3.16534 -1.15851e-18)
(-0.224911 3.18467 1.3634e-18)
(-0.23774 3.20336 -1.36668e-18)
(-0.250474 3.22144 -1.51534e-18)
(-0.26311 3.23893 9.05455e-19)
(-0.275635 3.25589 7.71189e-19)
(-0.288038 3.27232 -1.2803e-18)
(-0.300311 3.28827 -2.24914e-19)
(-0.312441 3.30371 3.79805e-19)
(-0.324401 3.31866 -1.68449e-18)
(-0.336159 3.33311 7.03833e-19)
(-0.347691 3.34704 1.49913e-19)
(-0.358978 3.36043 0)
(-0.370009 3.37332 -5.46746e-20)
(-0.380781 3.38578 3.51847e-19)
(-0.391306 3.3979 -3.73444e-19)
(-0.401558 3.40987 -2.00172e-19)
(-0.41156 3.42174 4.07539e-19)
(-0.421366 3.4334 -1.77563e-19)
(-0.430952 3.44472 1.1751e-19)
(-0.440293 3.45561 -1.09255e-19)
(-0.449375 3.46604 -7.10691e-20)
(-0.458178 3.47593 5.20986e-20)
(-0.466687 3.48524 -2.65418e-20)
(-0.474884 3.49394 3.69314e-20)
(-0.482758 3.502 0)
(-0.490301 3.50941 4.48061e-21)
(-0.497505 3.51616 0)
(-0.504371 3.52226 -6.27654e-21)
(-0.164646 1.54707 9.43476e-17)
(-0.35081 1.58729 -3.3841e-16)
(-0.321541 1.59455 -4.26926e-18)
(-0.321625 1.59691 1.04545e-16)
(-0.322969 1.60115 0)
(-0.324167 1.60625 -1.53962e-18)
(-0.325396 1.61181 -3.65886e-17)
(-0.326689 1.61769 4.81753e-20)
(-0.328033 1.62384 2.22996e-17)
(-0.329423 1.63025 1.26534e-18)
(-0.330861 1.6369 1.65833e-17)
(-0.332347 1.6438 -3.03857e-20)
(-0.333883 1.65096 -2.79091e-17)
(-0.335469 1.65838 1.16851e-17)
(-0.337106 1.66607 -1.25441e-17)
(-0.338792 1.67406 1.20381e-17)
(-0.340523 1.68237 0)
(-0.342289 1.69102 -1.45705e-18)
(-0.344074 1.70009 1.47297e-18)
(-0.345854 1.70963 -1.503e-18)
(-0.347591 1.71975 2.45474e-17)
(-0.349232 1.73055 -2.51225e-17)
(-0.350719 1.74218 0)
(-0.35192 1.75483 0)
(-0.352759 1.7687 1.57471e-18)
(-0.353086 1.78404 0)
(-0.352778 1.80105 1.46115e-18)
(-0.351685 1.81993 2.06039e-17)
(-0.349688 1.84079 -2.30897e-17)
(-0.346682 1.8637 2.34558e-18)
(-0.34257 1.88863 2.12144e-18)
(-0.337204 1.91551 1.72058e-17)
(-0.330394 1.94436 -1.55143e-17)
(-0.322032 1.97535 1.55744e-18)
(-0.31197 2.00866 -1.28726e-17)
(-0.299937 2.04436 1.06942e-17)
(-0.285866 2.08225 0)
(-0.269952 2.12196 7.97403e-18)