/*--------------------------------*- C++ -*----------------------------------*\
  =========                 |
  \\      /  F ield         | OpenFOAM: The Open Source CFD Toolbox
   \\    /   O peration     | Website:  https://openfoam.org
    \\  /    A nd           | Version:  10
     \\/     M anipulation  |
\*---------------------------------------------------------------------------*/
FoamFile
{
    format      ascii;
    class       volScalarField;
    location    "39000";
    object      yPlus;
}
// * * * * * * * * * * * * * * * * * * * * * * * * * * * * * * * * * * * * * //

dimensions      [0 0 0 0 0 0 0];

internalField   uniform 0;

boundaryField
{
    right
    {
        type            cyclic;
    }
    left
    {
        type            cyclic;
    }
    outerWall
    {
        type            calculated;
        value           nonuniform List<scalar> 0();
    }
    stirrerWall
    {
        type            calculated;
        value           nonuniform List<scalar> 
398
(
0.182831
0.123955
0.0937272
0.0804538
0.0741301
0.0706831
0.0685123
0.0671885
0.0666882
0.0671017
0.0684887
0.0708788
0.0742382
0.0785154
0.0836497
0.089417
0.0958342
0.102888
0.11058
0.118821
0.127621
0.136879
0.146369
0.156007
0.165659
0.175176
0.184357
0.193077
0.20132
0.208812
0.215436
0.221014
0.225388
0.228566
0.23091
0.232598
0.233683
0.234
0.233092
0.230929
0.228169
0.223913
0.218471
0.212834
0.206148
0.198756
0.191071
0.183022
0.17511
0.167305
0.159574
0.152016
0.144668
0.137525
0.130579
0.123794
0.117053
0.11042
0.104044
0.0979796
0.0922351
0.086783
0.0815832
0.0766519
0.071851
0.0672721
0.0627914
0.0585147
0.0543969
0.0504775
0.0469038
0.0438729
0.0414735
0.0396734
0.0382607
0.0366735
0.0340211
0.0292633
0.0213487
0.00618793
0.00618793
0.0165109
0.00701272
0.00987791
0.0122149
0.0156816
0.0192052
0.0223537
0.0246527
0.0261837
0.0270456
0.0273298
0.0271372
0.0265666
0.0257034
0.0246205
0.0233585
0.0220155
0.0205868
0.019185
0.0179196
0.0167476
0.0156371
0.0145763
0.0135755
0.0126493
0.0118191
0.0111148
0.0105745
0.010252
0.0102298
0.0107187
0.0118907
0.0137707
0.0162549
0.019125
0.0221467
0.025137
0.0279854
0.0306779
0.0334011
0.0361447
0.0389127
0.0417321
0.0446696
0.0479263
0.0514945
0.055782
0.0610597
0.0682655
0.0768445
0.0877031
0.100511
0.115027
0.131877
0.151235
0.1731
0.197602
0.224817
0.254811
0.287621
0.323327
0.362094
0.404233
0.450205
0.500588
0.555994
0.61708
0.684703
0.759925
0.844026
0.938917
1.0463
1.16861
1.30832
1.46124
1.62041
1.78162
1.94172
2.09844
2.25074
2.3917
2.52092
2.63803
2.74347
2.83898
2.9267
3.00977
3.09021
3.16921
3.24697
3.32307
3.39706
3.46867
3.53456
3.58869
3.6338
3.67257
3.70084
3.71678
3.72112
3.71747
3.7065
3.68933
3.66609
3.63574
3.59854
3.55495
3.50515
3.44941
3.38789
3.32049
3.24677
3.16538
3.07896
2.98734
2.89746
2.80281
2.70345
2.59994
2.49337
2.38476
2.27503
2.16521
2.05664
1.95088
1.84971
1.75483
0.0235198
0.0362351
0.0235941
0.0192784
0.0241596
0.0378512
0.0650405
0.106091
0.146243
0.179588
0.203926
0.218848
0.224259
0.221557
0.212935
0.19744
0.183926
0.171646
0.158893
0.145561
0.131972
0.118441
0.105376
0.0930473
0.0816253
0.0712559
0.0619655
0.0538995
0.0472308
0.042193
0.0393537
0.0412944
0.0615679
0.104577
0.164033
0.219955
0.263365
0.290619
0.304742
0.321536
0.344937
0.377054
0.413062
0.446686
0.477229
0.509552
0.543474
0.58065
0.624646
0.683201
0.781297
0.93516
1.28207
2.25163
4.14397
6.64226
9.06662
10.7961
11.3404
11.1469
9.9809
10.3588
10.6514
9.86956
11.1352
11.6423
11.7301
11.7828
12.2274
12.5644
12.5966
11.1074
11.5469
12.6467
11.1812
11.8551
11.816
11.4822
11.9628
11.4171
11.5763
11.6913
11.8814
12.0668
12.2483
12.4268
12.6034
12.7797
12.955
13.1294
13.3033
13.4769
13.6506
13.8247
13.9994
14.1748
14.3514
14.5291
14.7083
14.8891
15.0718
15.2569
15.445
15.6354
15.8289
16.0257
16.226
16.4302
16.6383
16.8497
0.0235198
0.0671013
0.098612
0.134528
0.137015
0.135668
0.138775
0.140631
0.153313
0.177722
0.208418
0.245515
0.289264
0.339506
0.396303
0.459696
0.529542
0.605323
0.686647
0.772883
0.863279
0.957118
1.05393
1.15358
1.25635
1.36382
1.48059
1.60295
1.72297
1.84052
1.95578
2.06749
2.17535
2.27948
2.38321
2.4915
2.59373
2.70351
2.81795
2.9355
3.05075
3.11793
3.17708
3.24079
3.30077
3.36808
3.43946
3.52014
3.61543
3.72547
3.85555
4.01477
4.21496
4.46809
4.79067
5.20192
5.73147
6.3233
6.94714
7.62628
8.37412
9.19263
10.067
10.9597
9.38241
10.1959
10.1253
10.1835
10.3467
9.58119
7.38142
4.31537
1.79775
0.797866
0.592676
0.598749
0.565762
0.474721
0.370054
0.268893
)
;
    }
    top
    {
        type            empty;
    }
    bottom
    {
        type            empty;
    }
    procBoundary1to0
    {
        type            processor;
        value           uniform 0;
    }
}


// ************************************************************************* //
