/*--------------------------------*- C++ -*----------------------------------*\
  =========                 |
  \\      /  F ield         | OpenFOAM: The Open Source CFD Toolbox
   \\    /   O peration     | Website:  https://openfoam.org
    \\  /    A nd           | Version:  10
     \\/     M anipulation  |
\*---------------------------------------------------------------------------*/
FoamFile
{
    format      ascii;
    class       volScalarField;
    location    "24000";
    object      nut;
}
// * * * * * * * * * * * * * * * * * * * * * * * * * * * * * * * * * * * * * //

dimensions      [0 2 -1 0 0 0 0];

internalField   nonuniform List<scalar> 
17808
(
3.38167e-06
2.58508e-05
4.50643e-05
6.35955e-05
8.3103e-05
0.000103263
0.000123932
0.000145037
0.000166539
0.000188411
0.000210641
0.000233217
0.000256135
0.000279391
0.000302983
0.00032691
0.000351173
0.000375772
0.000400711
0.000425991
0.000451614
0.000477583
0.000503902
0.000530574
0.000557602
0.000584991
0.000612743
0.000640865
0.000669358
0.000698229
0.00072748
0.000757117
0.000787144
0.000817565
0.000848386
0.00087961
0.000911244
0.00094329
0.000975755
0.00100864
0.00104196
0.00107571
0.00110989
0.00114452
0.00117959
0.00121512
0.0012511
0.00128754
0.00132445
0.00136183
0.00139968
0.00143801
0.00147682
0.00151612
0.00155591
0.00159619
0.00163697
0.00167825
0.00172004
0.00176233
0.00180513
0.00184844
0.00189226
0.00193659
0.00198144
0.00202681
0.0020727
0.00211909
0.002166
0.00221342
0.00226135
0.00230978
0.00235872
0.00240815
0.00245807
0.00250849
0.00255938
0.00261074
0.00266256
0.00271483
0.00276754
0.00282067
0.00287422
0.00292815
0.00298246
0.00303713
0.00309213
0.00314744
0.00320303
0.00325887
0.00331493
0.00337118
3.37423e-06
2.61116e-05
4.50429e-05
6.3575e-05
8.30788e-05
0.000103235
0.000123901
0.000145004
0.000166504
0.000188375
0.000210603
0.000233179
0.000256096
0.000279352
0.000302943
0.000326871
0.000351134
0.000375734
0.000400674
0.000425954
0.000451578
0.000477548
0.000503868
0.000530541
0.00055757
0.00058496
0.000612714
0.000640836
0.000669331
0.000698203
0.000727455
0.000757093
0.000787121
0.000817544
0.000848365
0.000879591
0.000911225
0.000943273
0.000975739
0.00100863
0.00104194
0.00107569
0.00110988
0.00114451
0.00117958
0.00121511
0.00125109
0.00128753
0.00132444
0.00136182
0.00139967
0.00143801
0.00147682
0.00151612
0.00155591
0.00159619
0.00163698
0.00167826
0.00172004
0.00176233
0.00180513
0.00184844
0.00189227
0.0019366
0.00198146
0.00202682
0.00207271
0.00211911
0.00216602
0.00221344
0.00226137
0.0023098
0.00235874
0.00240817
0.0024581
0.00250851
0.0025594
0.00261076
0.00266258
0.00271486
0.00276757
0.0028207
0.00287425
0.00292818
0.0029825
0.00303716
0.00309216
0.00314747
0.00320306
0.0032589
0.00331497
0.00337122
3.3712e-06
2.61658e-05
4.50175e-05
6.3549e-05
8.30506e-05
0.000103206
0.000123871
0.000144974
0.000166473
0.000188344
0.000210572
0.000233147
0.000256065
0.00027932
0.000302912
0.00032684
0.000351104
0.000375705
0.000400645
0.000425926
0.00045155
0.000477521
0.000503842
0.000530516
0.000557546
0.000584937
0.000612691
0.000640815
0.00066931
0.000698183
0.000727436
0.000757075
0.000787104
0.000817528
0.00084835
0.000879577
0.000911212
0.000943261
0.000975727
0.00100862
0.00104193
0.00107568
0.00110987
0.0011445
0.00117958
0.0012151
0.00125109
0.00128753
0.00132444
0.00136182
0.00139968
0.00143801
0.00147682
0.00151612
0.00155591
0.0015962
0.00163698
0.00167827
0.00172005
0.00176234
0.00180515
0.00184846
0.00189228
0.00193662
0.00198147
0.00202684
0.00207273
0.00211913
0.00216604
0.00221346
0.00226139
0.00230982
0.00235876
0.0024082
0.00245812
0.00250854
0.00255943
0.00261079
0.00266261
0.00271489
0.0027676
0.00282074
0.00287428
0.00292822
0.00298253
0.0030372
0.0030922
0.00314751
0.0032031
0.00325895
0.00331501
0.00337126
3.37122e-06
2.61468e-05
4.50001e-05
6.3527e-05
8.30262e-05
0.00010318
0.000123845
0.000144947
0.000166445
0.000188316
0.000210544
0.00023312
0.000256037
0.000279293
0.000302885
0.000326813
0.000351078
0.000375679
0.00040062
0.000425901
0.000451527
0.000477498
0.00050382
0.000530494
0.000557525
0.000584917
0.000612673
0.000640797
0.000669293
0.000698166
0.00072742
0.00075706
0.00078709
0.000817514
0.000848338
0.000879566
0.000911202
0.000943251
0.000975719
0.00100861
0.00104193
0.00107568
0.00110987
0.0011445
0.00117957
0.0012151
0.00125109
0.00128753
0.00132444
0.00136182
0.00139968
0.00143801
0.00147683
0.00151613
0.00155592
0.00159621
0.00163699
0.00167827
0.00172006
0.00176236
0.00180516
0.00184847
0.00189229
0.00193663
0.00198149
0.00202686
0.00207274
0.00211914
0.00216606
0.00221348
0.00226141
0.00230985
0.00235878
0.00240822
0.00245815
0.00250856
0.00255946
0.00261082
0.00266265
0.00271492
0.00276763
0.00282077
0.00287432
0.00292826
0.00298257
0.00303724
0.00309224
0.00314755
0.00320314
0.00325899
0.00331505
0.00337131
3.37148e-06
2.61385e-05
4.49907e-05
6.35122e-05
8.30096e-05
0.000103163
0.000123826
0.000144928
0.000166425
0.000188296
0.000210523
0.000233098
0.000256015
0.000279271
0.000302863
0.000326791
0.000351056
0.000375658
0.000400599
0.000425881
0.000451507
0.000477479
0.000503801
0.000530476
0.000557508
0.0005849
0.000612657
0.000640781
0.000669279
0.000698153
0.000727408
0.000757048
0.000787079
0.000817504
0.000848328
0.000879557
0.000911193
0.000943244
0.000975712
0.0010086
0.00104192
0.00107567
0.00110986
0.00114449
0.00117957
0.0012151
0.00125109
0.00128753
0.00132444
0.00136183
0.00139968
0.00143801
0.00147683
0.00151613
0.00155593
0.00159621
0.001637
0.00167828
0.00172007
0.00176237
0.00180517
0.00184848
0.00189231
0.00193665
0.00198151
0.00202688
0.00207276
0.00211916
0.00216608
0.0022135
0.00226143
0.00230987
0.00235881
0.00240825
0.00245818
0.00250859
0.00255949
0.00261085
0.00266268
0.00271495
0.00276767
0.0028208
0.00287435
0.00292829
0.00298261
0.00303728
0.00309228
0.00314759
0.00320318
0.00325903
0.00331509
0.00337135
3.37161e-06
2.6135e-05
4.49848e-05
6.35011e-05
8.29968e-05
0.000103149
0.000123812
0.000144912
0.00016641
0.000188279
0.000210506
0.000233081
0.000255997
0.000279253
0.000302845
0.000326773
0.000351037
0.000375639
0.00040058
0.000425863
0.000451489
0.000477462
0.000503785
0.000530461
0.000557493
0.000584886
0.000612643
0.000640768
0.000669266
0.000698141
0.000727397
0.000757038
0.000787069
0.000817495
0.000848321
0.00087955
0.000911187
0.000943238
0.000975707
0.0010086
0.00104192
0.00107567
0.00110986
0.00114449
0.00117957
0.0012151
0.00125109
0.00128753
0.00132445
0.00136183
0.00139969
0.00143802
0.00147684
0.00151614
0.00155594
0.00159622
0.00163701
0.00167829
0.00172008
0.00176238
0.00180518
0.0018485
0.00189232
0.00193667
0.00198152
0.00202689
0.00207278
0.00211918
0.0021661
0.00221352
0.00226145
0.00230989
0.00235883
0.00240827
0.0024582
0.00250862
0.00255951
0.00261088
0.00266271
0.00271498
0.0027677
0.00282084
0.00287439
0.00292833
0.00298264
0.00303731
0.00309232
0.00314763
0.00320322
0.00325907
0.00331513
0.00337139
3.37191e-06
2.61311e-05
4.49811e-05
6.34924e-05
8.29859e-05
0.000103136
0.000123799
0.000144899
0.000166396
0.000188265
0.000210491
0.000233066
0.000255982
0.000279237
0.000302828
0.000326756
0.000351021
0.000375623
0.000400564
0.000425847
0.000451474
0.000477447
0.00050377
0.000530447
0.00055748
0.000584873
0.000612631
0.000640757
0.000669256
0.000698131
0.000727388
0.00075703
0.000787062
0.000817489
0.000848314
0.000879544
0.000911183
0.000943234
0.000975704
0.0010086
0.00104192
0.00107567
0.00110986
0.00114449
0.00117957
0.0012151
0.00125109
0.00128754
0.00132445
0.00136183
0.00139969
0.00143803
0.00147685
0.00151615
0.00155594
0.00159623
0.00163702
0.00167831
0.0017201
0.00176239
0.0018052
0.00184851
0.00189234
0.00193668
0.00198154
0.00202691
0.0020728
0.0021192
0.00216612
0.00221354
0.00226148
0.00230992
0.00235886
0.0024083
0.00245823
0.00250865
0.00255954
0.00261091
0.00266274
0.00271502
0.00276773
0.00282087
0.00287442
0.00292836
0.00298268
0.00303735
0.00309236
0.00314767
0.00320326
0.00325911
0.00331517
0.00337143
3.37234e-06
2.61281e-05
4.4979e-05
6.34858e-05
8.29768e-05
0.000103126
0.000123787
0.000144887
0.000166384
0.000188253
0.000210479
0.000233052
0.000255968
0.000279223
0.000302814
0.000326742
0.000351007
0.000375609
0.00040055
0.000425833
0.00045146
0.000477434
0.000503758
0.000530435
0.000557468
0.000584862
0.000612621
0.000640747
0.000669247
0.000698123
0.00072738
0.000757023
0.000787056
0.000817483
0.00084831
0.00087954
0.000911179
0.000943232
0.000975702
0.0010086
0.00104192
0.00107567
0.00110986
0.00114449
0.00117957
0.00121511
0.00125109
0.00128754
0.00132446
0.00136184
0.0013997
0.00143803
0.00147685
0.00151616
0.00155595
0.00159624
0.00163703
0.00167832
0.00172011
0.00176241
0.00180521
0.00184853
0.00189236
0.0019367
0.00198156
0.00202693
0.00207282
0.00211922
0.00216614
0.00221356
0.0022615
0.00230994
0.00235888
0.00240832
0.00245826
0.00250867
0.00255957
0.00261094
0.00266277
0.00271505
0.00276776
0.0028209
0.00287446
0.0029284
0.00298272
0.00303739
0.00309239
0.0031477
0.0032033
0.00325915
0.00331521
0.00337147
3.37277e-06
2.61265e-05
4.49783e-05
6.34811e-05
8.29694e-05
0.000103117
0.000123778
0.000144877
0.000166373
0.000188242
0.000210468
0.000233041
0.000255957
0.000279211
0.000302802
0.00032673
0.000350994
0.000375596
0.000400538
0.000425821
0.000451448
0.000477422
0.000503746
0.000530424
0.000557458
0.000584852
0.000612611
0.000640739
0.000669239
0.000698115
0.000727373
0.000757017
0.00078705
0.000817478
0.000848306
0.000879537
0.000911177
0.00094323
0.000975701
0.0010086
0.00104192
0.00107567
0.00110986
0.0011445
0.00117958
0.00121511
0.0012511
0.00128755
0.00132446
0.00136185
0.00139971
0.00143804
0.00147686
0.00151617
0.00155597
0.00159626
0.00163704
0.00167833
0.00172012
0.00176242
0.00180523
0.00184854
0.00189237
0.00193672
0.00198158
0.00202695
0.00207284
0.00211924
0.00216616
0.00221359
0.00226152
0.00230996
0.00235891
0.00240835
0.00245828
0.0025087
0.0025596
0.00261097
0.0026628
0.00271508
0.0027678
0.00282094
0.00287449
0.00292843
0.00298275
0.00303742
0.00309243
0.00314774
0.00320334
0.00325918
0.00331525
0.00337151
3.37318e-06
2.61256e-05
4.49786e-05
6.3478e-05
8.29636e-05
0.000103109
0.000123769
0.000144868
0.000166364
0.000188233
0.000210458
0.000233032
0.000255947
0.000279201
0.000302792
0.000326719
0.000350983
0.000375585
0.000400527
0.00042581
0.000451437
0.000477412
0.000503736
0.000530414
0.000557448
0.000584843
0.000612603
0.000640731
0.000669232
0.000698109
0.000727367
0.000757012
0.000787046
0.000817475
0.000848303
0.000879534
0.000911175
0.000943229
0.000975701
0.0010086
0.00104192
0.00107567
0.00110987
0.0011445
0.00117958
0.00121512
0.0012511
0.00128755
0.00132447
0.00136186
0.00139971
0.00143805
0.00147687
0.00151618
0.00155598
0.00159627
0.00163706
0.00167835
0.00172014
0.00176244
0.00180524
0.00184856
0.00189239
0.00193674
0.0019816
0.00202697
0.00207286
0.00211926
0.00216618
0.00221361
0.00226154
0.00230999
0.00235893
0.00240837
0.00245831
0.00250873
0.00255963
0.002611
0.00266283
0.00271511
0.00276783
0.00282097
0.00287452
0.00292847
0.00298279
0.00303746
0.00309246
0.00314778
0.00320337
0.00325922
0.00331529
0.00337155
3.37355e-06
2.61252e-05
4.49797e-05
6.34761e-05
8.29591e-05
0.000103103
0.000123762
0.00014486
0.000166356
0.000188224
0.00021045
0.000233023
0.000255938
0.000279192
0.000302782
0.00032671
0.000350974
0.000375576
0.000400517
0.0004258
0.000451428
0.000477402
0.000503727
0.000530405
0.00055744
0.000584835
0.000612595
0.000640724
0.000669225
0.000698103
0.000727362
0.000757007
0.000787042
0.000817471
0.0008483
0.000879533
0.000911174
0.000943229
0.000975701
0.0010086
0.00104192
0.00107568
0.00110987
0.0011445
0.00117959
0.00121512
0.00125111
0.00128756
0.00132448
0.00136186
0.00139972
0.00143806
0.00147688
0.00151619
0.00155599
0.00159628
0.00163707
0.00167836
0.00172015
0.00176245
0.00180526
0.00184858
0.00189241
0.00193675
0.00198161
0.00202699
0.00207288
0.00211928
0.0021662
0.00221363
0.00226157
0.00231001
0.00235896
0.0024084
0.00245834
0.00250876
0.00255966
0.00261103
0.00266286
0.00271514
0.00276786
0.002821
0.00287456
0.0029285
0.00298282
0.0030375
0.0030925
0.00314782
0.00320341
0.00325926
0.00331533
0.00337159
3.3739e-06
2.61252e-05
4.49814e-05
6.34752e-05
8.29557e-05
0.000103098
0.000123755
0.000144853
0.000166349
0.000188217
0.000210442
0.000233015
0.00025593
0.000279184
0.000302774
0.000326701
0.000350965
0.000375567
0.000400508
0.000425792
0.000451419
0.000477394
0.000503719
0.000530397
0.000557432
0.000584828
0.000612589
0.000640718
0.000669219
0.000698098
0.000727358
0.000757003
0.000787038
0.000817469
0.000848298
0.000879531
0.000911173
0.000943229
0.000975702
0.0010086
0.00104192
0.00107568
0.00110987
0.00114451
0.00117959
0.00121513
0.00125112
0.00128757
0.00132449
0.00136187
0.00139973
0.00143807
0.00147689
0.0015162
0.001556
0.00159629
0.00163708
0.00167837
0.00172017
0.00176247
0.00180528
0.0018486
0.00189243
0.00193677
0.00198163
0.00202701
0.0020729
0.00211931
0.00216622
0.00221365
0.00226159
0.00231004
0.00235898
0.00240843
0.00245836
0.00250879
0.00255969
0.00261106
0.00266289
0.00271517
0.00276789
0.00282104
0.00287459
0.00292854
0.00298286
0.00303753
0.00309254
0.00314785
0.00320345
0.0032593
0.00331537
0.00337162
3.37421e-06
2.61254e-05
4.49835e-05
6.34752e-05
8.29533e-05
0.000103094
0.00012375
0.000144847
0.000166342
0.00018821
0.000210435
0.000233008
0.000255923
0.000279177
0.000302767
0.000326694
0.000350957
0.000375559
0.000400501
0.000425784
0.000451412
0.000477386
0.000503711
0.00053039
0.000557425
0.000584822
0.000612582
0.000640712
0.000669214
0.000698093
0.000727354
0.000756999
0.000787036
0.000817466
0.000848296
0.00087953
0.000911173
0.000943229
0.000975703
0.0010086
0.00104193
0.00107568
0.00110988
0.00114451
0.0011796
0.00121513
0.00125112
0.00128758
0.00132449
0.00136188
0.00139974
0.00143808
0.00147691
0.00151621
0.00155601
0.00159631
0.0016371
0.00167839
0.00172018
0.00176248
0.00180529
0.00184861
0.00189245
0.00193679
0.00198165
0.00202703
0.00207292
0.00211933
0.00216625
0.00221368
0.00226162
0.00231006
0.00235901
0.00240845
0.00245839
0.00250881
0.00255972
0.00261109
0.00266292
0.0027152
0.00276792
0.00282107
0.00287462
0.00292857
0.00298289
0.00303757
0.00309257
0.00314789
0.00320348
0.00325933
0.0033154
0.00337166
3.37449e-06
2.61259e-05
4.49859e-05
6.34759e-05
8.29519e-05
0.00010309
0.000123745
0.000144842
0.000166336
0.000188204
0.000210429
0.000233002
0.000255917
0.00027917
0.000302761
0.000326687
0.000350951
0.000375552
0.000400494
0.000425777
0.000451405
0.00047738
0.000503705
0.000530383
0.000557419
0.000584816
0.000612577
0.000640707
0.000669209
0.000698089
0.00072735
0.000756996
0.000787033
0.000817464
0.000848295
0.00087953
0.000911173
0.00094323
0.000975705
0.0010086
0.00104193
0.00107569
0.00110988
0.00114452
0.0011796
0.00121514
0.00125113
0.00128758
0.0013245
0.00136189
0.00139975
0.00143809
0.00147692
0.00151623
0.00155603
0.00159632
0.00163711
0.0016784
0.0017202
0.0017625
0.00180531
0.00184863
0.00189247
0.00193681
0.00198167
0.00202705
0.00207294
0.00211935
0.00216627
0.0022137
0.00226164
0.00231009
0.00235903
0.00240848
0.00245842
0.00250884
0.00255974
0.00261112
0.00266295
0.00271524
0.00276796
0.0028211
0.00287466
0.0029286
0.00298293
0.0030376
0.00309261
0.00314792
0.00320352
0.00325937
0.00331544
0.0033717
3.37473e-06
2.61265e-05
4.49885e-05
6.34773e-05
8.29513e-05
0.000103088
0.000123742
0.000144837
0.000166331
0.000188198
0.000210423
0.000232996
0.000255911
0.000279164
0.000302755
0.000326681
0.000350945
0.000375546
0.000400488
0.000425771
0.000451399
0.000477373
0.000503699
0.000530378
0.000557414
0.000584811
0.000612572
0.000640702
0.000669205
0.000698085
0.000727347
0.000756994
0.000787031
0.000817463
0.000848294
0.000879529
0.000911173
0.000943231
0.000975706
0.0010086
0.00104193
0.00107569
0.00110989
0.00114452
0.00117961
0.00121515
0.00125114
0.00128759
0.00132451
0.0013619
0.00139976
0.00143811
0.00147693
0.00151624
0.00155604
0.00159634
0.00163713
0.00167842
0.00172022
0.00176252
0.00180533
0.00184865
0.00189248
0.00193683
0.00198169
0.00202707
0.00207297
0.00211937
0.00216629
0.00221372
0.00226166
0.00231011
0.00235906
0.00240851
0.00245845
0.00250887
0.00255977
0.00261115
0.00266298
0.00271527
0.00276799
0.00282114
0.00287469
0.00292864
0.00298296
0.00303764
0.00309264
0.00314796
0.00320355
0.0032594
0.00331547
0.00337173
3.37495e-06
2.61272e-05
4.49912e-05
6.3479e-05
8.29514e-05
0.000103086
0.000123739
0.000144833
0.000166326
0.000188193
0.000210418
0.000232991
0.000255906
0.000279159
0.000302749
0.000326676
0.000350939
0.000375541
0.000400482
0.000425765
0.000451393
0.000477368
0.000503693
0.000530372
0.000557409
0.000584806
0.000612568
0.000640698
0.000669202
0.000698082
0.000727344
0.000756991
0.000787029
0.000817462
0.000848293
0.000879529
0.000911174
0.000943232
0.000975708
0.00100861
0.00104193
0.00107569
0.00110989
0.00114453
0.00117962
0.00121515
0.00125115
0.0012876
0.00132452
0.00136191
0.00139977
0.00143812
0.00147694
0.00151625
0.00155605
0.00159635
0.00163714
0.00167844
0.00172023
0.00176254
0.00180535
0.00184867
0.0018925
0.00193685
0.00198172
0.00202709
0.00207299
0.00211939
0.00216632
0.00221375
0.00226169
0.00231014
0.00235909
0.00240853
0.00245847
0.0025089
0.0025598
0.00261118
0.00266301
0.0027153
0.00276802
0.00282117
0.00287472
0.00292867
0.002983
0.00303767
0.00309268
0.00314799
0.00320358
0.00325943
0.0033155
0.00337176
3.37514e-06
2.6128e-05
4.49939e-05
6.34812e-05
8.29521e-05
0.000103086
0.000123736
0.00014483
0.000166322
0.000188189
0.000210414
0.000232986
0.000255901
0.000279154
0.000302745
0.000326671
0.000350934
0.000375536
0.000400477
0.00042576
0.000451388
0.000477363
0.000503689
0.000530368
0.000557404
0.000584802
0.000612564
0.000640695
0.000669198
0.000698079
0.000727341
0.000756989
0.000787028
0.000817461
0.000848293
0.00087953
0.000911175
0.000943233
0.00097571
0.00100861
0.00104194
0.0010757
0.0011099
0.00114454
0.00117962
0.00121516
0.00125115
0.00128761
0.00132453
0.00136192
0.00139979
0.00143813
0.00147695
0.00151627
0.00155607
0.00159636
0.00163716
0.00167845
0.00172025
0.00176255
0.00180537
0.00184869
0.00189252
0.00193687
0.00198174
0.00202712
0.00207301
0.00211942
0.00216634
0.00221377
0.00226171
0.00231016
0.00235911
0.00240856
0.0024585
0.00250893
0.00255983
0.00261121
0.00266304
0.00271533
0.00276805
0.0028212
0.00287476
0.00292871
0.00298303
0.00303771
0.00309271
0.00314802
3.37531e-06
2.61289e-05
4.49967e-05
6.34836e-05
8.29533e-05
0.000103085
0.000123735
0.000144827
0.000166319
0.000188185
0.000210409
0.000232982
0.000255897
0.00027915
0.00030274
0.000326667
0.00035093
0.000375532
0.000400473
0.000425756
0.000451384
0.000477359
0.000503684
0.000530364
0.0005574
0.000584798
0.00061256
0.000640692
0.000669196
0.000698077
0.000727339
0.000756988
0.000787027
0.00081746
0.000848293
0.00087953
0.000911176
0.000943235
0.000975712
0.00100861
0.00104194
0.0010757
0.0011099
0.00114454
0.00117963
0.00121517
0.00125116
0.00128762
0.00132454
0.00136193
0.0013998
0.00143814
0.00147697
0.00151628
0.00155608
0.00159638
0.00163717
0.00167847
0.00172027
0.00176257
0.00180538
0.00184871
0.00189254
0.00193689
0.00198176
0.00202714
0.00207303
0.00211944
0.00216636
0.0022138
0.00226174
0.00231019
0.00235914
0.00240859
0.00245853
0.00250896
0.00255986
0.00261124
0.00266307
0.00271536
0.00276809
0.00282123
0.00287479
0.00292874
0.00298306
0.00303774
0.00309274
0.00314805
3.37546e-06
2.61298e-05
4.49994e-05
6.34863e-05
8.29549e-05
0.000103086
0.000123734
0.000144825
0.000166316
0.000188182
0.000210406
0.000232978
0.000255893
0.000279146
0.000302736
0.000326663
0.000350926
0.000375528
0.000400469
0.000425752
0.00045138
0.000477355
0.000503681
0.00053036
0.000557397
0.000584795
0.000612557
0.000640689
0.000669193
0.000698075
0.000727338
0.000756986
0.000787026
0.00081746
0.000848293
0.00087953
0.000911177
0.000943237
0.000975715
0.00100862
0.00104194
0.00107571
0.00110991
0.00114455
0.00117963
0.00121517
0.00125117
0.00128763
0.00132455
0.00136194
0.00139981
0.00143815
0.00147698
0.00151629
0.0015561
0.00159639
0.00163719
0.00167848
0.00172028
0.00176259
0.0018054
0.00184873
0.00189256
0.00193691
0.00198178
0.00202716
0.00207305
0.00211946
0.00216639
0.00221382
0.00226176
0.00231021
0.00235916
0.00240861
0.00245856
0.00250898
0.00255989
0.00261127
0.0026631
0.00271539
0.00276812
0.00282127
0.00287482
0.00292877
0.0029831
0.00303777
0.00309277
0.00314808
3.37559e-06
2.61308e-05
4.5002e-05
6.34891e-05
8.2957e-05
0.000103086
0.000123733
0.000144823
0.000166314
0.000188179
0.000210402
0.000232975
0.000255889
0.000279142
0.000302732
0.000326659
0.000350922
0.000375524
0.000400465
0.000425748
0.000451376
0.000477351
0.000503677
0.000530357
0.000557394
0.000584792
0.000612555
0.000640686
0.000669191
0.000698073
0.000727336
0.000756985
0.000787025
0.000817459
0.000848293
0.000879531
0.000911178
0.000943238
0.000975717
0.00100862
0.00104195
0.00107571
0.00110991
0.00114455
0.00117964
0.00121518
0.00125118
0.00128763
0.00132456
0.00136195
0.00139982
0.00143816
0.00147699
0.0015163
0.00155611
0.00159641
0.0016372
0.0016785
0.0017203
0.0017626
0.00180542
0.00184874
0.00189258
0.00193693
0.0019818
0.00202718
0.00207308
0.00211949
0.00216641
0.00221384
0.00226179
0.00231024
0.00235919
0.00240864
0.00245858
0.00250901
0.00255992
0.0026113
0.00266314
0.00271542
0.00276815
0.0028213
0.00287486
0.00292881
0.00298312
3.37571e-06
2.61318e-05
4.50046e-05
6.3492e-05
8.29593e-05
0.000103088
0.000123734
0.000144823
0.000166312
0.000188176
0.000210399
0.000232971
0.000255886
0.000279139
0.000302729
0.000326655
0.000350919
0.00037552
0.000400462
0.000425745
0.000451373
0.000477348
0.000503674
0.000530354
0.000557391
0.000584789
0.000612552
0.000640684
0.000669189
0.000698071
0.000727335
0.000756984
0.000787024
0.000817459
0.000848294
0.000879532
0.000911179
0.00094324
0.00097572
0.00100862
0.00104195
0.00107571
0.00110991
0.00114456
0.00117965
0.00121519
0.00125118
0.00128764
0.00132457
0.00136196
0.00139983
0.00143817
0.001477
0.00151632
0.00155612
0.00159642
0.00163722
0.00167851
0.00172031
0.00176262
0.00180544
0.00184876
0.0018926
0.00193695
0.00198182
0.0020272
0.0020731
0.00211951
0.00216643
0.00221387
0.00226181
0.00231026
0.00235922
0.00240867
0.00245861
0.00250904
0.00255995
0.00261133
0.00266317
0.00271546
0.00276818
0.00282133
0.00287489
0.00292884
0.00298315
3.37582e-06
2.61327e-05
4.50071e-05
6.3495e-05
8.29618e-05
0.000103089
0.000123734
0.000144822
0.000166311
0.000188174
0.000210397
0.000232969
0.000255883
0.000279136
0.000302726
0.000326652
0.000350916
0.000375517
0.000400459
0.000425742
0.00045137
0.000477345
0.000503671
0.000530351
0.000557388
0.000584787
0.00061255
0.000640682
0.000669187
0.00069807
0.000727334
0.000756984
0.000787024
0.000817459
0.000848294
0.000879533
0.000911181
0.000943242
0.000975722
0.00100862
0.00104196
0.00107572
0.00110992
0.00114456
0.00117965
0.00121519
0.00125119
0.00128765
0.00132458
0.00136197
0.00139984
0.00143818
0.00147701
0.00151633
0.00155613
0.00159643
0.00163723
0.00167853
0.00172033
0.00176264
0.00180545
0.00184878
0.00189262
0.00193697
0.00198184
0.00202722
0.00207312
0.00211953
0.00216646
0.00221389
0.00226184
0.00231029
0.00235924
0.0024087
0.00245864
0.00250907
0.00255998
0.00261136
0.0026632
0.00271549
0.00276821
0.00282137
0.00287492
0.00292887
0.00298318
3.37592e-06
2.61337e-05
4.50095e-05
6.3498e-05
8.29646e-05
0.000103091
0.000123735
0.000144822
0.00016631
0.000188173
0.000210395
0.000232966
0.00025588
0.000279133
0.000302723
0.000326649
0.000350913
0.000375514
0.000400456
0.000425739
0.000451367
0.000477343
0.000503669
0.000530349
0.000557386
0.000584785
0.000612548
0.00064068
0.000669186
0.000698069
0.000727333
0.000756983
0.000787024
0.00081746
0.000848295
0.000879534
0.000911183
0.000943244
0.000975725
0.00100863
0.00104196
0.00107572
0.00110992
0.00114457
0.00117966
0.0012152
0.0012512
0.00128766
0.00132458
0.00136198
0.00139985
0.0014382
0.00147702
0.00151634
0.00155615
0.00159645
0.00163725
0.00167855
0.00172035
0.00176266
0.00180547
0.0018488
0.00189264
0.00193699
0.00198186
0.00202724
0.00207314
0.00211955
0.00216648
0.00221392
0.00226186
0.00231031
0.00235927
0.00240872
0.00245867
0.0025091
0.00256001
0.00261139
0.00266323
0.00271552
0.00276825
0.0028214
0.00287495
0.0029289
0.00298321
3.37601e-06
2.61347e-05
4.50117e-05
6.3501e-05
8.29675e-05
0.000103094
0.000123737
0.000144823
0.00016631
0.000188172
0.000210393
0.000232964
0.000255878
0.00027913
0.00030272
0.000326647
0.00035091
0.000375512
0.000400453
0.000425737
0.000451365
0.00047734
0.000503666
0.000530346
0.000557384
0.000584783
0.000612546
0.000640679
0.000669185
0.000698068
0.000727332
0.000756983
0.000787024
0.00081746
0.000848296
0.000879535
0.000911184
0.000943247
0.000975727
0.00100863
0.00104196
0.00107573
0.00110993
0.00114457
0.00117966
0.00121521
0.00125121
0.00128767
0.00132459
0.00136199
0.00139986
0.00143821
0.00147704
0.00151635
0.00155616
0.00159646
0.00163726
0.00167856
0.00172036
0.00176267
0.00180549
0.00184882
0.00189266
0.00193701
0.00198188
0.00202726
0.00207316
0.00211958
0.0021665
0.00221394
0.00226189
0.00231034
0.0023593
0.00240875
0.0024587
0.00250913
0.00256004
0.00261142
0.00266326
0.00271555
0.00276828
0.00282143
0.00287499
0.00292893
0.00298324
3.37609e-06
2.61357e-05
4.50139e-05
6.35039e-05
8.29705e-05
0.000103096
0.000123738
0.000144824
0.00016631
0.000188171
0.000210392
0.000232962
0.000255876
0.000279128
0.000302718
0.000326644
0.000350908
0.000375509
0.000400451
0.000425734
0.000451362
0.000477338
0.000503664
0.000530344
0.000557382
0.000584781
0.000612545
0.000640678
0.000669184
0.000698067
0.000727332
0.000756983
0.000787024
0.000817461
0.000848297
0.000879537
0.000911186
0.000943249
0.00097573
0.00100863
0.00104197
0.00107573
0.00110993
0.00114458
0.00117967
0.00121521
0.00125121
0.00128767
0.0013246
0.001362
0.00139987
0.00143822
0.00147705
0.00151637
0.00155617
0.00159648
0.00163728
0.00167857
0.00172038
0.00176269
0.00180551
0.00184883
0.00189268
0.00193703
0.0019819
0.00202728
0.00207318
0.0021196
0.00216652
0.00221396
0.00226191
0.00231037
0.00235932
0.00240878
0.00245872
0.00250916
0.00256007
0.00261145
0.00266329
0.00271558
0.00276831
0.00282146
0.00287502
0.00292896
0.00298327
3.37617e-06
2.61366e-05
4.5016e-05
6.35068e-05
8.29735e-05
0.000103099
0.00012374
0.000144825
0.00016631
0.000188171
0.000210391
0.000232961
0.000255874
0.000279126
0.000302716
0.000326642
0.000350905
0.000375507
0.000400448
0.000425732
0.00045136
0.000477336
0.000503662
0.000530343
0.00055738
0.000584779
0.000612543
0.000640676
0.000669183
0.000698066
0.000727331
0.000756983
0.000787024
0.000817461
0.000848297
0.000879538
0.000911188
0.000943251
0.000975733
0.00100864
0.00104197
0.00107574
0.00110994
0.00114458
0.00117968
0.00121522
0.00125122
0.00128768
0.00132461
0.00136201
0.00139988
0.00143823
0.00147706
0.00151638
0.00155619
0.00159649
0.00163729
0.00167859
0.00172039
0.0017627
0.00180552
0.00184885
0.00189269
0.00193705
0.00198192
0.0020273
0.0020732
0.00211962
0.00216655
0.00221399
0.00226194
0.00231039
0.00235935
0.0024088
0.00245875
0.00250918
0.0025601
0.00261148
0.00266332
0.00271561
0.00276834
0.00282149
0.00287505
0.00292899
0.0029833
3.37625e-06
2.61376e-05
4.50179e-05
6.35096e-05
8.29766e-05
0.000103102
0.000123743
0.000144826
0.000166311
0.000188171
0.000210391
0.00023296
0.000255873
0.000279124
0.000302714
0.00032664
0.000350903
0.000375505
0.000400446
0.00042573
0.000451358
0.000477334
0.00050366
0.000530341
0.000557379
0.000584778
0.000612542
0.000640675
0.000669182
0.000698065
0.000727331
0.000756982
0.000787025
0.000817462
0.000848298
0.000879539
0.00091119
0.000943253
0.000975735
0.00100864
0.00104197
0.00107574
0.00110994
0.00114459
0.00117968
0.00121523
0.00125123
0.00128769
0.00132462
0.00136202
0.00139989
0.00143824
0.00147707
0.00151639
0.0015562
0.0015965
0.0016373
0.0016786
0.00172041
0.00176272
0.00180554
0.00184887
0.00189271
0.00193707
0.00198194
0.00202733
0.00207323
0.00211964
0.00216657
0.00221401
0.00226196
0.00231042
0.00235937
0.00240883
0.00245878
0.00250921
0.00256013
0.00261151
0.00266335
0.00271564
0.00276837
0.00282152
0.00287508
0.00292902
0.00298333
3.37632e-06
2.61385e-05
4.50198e-05
6.35123e-05
8.29796e-05
0.000103105
0.000123745
0.000144828
0.000166312
0.000188172
0.000210391
0.000232959
0.000255872
0.000279123
0.000302712
0.000326638
0.000350901
0.000375503
0.000400444
0.000425728
0.000451356
0.000477332
0.000503659
0.000530339
0.000557377
0.000584776
0.000612541
0.000640674
0.000669181
0.000698065
0.000727331
0.000756982
0.000787025
0.000817462
0.000848299
0.000879541
0.000911191
0.000943255
0.000975738
0.00100864
0.00104198
0.00107574
0.00110995
0.00114459
0.00117969
0.00121523
0.00125124
0.0012877
0.00132463
0.00136202
0.0013999
0.00143825
0.00147708
0.0015164
0.00155621
0.00159651
0.00163732
0.00167862
0.00172042
0.00176274
0.00180556
0.00184889
0.00189273
0.00193709
0.00198196
0.00202734
0.00207325
0.00211966
0.00216659
0.00221403
0.00226198
0.00231044
0.0023594
0.00240886
0.00245881
0.00250924
0.00256016
0.00261154
0.00266338
0.00271567
0.0027684
0.00282155
0.00287511
0.00292905
0.00298336
3.37639e-06
2.61394e-05
4.50215e-05
6.35149e-05
8.29827e-05
0.000103108
0.000123748
0.00014483
0.000166314
0.000188172
0.000210391
0.000232959
0.000255871
0.000279122
0.000302711
0.000326637
0.0003509
0.000375501
0.000400443
0.000425726
0.000451354
0.00047733
0.000503657
0.000530338
0.000557376
0.000584775
0.00061254
0.000640673
0.00066918
0.000698064
0.00072733
0.000756982
0.000787025
0.000817463
0.0008483
0.000879542
0.000911193
0.000943258
0.000975741
0.00100865
0.00104198
0.00107575
0.00110995
0.0011446
0.00117969
0.00121524
0.00125124
0.00128771
0.00132463
0.00136203
0.00139991
0.00143826
0.00147709
0.00151641
0.00155622
0.00159653
0.00163733
0.00167863
0.00172044
0.00176275
0.00180557
0.0018489
0.00189275
0.00193711
0.00198198
0.00202736
0.00207327
0.00211968
0.00216661
0.00221406
0.00226201
0.00231046
0.00235942
0.00240888
0.00245883
0.00250927
0.00256018
0.00261157
0.00266341
0.00271571
0.00276843
0.00282158
0.00287514
0.00292908
0.0029834
3.37645e-06
2.61402e-05
4.50232e-05