/*--------------------------------*- C++ -*----------------------------------*\
  =========                 |
  \\      /  F ield         | OpenFOAM: The Open Source CFD Toolbox
   \\    /   O peration     | Website:  https://openfoam.org
    \\  /    A nd           | Version:  10
     \\/     M anipulation  |
\*---------------------------------------------------------------------------*/
FoamFile
{
    format      ascii;
    class       volScalarField;
    location    "24000";
    object      omega;
}
// * * * * * * * * * * * * * * * * * * * * * * * * * * * * * * * * * * * * * //

dimensions      [0 0 -1 0 0 0 0];

internalField   nonuniform List<scalar> 
17808
(
12761.5
5140.68
2934.38
2016.05
1522.18
1216.5
1009.52
860.409
747.997
660.282
589.959
532.338
484.272
443.572
408.669
378.411
351.93
328.562
307.791
289.207
272.484
257.357
243.608
231.059
219.56
208.985
199.228
190.198
181.818
174.021
166.748
159.95
153.582
147.605
141.984
136.69
131.695
126.975
122.509
118.278
114.263
110.45
106.823
103.371
100.08
96.9419
93.9452
91.0815
88.3425
85.7207
83.2093
80.8017
78.4923
76.2753
74.146
72.0995
70.1315
68.2381
66.4153
64.6598
62.9682
61.3376
59.7649
58.2476
56.783
55.3689
54.0031
52.6834
51.408
50.175
48.9827
47.8293
46.7134
45.6335
44.5881
43.576
42.5959
41.6467
40.7272
39.8364
38.9732
38.1368
37.3263
36.5407
35.7793
35.0412
34.3259
33.6325
32.9604
32.3091
31.6778
31.066
12759.6
5140.58
2935.71
2017.46
1523.41
1217.5
1010.33
861.063
748.53
660.719
590.32
532.639
484.525
443.786
408.852
378.567
352.064
328.678
307.892
289.295
272.561
257.425
243.668
231.112
219.607
209.026
199.265
190.231
181.848
174.047
166.772
159.972
153.601
147.622
142
136.704
131.708
126.987
122.52
118.287
114.272
110.457
106.83
103.377
100.086
96.9473
93.9501
91.086
88.3466
85.7245
83.2128
80.805
78.4952
76.2781
74.1485
72.1018
70.1337
68.2401
66.4172
64.6616
62.9699
61.3391
59.7663
58.2489
56.7843
55.3701
54.0042
52.6845
51.4091
50.176
48.9836
47.8302
46.7143
45.6343
44.5889
43.5768
42.5967
41.6474
40.7279
39.8371
38.9739
38.1375
37.3269
36.5413
35.7799
35.0419
34.3265
33.6331
32.961
32.3096
31.6784
31.0666
12760.6
5139.79
2936.42
2018.18
1524.02
1218.03
1010.78
861.445
748.856
661
590.563
532.851
484.709
443.948
408.994
378.692
352.174
328.776
307.978
289.372
272.629
257.485
243.722
231.16
219.65
209.065
199.299
190.262
181.876
174.072
166.795
159.992
153.619
147.638
142.015
136.717
131.72
126.998
122.53
118.296
114.28
110.465
106.837
103.383
100.092
96.9525
93.9549
91.0904
88.3506
85.7282
83.2161
80.808
78.498
76.2807
74.1509
72.104
70.1357
68.242
66.4189
64.6632
62.9714
61.3405
59.7676
58.2501
56.7854
55.3712
54.0052
52.6855
51.41
50.1769
48.9844
47.831
46.715
45.635
44.5896
43.5774
42.5973
41.648
40.7285
39.8376
38.9745
38.138
37.3274
36.5418
35.7804
35.0423
34.327
33.6336
32.9615
32.3101
31.6788
31.0671
12761.7
5138.97
2936.9
2018.67
1524.46
1218.42
1011.11
861.723
749.093
661.204
590.742
533.008
484.849
444.072
409.105
378.791
352.264
328.856
308.05
289.437
272.688
257.538
243.77
231.203
219.689
209.1
199.331
190.291
181.902
174.096
166.816
160.011
153.637
147.655
142.029
136.731
131.732
127.009
122.54
118.306
114.288
110.473
106.844
103.39
100.098
96.9578
93.9598
91.0948
88.3547
85.7319
83.2195
80.8112
78.5009
76.2833
74.1534
72.1063
70.1378
68.2439
66.4207
64.6648
62.9729
61.3419
59.7689
58.2513
56.7866
55.3723
54.0063
52.6865
51.4109
50.1778
48.9853
47.8318
46.7158
45.6357
44.5902
43.5781
42.5979
41.6486
40.729
39.8382
38.975
38.1386
37.328
36.5423
35.7809
35.0428
34.3275
33.6341
32.962
32.3106
31.6793
31.0675
12762.9
5137.79
2936.97
2018.88
1524.72
1218.67
1011.34
861.925
749.269
661.358
590.878
533.129
484.957
444.169
409.193
378.871
352.336
328.922
308.11
289.492
272.738
257.584
243.812
231.241
219.723
209.132
199.36
190.317
181.926
174.118
166.836
160.03
153.654
147.67
142.043
136.744
131.744
127.02
122.55
118.315
114.297
110.48
106.851
103.396
100.104
96.9632
93.9647
91.0993
88.3588
85.7357
83.223
80.8144
78.5039
76.2861
74.1559
72.1086
70.14
68.2459
66.4226
64.6665
62.9745
61.3434
59.7703
58.2526
56.7878
55.3734
54.0073
52.6875
51.4118
50.1786
48.9861
47.8326
46.7165
45.6364
44.5909
43.5787
42.5985
41.6492
40.7296
39.8387
38.9755
38.1391
37.3285
36.5428
35.7814
35.0433
34.3279
33.6345
32.9625
32.3111
31.6798
31.068
12764.3
5136.55
2936.81
2018.91
1524.85
1218.83
1011.49
862.063
749.393
661.47
590.978
533.219
485.04
444.245
409.262
378.935
352.395
328.976
308.16
289.538
272.78
257.623
243.847
231.274
219.754
209.16
199.386
190.341
181.948
174.138
166.855
160.047
153.67
147.684
142.057
136.756
131.755
127.03
122.559
118.323
114.305
110.488
106.858
103.402
100.109
96.9685
93.9696
91.1038
88.363
85.7395
83.2266
80.8176
78.5069
76.2888
74.1584
72.111
70.1422
68.2479
66.4244
64.6683
62.9761
61.3449
59.7717
58.2539
56.789
55.3746
54.0084
52.6885
51.4128
50.1796
48.987
47.8334
46.7173
45.6372
44.5916
43.5794
42.5992
41.6498
40.7302
39.8393
38.9761
38.1396
37.329
36.5434
35.7819
35.0438
34.3284
33.635
32.9629
32.3115
31.6802
31.0684
12765.8
5135.42
2936.56
2018.87
1524.91
1218.92
1011.59
862.16
749.483
661.551
591.052
533.287
485.102
444.303
409.316
378.985
352.441
329.019
308.201
289.575
272.816
257.656
243.878
231.303
219.781
209.185
199.409
190.363
181.968
174.157
166.872
160.063
153.684
147.698
142.069
136.767
131.766
127.04
122.569
118.332
114.313
110.495
106.864
103.408
100.115
96.9737
93.9744
91.1083
88.3671
85.7433
83.2301
80.8209
78.5099
76.2916
74.161
72.1134
70.1444
68.25
66.4264
64.67
62.9778
61.3464
59.7731
58.2552
56.7902
55.3757
54.0095
52.6895
51.4138
50.1805
48.9878
47.8342
46.7181
45.6379
44.5923
43.5801
42.5998
41.6504
40.7308
39.8399
38.9766
38.1402
37.3295
36.5439
35.7824
35.0443
34.3289
33.6355
32.9634
32.312
31.6807
31.0689
12767.1
5134.44
2936.27
2018.79
1524.93
1218.98
1011.66
862.231
749.55
661.613
591.109
533.34
485.151
444.348
409.358
379.025
352.479
329.055
308.234
289.607
272.845
257.683
243.904
231.327
219.803
209.206
199.429
190.381
181.985
174.173
166.887
160.077
153.698
147.71
142.081
136.778
131.776
127.049
122.577
118.34
114.32
110.502
106.871
103.414
100.121
96.9788
93.9791
91.1127
88.3712
85.7471
83.2336
80.8241
78.5129
76.2944
74.1636
72.1158
70.1466
68.252
66.4283
64.6718
62.9794
61.348
59.7746
58.2566
56.7915
55.3769
54.0106
52.6906
51.4148
50.1814
48.9887
47.8351
46.7189
45.6387
44.593
43.5807
42.6005
41.6511
40.7314
39.8404
38.9772
38.1407
37.33
36.5444
35.7829
35.0448
34.3294
33.6359
32.9638
32.3124
31.6811
31.0693
12768.4
5133.58
2935.94
2018.68
1524.91
1219
1011.71
862.282
749.601
661.661
591.154
533.381
485.189
444.384
409.392
379.057
352.509
329.083
308.261
289.632
272.87
257.707
243.926
231.348
219.823
209.225
199.447
190.398
182.001
174.188
166.901
160.09
153.71
147.722
142.091
136.788
131.785
127.058
122.585
118.347
114.327
110.508
106.877
103.42
100.126
96.9837
93.9837
91.1169
88.3751
85.7508
83.237
80.8273
78.5159
76.2972
74.1662
72.1182
70.1488
68.2541
66.4302
64.6736
62.9811
61.3495
59.7761
58.258
56.7928
55.3781
54.0118
52.6917
51.4158
50.1824
48.9896
47.8359
46.7197
45.6394
44.5938
43.5814
42.6011
41.6517
40.732
39.841
38.9778
38.1412
37.3306
36.5449
35.7834
35.0453
34.3299
33.6364
32.9643
32.3129
31.6816
31.0698
12769.6
5132.81
2935.6
2018.55
1524.87
1219.01
1011.73
862.317
749.637
661.697
591.188
533.413
485.219
444.412
409.419
379.082
352.534
329.107
308.283
289.654
272.89
257.726
243.945
231.366
219.84
209.241
199.462
190.412
182.014
174.201
166.913
160.101
153.721
147.732
142.101
136.797
131.794
127.066
122.593
118.354
114.334
110.514
106.883
103.426
100.131
96.9885
93.9882
91.1211
88.379
85.7544
83.2404
80.8305
78.5188
76.2999
74.1687
72.1206
70.1511
68.2562
66.4322
64.6755
62.9828
61.3511
59.7775
58.2594
56.7941
55.3794
54.0129
52.6928
51.4168
50.1834
48.9906
47.8368
46.7205
45.6402
44.5945
43.5821
42.6018
41.6523
40.7326
39.8416
38.9783
38.1418
37.3311
36.5454
35.7839
35.0458
34.3303
33.6369
32.9648
32.3133
31.682
31.0702
12770.6
5132.15
2935.26
2018.42
1524.82
1219
1011.75
862.339
749.664
661.723
591.214
533.438
485.243
444.435
409.44
379.103
352.553
329.126
308.302
289.671
272.907
257.742
243.96
231.381
219.854
209.255
199.475
190.425
182.026
174.212
166.924
160.112
153.73
147.741
142.11
136.805
131.801
127.073
122.6
118.361
114.34
110.52
106.888
103.431
100.136
96.993
93.9924
91.1251
88.3827
85.7579
83.2437
80.8335
78.5217
76.3026
74.1712
72.1229
70.1533
68.2583
66.4341
64.6773
62.9845
61.3527
59.779
58.2608
56.7954
55.3806
54.0141
52.6939
51.4179
50.1843
48.9915
47.8377
46.7213
45.641
44.5952
43.5828
42.6025
41.653
40.7332
39.8422
38.9789
38.1423
37.3316
36.5459
35.7844
35.0462
34.3308
33.6373
32.9652
32.3138
31.6824
31.0706
12771.5
5131.56
2934.93
2018.27
1524.76
1218.97
1011.75
862.351
749.681
661.743
591.233
533.457
485.261
444.452
409.457
379.119
352.569
329.141
308.317
289.686
272.921
257.756
243.974
231.394
219.867
209.266
199.486
190.436
182.037
174.222
166.934
160.121
153.739
147.749
142.118
136.813
131.809
127.08
122.606
118.367
114.346
110.526
106.893
103.436
100.14
96.9973
93.9965
91.1289
88.3863
85.7613
83.2468
80.8365
78.5245
76.3052
74.1737
72.1252
70.1554
68.2603
66.436
64.6791
62.9862
61.3543
59.7805
58.2621
56.7967
55.3818
54.0153
52.695
51.4189
50.1853
48.9924
47.8385
46.7221
45.6418
44.596
43.5835
42.6031
41.6536
40.7338
39.8428
38.9794
38.1429
37.3321
36.5464
35.7849
35.0467
34.3313
33.6378
32.9657
32.3142
31.6829
31.0711
12772.3
5131.05
2934.62
2018.13
1524.69
1218.94
1011.74
862.355
749.691
661.756
591.248
533.471
485.276
444.466
409.471
379.133
352.582
329.154
308.329
289.698
272.933
257.768
243.985
231.405
219.877
209.277
199.496
190.445
182.046
174.231
166.942
160.129
153.747
147.757
142.125
136.82
131.815
127.086
122.612
118.373
114.351
110.531
106.898
103.44
100.145
97.0014
94.0003
91.1325
88.3897
85.7645
83.2499
80.8394
78.5272
76.3078
74.1761
72.1275
70.1576
68.2623
66.4379
64.6808
62.9878
61.3558
59.782
58.2635
56.798
55.3831
54.0164
52.6961
51.42
50.1863
48.9934
47.8394
46.723
45.6426
44.5968
43.5843
42.6038
41.6543
40.7345
39.8434
38.98
38.1434
37.3327
36.5469
35.7854
35.0472
34.3318
33.6383
32.9661
32.3147
31.6833
31.0715
12773.1
5130.61
2934.32
2017.99
1524.61
1218.91
1011.72
862.353
749.696
661.764
591.257
533.482
485.286
444.477
409.481
379.143
352.592
329.164
308.339
289.708
272.943
257.777
243.994
231.414
219.886
209.285
199.505
190.453
182.054
174.239
166.949
160.136
153.754
147.763
142.131
136.826
131.821
127.092
122.617
118.378
114.356
110.535
106.903
103.444
100.149
97.0052
94.0039
91.1359
88.393
85.7676
83.2528
80.8421
78.5298
76.3102
74.1784
72.1297
70.1596
68.2642
66.4397
64.6826
62.9895
61.3574
59.7834
58.2649
56.7993
55.3843
54.0176
52.6972
51.421
50.1873
48.9943
47.8403
46.7238
45.6434
44.5975
43.585
42.6045
41.6549
40.7351
39.844
38.9806
38.144
37.3332
36.5475
35.7859
35.0477
34.3322
33.6388
32.9666
32.3151
31.6838
31.072
12773.7
5130.23
2934.05
2017.84
1524.53
1218.86
1011.7
862.345
749.696
661.768
591.264
533.489
485.294
444.485
409.49
379.151
352.601
329.172
308.347
289.716
272.951
257.785
244.002
231.421
219.894
209.293
199.512
190.461
182.061
174.245
166.956
160.142
153.76
147.769
142.137
136.831
131.826
127.097
122.622
118.382
114.36
110.54
106.907
103.448
100.152
97.0087
94.0073
91.1391
88.396
85.7705
83.2555
80.8448
78.5323
76.3126
74.1806
72.1318
70.1616
68.2661
66.4415
64.6843
62.9911
61.3589
59.7849
58.2663
56.8006
55.3855
54.0188
52.6983
51.4221
50.1883
48.9952
47.8412
46.7247
45.6442
44.5983
43.5857
42.6052
41.6556
40.7357
39.8446
38.9812
38.1445
37.3338
36.548
35.7864
35.0482
34.3327
33.6393
32.9671
32.3156
31.6842
31.0724
12774.2
5129.89
2933.79
2017.71
1524.46
1218.82
1011.68
862.332
749.691
661.768
591.267
533.494
485.299
444.491
409.496
379.158
352.607
329.179
308.354
289.723
272.957
257.792
244.009
231.428
219.9
209.299
199.518
190.467
182.067
174.251
166.962
160.148
153.765
147.775
142.142
136.836
131.831
127.102
122.627
118.387
114.364
110.544
106.91
103.452
100.156
97.012
94.0104
91.1421
88.3989
85.7732
83.2581
80.8472
78.5346
76.3148
74.1828
72.1338
70.1636
68.268
66.4433
64.6859
62.9926
61.3604
59.7863
58.2676
56.8019
55.3867
54.0199
52.6994
51.4231
50.1893
48.9962
47.8421
46.7255
45.645
44.5991
43.5864
42.6059
41.6563
40.7364
39.8452
38.9818
38.1451
37.3343
36.5485
35.7869
35.0487
34.3333
33.6398
32.9677
32.3162
31.6848
31.0729
12774.7
5129.59
2933.56
2017.58
1524.38
1218.77
1011.65
862.317
749.683
661.765
591.267
533.496
485.303
444.495
409.5
379.162
352.612
329.184
308.359
289.728
272.963
257.797
244.014
231.433
219.906
209.304
199.524
190.472
182.072
174.256
166.967
160.153
153.77
147.779
142.146
136.841
131.835
127.106
122.631
118.391
114.368
110.547
106.914
103.455
100.159
97.0151
94.0134
91.145
88.4016
85.7758
83.2606
80.8496
78.5369
76.317
74.1848
72.1358
70.1654
68.2697
66.4449
64.6875
62.9942
61.3618
59.7877
58.2689
56.8031
55.3879
54.0211
52.7005
51.4241
50.1903
48.9971
47.843
46.7264
45.6458
44.5998
43.5872
42.6066
41.6569
40.737
39.8459
38.9824
38.1457
37.3349
36.5491
35.7875
35.0493
34.3338
33.6405
12775.1
5129.32
2933.34
2017.45
1524.31
1218.73
1011.62
862.299
749.673
661.76
591.264
533.496
485.304
444.497
409.503
379.165
352.616
329.188
308.363
289.732
272.967
257.802
244.019
231.438
219.91
209.309
199.528
190.477
182.076
174.261
166.971
160.157
153.774
147.783
142.15
136.845
131.839
127.109
122.634
118.394
114.371
110.55
106.917
103.458
100.162
97.0179
94.0161
91.1476
88.4042
85.7783
83.2629
80.8518
78.539
76.319
74.1868
72.1377
70.1672
68.2715
66.4466
64.6891
62.9957
61.3633
59.789
58.2702
56.8044
55.3891
54.0222
52.7015
51.4252
50.1913
48.998
47.8439
46.7272
45.6466
44.6006
43.5879
42.6073
41.6576
40.7377
39.8465
38.983
38.1463
37.3355
36.5496
35.788
35.0499
34.3344
33.6411
12775.5
5129.08
2933.14
2017.33
1524.23
1218.68
1011.59
862.279
749.66
661.752
591.26
533.494
485.303
444.497
409.504
379.167
352.618
329.19
308.366
289.735
272.97
257.805
244.022
231.442
219.914
209.313
199.532
190.48
182.08
174.265
166.975
160.161
153.778
147.787
142.154
136.848
131.842
127.113
122.637
118.397
114.374
110.553
106.92
103.461
100.165
97.0206
94.0186
91.15
88.4065
85.7805
83.2651
80.8539
78.541
76.321
74.1887
72.1394
70.1689
68.2731
66.4482
64.6906
62.9971
61.3646
59.7903
58.2715
56.8056
55.3903
54.0233
52.7026
51.4262
50.1922
48.999
47.8448
46.7281
45.6474
44.6014
43.5887
42.608
41.6583
40.7383
39.8471
38.9836
38.1469
37.336
36.5502
35.7887
35.0506
34.3351
33.6417
12775.8
5128.87
2932.96
2017.22
1524.16
1218.63
1011.56
862.258
749.646
661.743
591.254
533.49
485.301
444.497
409.504
379.168
352.619
329.192
308.368
289.738
272.973
257.808
244.025
231.445
219.917
209.316
199.535
190.484
182.084
174.268
166.978
160.164
153.781
147.79
142.157
136.851
131.845
127.116
122.64
118.4
114.377
110.556
106.923
103.464
100.167
97.023
94.021
91.1523
88.4087
85.7826
83.2672
80.8559
78.5429
76.3228
74.1904
72.1411
70.1706
68.2747
66.4497
64.692
62.9985
61.366
59.7916
58.2727
56.8068
55.3914
54.0244
52.7036
51.4272
50.1932
48.9999
47.8456
46.7289
45.6482
44.6021
43.5894
42.6087
41.659
40.739
39.8477
38.9842
38.1475
37.3367
36.5509
35.7894
12776.1
5128.68
2932.8
2017.11
1524.1
1218.59
1011.53
862.236
749.63
661.732
591.247
533.485
485.298
444.495
409.503
379.168
352.62
329.193
308.37
289.74
272.975
257.81
244.028
231.447
219.92
209.319
199.538
190.487
182.087
174.271
166.981
160.167
153.784
147.793
142.16
136.854
131.848
127.118
122.643
118.403
114.38
110.559
106.925
103.466
100.17
97.0252
94.0232
91.1544
88.4108
85.7846
83.2691
80.8578
78.5447
76.3245
74.1921
72.1428
70.1721
68.2762
66.4511
64.6934
62.9998
61.3673
59.7928
58.2739
56.8079
55.3925
54.0254
52.7046
51.4281
50.1941
49.0008
47.8465
46.7297
45.649
44.6029
43.5901
42.6094
41.6596
40.7397
39.8484
38.9849
38.1481
37.3373
36.5515
35.7901
12776.3
5128.51
2932.65
2017.01
1524.03
1218.55
1011.5
862.213
749.614
661.72
591.238
533.479
485.294
444.492
409.501
379.167
352.619
329.193
308.37
289.74
272.976
257.812
244.029
231.449
219.922
209.321
199.54
190.489
182.089
174.273
166.984
160.17
153.787
147.796
142.162
136.857
131.851
127.121
122.646
118.405
114.382
110.561
106.927
103.468
100.172
97.0273
94.0252
91.1564
88.4127
85.7865
83.2709
80.8595
78.5464
76.3262
74.1937
72.1443
70.1736
68.2776
66.4525
64.6947
63.0011
61.3685
59.794
58.2751
56.809
55.3936
54.0265
52.7056
51.4291
50.195
49.0017
47.8474
46.7306
45.6498
44.6037
43.5909
42.6101
41.6603
40.7403
39.849
38.9855
38.1488
37.3379
36.5522
35.7907
12776.6
5128.35
2932.51
2016.92
1523.97
1218.5
1011.47
862.191
749.597
661.707
591.228
533.471
485.288
444.488
409.499
379.165
352.618
329.193
308.37
289.741
272.977
257.813
244.031
231.451
219.924
209.323
199.542
190.491
182.091
174.275
166.986
160.172
153.789
147.798
142.165
136.859
131.853
127.123
122.648
118.407
114.384
110.563
106.929
103.47
100.174
97.0292
94.0271
91.1582
88.4144
85.7882
83.2726
80.8612
78.548
76.3277
74.1952
72.1457
70.175
68.279
66.4538
64.696
63.0023
61.3697
59.7952
58.2762
56.8101
55.3946
54.0275
52.7066
51.43
50.1959
49.0025
47.8482
46.7314
45.6506
44.6044
43.5916
42.6108
41.661
40.741
39.8497
38.9862
38.1494
37.3386
36.5528
35.7913
12776.8
5128.21
2932.38
2016.83
1523.91
1218.46
1011.44
862.168
749.58
661.694
591.218
533.463
485.282
444.483
409.495
379.162
352.616
329.191
308.369
289.741
272.977
257.813
244.031
231.452
219.925
209.324
199.544
190.493
182.093
174.277
166.988
160.174
153.791
147.8
142.167
136.861
131.855
127.125
122.65
118.409
114.386
110.565
106.931
103.472
100.175
97.031
94.0288
91.1599
88.4161
85.7898
83.2742
80.8627
78.5495
76.3292
74.1966
72.1471
70.1764
68.2803
66.4551
64.6972
63.0035
61.3708
59.7963
58.2772
56.8111
55.3956
54.0284
52.7075
51.431
50.1968
49.0034
47.849
46.7322
45.6513
44.6052
43.5923
42.6116
41.6617
40.7417
39.8504
38.9868
38.1501
37.3392
36.5535
35.792
12777
5128.08
2932.27
2016.75
1523.86
1218.42
1011.41
862.146
749.563
661.68
591.207
533.455
485.275
444.478
409.491
379.159
352.614
329.19
308.368
289.74
272.977
257.813
244.032
231.453
219.926
209.325
199.545
190.494
182.094
174.279
166.989
160.175
153.792
147.802
142.168
136.863
131.857
127.127
122.651
118.411
114.388
110.567
106.933
103.474
100.177
97.0326
94.0304
91.1615
88.4176
85.7913
83.2756
80.8641
78.5509
76.3306
74.198
72.1484
70.1776
68.2815
66.4563
64.6984
63.0047
61.3719
59.7974
58.2783
56.8121
55.3966
54.0294
52.7085
51.4318
50.1977
49.0042
47.8498
46.733
45.6521
44.6059
43.593
42.6123
41.6624
40.7423
39.851
38.9875
38.1507
37.3399
36.5541
35.7926
12777.1
5127.95
2932.16
2016.67
1523.8
1218.39
1011.38
862.125
749.545
661.666
591.196
533.446
485.268
444.472
409.486
379.155
352.611
329.188
308.367
289.739
272.976
257.813
244.032
231.453
219.926
209.326
199.546
190.495
182.095
174.28
166.991
160.177
153.794
147.803
142.17
136.864
131.858
127.128
122.653
118.413
114.39
110.568
106.934
103.475
100.179
97.0341
94.0319
91.1629
88.4191
85.7928
83.277
80.8655
78.5523
76.3319
74.1992
72.1497
70.1788
68.2827
66.4574
64.6995
63.0058
61.373
59.7984
58.2793
56.8131
55.3975
54.0303
52.7094
51.4327
50.1985
49.0051
47.8506
46.7337
45.6529
44.6066
43.5938
42.613
41.6631
40.743
39.8517
38.9881
38.1514
37.3405
36.5547
35.7932
12777.3
5127.83
2932.06
2016.6
1523.75
1218.35
1011.35
862.104
749.529
661.653
591.184
533.436
485.26
444.465
409.481
379.151
352.608
329.185
308.365
289.737
272.975
257.812
244.031
231.453
219.926
209.327
199.547
190.496
182.096
174.281
166.992
160.178
153.795
147.804
142.171
136.866
131.86
127.13
122.654
118.414
114.391
110.57
106.936
103.477
100.18
97.0355
94.0333
91.1643
88.4204
85.7941
83.2783
80.8668
78.5535
76.3331
74.2004
72.1508
70.18
68.2838
66.4585
64.7006
63.0068
61.374
59.7994
58.2803
56.8141
55.3985
54.0312
52.7102
51.4336
50.1994
49.0059
47.8514
46.7345
45.6536
44.6074
43.5945
42.6137
41.6638
40.7437
39.8524
38.9888
38.1521
37.3412
36.5554
35.7938
12777.4
5127.72
2931.97
2016.53
1523.71
1218.32
1011.33
862.084
749.512
661.639
591.173
533.427
485.252
444.459
409.475
379.147
352.604
329.182
308.362
289.735
272.974
257.811
244.031
231.452
219.926
209.327
199.547
190.496
182.097
174.282
166.993
160.179
153.796
147.806
142.173
136.867
131.861
127.131
122.656
118.415
114.392
110.571
106.937
103.478
100.181
97.0368
94.0346
91.1656
88.4217
85.7953
83.2796
80.868
78.5547
76.3343
74.2016
72.152
70.1811
68.2849
66.4596
64.7016
63.0078
61.375
59.8004
58.2812
56.815
55.3994
54.0321
52.7111
51.4344
50.2002
49.0067
47.8522
46.7353
45.6544
44.6081
43.5952
42.6144
41.6645
40.7444
39.8531
38.9895
38.1527
37.3418
36.556
35.7944
12777.6
5127.62
2931.88
2016.47
1523.66
1218.28
1011.3
862.065
749.496
661.626
591.162
533.417
485.244
444.452
409.469
379.142
352.6
329.178
308.359
289.733
272.972
257.81
244.03
231.452
219.926
209.327
199.547
190.497
182.098
174.283
166.994
160.18
153.797
147.807
142.174
136.868
131.862
127.132
122.657
118.417
114.394
110.572
106.938
103.479
100.183
97.0381
94.0358
91.1668
88.4229
85.7965
83.2807
80.8691
78.5558
76.3354
74.2027
72.153
70.1821
68.2859
66.4606
64.7026
63.0088
61.376
59.8013
58.2821
56.8159
55.4002
54.033
52.7119
51.4352
50.201
49.0075
47.853
46.736
45.6551
44.6088
43.5959
42.6151
41.6652
40.7451
39.8537
38.9901
38.1534
37.3425
36.5566
35.7949
12777.7
5127.52
2931.8
2016.41
1523.62
1218.25
1011.28
862.046
749.481
661.613
591.15
533.407
485.235
444.444
409.463
379.136
352.595
329.175
308.356
289.731
272.97
257.808
244.029
231.451
219.925
209.326
199.547
190.497
182.098
174.283
166.994
160.181
153.798
147.807
142.175
136.869
131.863
127.133
122.658
118.418
114.395
110.573
106.94
103.48
100.184
97.0392
94.0369
91.1679
88.424
85.7976
83.2818
80.8702
78.5569
76.3364
74.2037
72.1541
70.1831
68.2869
66.4616
64.7036
63.0097
61.3769
59.8022
58.283
56.8168
55.4011
54.0338
52.7128
51.436
50.2018
49.0082
47.8537
46.7368
45.6558
44.6095
43.5966
42.6158
41.6659
40.7458
39.8544
38.9908
38.154
37.3431
36.5572
35.7955
12777.8
5127.42
2931.72
2016.35
1523.58
1218.22
1011.26
862.028
749.466
661.6
591.14
533.398
485.227
444.437
409.457
379.131
352.59
329.171
308.353
289.728
272.968
257.807
244.027
231.45
219.925
209.326
199.547
190.497
182.098
174.283
166.995
160.181
153.799
147.808
142.175
136.87
131.864
127.134
122.659
118.419
114.396
110.574
106.941
103.481
100.185
97.0402
94.038
91.169
88.425
85.7986
83.2828
80.8712
78.5579
76.3374
74.2047
72.155
70.1841
68.2878
66.4625
64.7045
63.0106
61.3778
59.8031
58.2839
56.8176
55.4019
54.0346
52.7136
51.4368
50.2025
49.009
47.8545
46.7375
45.6565
44.6103
43.5973
42.6165
41.6665
40.7464
39.8551
38.9915
38.1547
37.3437
36.5578
35.7961
12778
5127.33
2931.65
2016.3
1523.54
1218.2
1011.24
862.012
749.452
661.588
591.129
533.388
485.219
444.43
409.45
379.125
352.586
329.166
308.349
289.725
272.965
257.805
244.026
231.449
219.924
209.325
199.546
190.497
182.098
174.283
166.995
160.182
153.799
147.809
142.176
136.87
131.865
127.135
122.66
118.42
114.397
110.575
106.942
103.482
100.186
97.0412
94.039
91.17
88.426
85.7996
83.2838
80.8722
78.5589
76.3384
74.2056
72.156
70.185
68.2888
66.4634
64.7054
63.0115
61.3786
59.8039
58.2847
56.8184
55.4027
54.0354
52.7143
51.4376
50.2033
49.0097
47.8552
46.7382
45.6573
44.611
43.598
42.6172
41.6672
40.7471
39.8557
38.9921
38.1553
37.3444
36.5584
35.7967
12778.1
5127.24
2931.58
2016.24
1523.5
1218.17
1011.22
861.995
749.439
661.576
591.119
533.379
485.21
444.422
409.444
379.119
352.58
329.162
308.345
289.722
272.962
257.802
244.024
231.447
219.923
209.324
199.546
190.496
182.098
174.283
166.995
160.182
153.8
147.809
142.177
136.871
131.866
127.136
122.661
118.42
114.397
110.576
106.942
103.483
100.187
97.0422
94.0399
91.1709
88.427
85.8006
83.2847
80.8731
78.5598
76.3393
74.2065
72.1569
70.1859
68.2896
66.4643
64.7063
63.0123
61.3795
59.8048
58.2855
56.8192
55.4035
54.0362
52.7151
51.4384
50.2041
49.0105
47.8559
46.7389
45.658
44.6117
43.5987
42.6178
41.6679
40.7478
39.8564
38.9928
38.1559
37.345
36.559
35.7973
12778.2
5127.15
2931.51
2016.19
1523.46
1218.14
1011.2
861.98
749.426
661.565
591.109
533.37
485.202
444.415
409.437
379.113
352.575
329.157
308.341
289.718
272.959
257.8
244.022
231.445
219.921
209.323
199.545
190.496
182.097
174.283
166.995
160.182
153.8
147.81
142.177
136.872
131.866
127.137
122.661
118.421
114.398
110.577
106.943
103.484
100.188
97.043
94.0408
91.1718
88.4279
85.8015
83.2856
80.874
78.5607
76.3401
74.2074
72.1577
70.1868
68.2905
66.4651
64.7071
63.0132
61.3803
59.8056
58.2863
56.82
55.4043
54.0369
52.7159
51.4391
50.2048
49.0112
47.8567
46.7396
45.6587
44.6124
43.5994
42.6185
41.6686
40.7485
39.8571
38.9934
38.1566
37.3456
36.5596
35.7979
12778.3
5127.07
2931.44
2016.15
1523.43
1218.12
1011.18
861.965
749.414
661.554
591.099
533.361
485.194
444.408
409.43
379.107
352.57
329.153
308.337
289.715
272.956
257.797
244.019
231.443
219.92
209.322
199.544
190.495
182.097
174.283
166.995
160.182
153.8
147.81
142.177
136.872
131.867
127.137
122.662
118.422
114.399
110.578
106.944
103.485
100.188
97.0439
94.0416
91.1726
88.4287
85.8023
83.2865
80.8749
78.5615
76.341
74.2082
72.1586
70.1876
68.2913
66.4659
64.7079
63.014
61.3811
59.8063
58.2871
56.8208
55.4051
54.0377
52.7166
51.4398
50.2055
49.0119
47.8574
46.7404
45.6594
44.6131
43.6001
42.6192
41.6693
40.7491
39.8577
38.9941
38.1572
37.3462
36.5603
35.7985
12778.4
5126.99
2931.38
2016.1
1523.39
1218.09
1011.16
861.951
749.402
661.544
591.09
533.353
485.187
444.401
409.424
379.102
352.565
329.148
308.333
289.711
272.953
257.794
244.017
231.441
219.918
209.321
199.543
190.494
182.096
174.282
166.995
160.182
153.8
147.81
142.178
136.872
131.867
127.138
122.663
118.422
114.4
110.578
106.945
103.486
100.189
97.0446
94.0424
91.1734
88.4295
85.8031
83.2873
80.8757
78.5623
76.3418
74.209
72.1594
70.1884
68.2921
66.4667
64.7087
63.0147
61.3818
59.8071
58.2878
56.8215
55.4058
54.0384
52.7173
51.4406
50.2062
49.0126
47.8581
46.7411
45.6601
44.6137
43.6008
42.6199
41.6699
40.7498
39.8584
38.9947
38.1579
37.3469
36.561
12778.5
5126.91
2931.32
2016.05
1523.36
1218.07
1011.14
861.937
749.39
661.534
591.081
533.345
485.179
444.394
409.418
379.096
352.559
329.143
308.329
289.707
272.95
257.791
244.014
231.439
219.916
209.319
199.542
190.493
182.095
174.282
166.994
160.182
153.8
147.81
142.178
136.873
131.867
127.138
122.663
118.423
114.4
110.579
106.945
103.486
100.19
97.0454
94.0431
91.1742
88.4303
85.8039
83.2881
80.8764
78.5631
76.3426
74.2098
72.1601
70.1892
68.2929
66.4675
64.7094
63.0155
61.3826
59.8079
58.2886
56.8223
55.4065
54.0392
52.7181
51.4413
50.2069
49.0133
47.8588
46.7417
45.6608
44.6144
43.6014
42.6206
41.6706
40.7505
39.8591
38.9954
38.1586
37.3476
36.5617
12778.6
5126.84
2931.26
2016.01
1523.33
1218.05
1011.12
861.923
749.379
661.525
591.073
533.337
485.172
444.387
409.411
379.09
352.554
329.138
308.324
289.703
272.946
257.788
244.012
231.437
219.914
209.317
199.54
190.492
182.095
174.281
166.994
160.181
153.8
147.81
142.178
136.873
131.868
127.138
122.663
118.423
114.401
110.58
106.946
103.487
100.19
97.046
94.0438
91.1749
88.431
85.8046
83.2888
80.8772
78.5639
76.3433
74.2106
72.1609
70.1899
68.2936
66.4682
64.7102
63.0162
61.3833
59.8086
58.2893
56.823
55.4072
54.0399
52.7188
51.442
50.2076
49.014
47.8595
46.7424
45.6614
44.6151
43.6021
42.6212
41.6713
40.7511
39.8597
38.9961
38.1592
37.3482
36.5623
12778.7
5126.76
2931.21
2015.97
1523.3
1218.02
1011.11
861.91
749.369
661.516
591.065
533.33
485.165
444.381
409.405
379.084
352.549
329.133
308.32
289.699
272.943
257.785
244.009
231.435
219.912
209.316
199.539
190.491
182.094
174.28
166.993
160.181
153.799
147.81
142.178
136.873
131.868
127.139
122.664
118.424
114.401
110.58
106.947
103.487
100.191
97.0467
94.0445
91.1756
88.4317
85.8053
83.2895
80.8779
78.5646
76.3441
74.2113
72.1616
70.1906
68.2943
66.4689
64.7109
63.017
61.3841
59.8093
58.29
56.8237
55.4079
54.0406
52.7195
51.4427
50.2083
49.0147
47.8602
46.7431
45.6621
44.6158
43.6028
42.6219
41.672
40.7518
39.8604
38.9967
38.1598
37.3488
36.5628
12778.8
5126.69
2931.15
2015.92
1523.27
1218
1011.09
861.898
749.359
661.507
591.057
533.323
485.159
444.374
409.4
379.079
352.544
329.129
308.316
289.695
272.939
257.782
244.006
231.432
219.91
209.314
199.537
190.489
182.092
174.279
166.992
160.18
153.799
147.81
142.178
136.873
131.868
127.139
122.664
118.424
114.402
110.581
106.947
103.488
100.192
97.0473
94.0451
91.1762
88.4323
85.806
83.2902
80.8786
78.5653
76.3448
74.212
72.1623
70.1914
68.2951
66.4696
64.7116
63.0177
61.3848
59.81
58.2907
56.8244
55.4086
54.0413
52.7201
51.4434
50.209
49.0154
47.8608
46.7438
45.6628
44.6165
43.6035
42.6226
41.6726
40.7525
39.861
38.9974
38.1605
37.3494
36.5634
12778.9
5126.62
2931.1
2015.88
1523.24
1217.98
1011.07
861.885
749.348
661.499
591.049
533.316
485.152
444.368
409.394
379.073
352.539
329.124
308.311
289.691
272.935
257.779
244.003
231.429
219.907
209.312
199.535
190.488
182.091
174.278
166.992
160.18
153.799
147.809
142.177
136.873
131.868
127.139
122.664
118.424
114.402
110.581
106.948
103.488
100.192
97.0478
94.0457
91.1768
88.433
85.8066
83.2909
80.8793
78.5659
76.3454
74.2127
72.163
70.192
68.2957
66.4703
64.7123
63.0184
61.3854
59.8107
58.2914
56.8251
55.4093
54.0419
52.7208
51.444
50.2097
49.0161
47.8615
46.7445
45.6635
44.6171
43.6041
42.6232
41.6733
40.7531
39.8617
38.998
38.1611
37.35
36.564
12779
5126.56
2931.05
2015.84
1523.21
1217.96
1011.06
861.872
749.339
661.491
591.042
533.309
485.146
444.363
409.388
379.068
352.534
329.119
308.307
289.687
272.932
257.775
244
231.427
219.905
209.31
199.534
190.486
182.09
174.277
166.991
160.179
153.798
147.809
142.177
136.873
131.868
127.139
122.664
118.425
114.402
110.581
106.948
103.489
100.193
97.0483
94.0462
91.1774
88.4335
85.8072
83.2915
80.8799
78.5666
76.3461
74.2134
72.1637
70.1927
68.2964
66.471
64.713
63.019
61.3861
59.8114
58.2921
56.8257
55.41
54.0426
52.7215
51.4447
50.2104
49.0167
47.8622
46.7451
45.6641
44.6178
43.6048
42.6239
41.6739
40.7538
39.8623
38.9986
38.1617
37.3506
36.5646
12779.1
5126.49
2930.99
2015.8
1523.18
1217.93
1011.04
861.86
749.329
661.482
591.035
533.303
485.14
444.357
409.383
379.063
352.529
329.115
308.303
289.683
272.928
257.772
243.997
231.424
219.903
209.307
199.532
190.485
182.088
174.276
166.99
160.178
153.797
147.808
142.177
136.872