/*--------------------------------*- C++ -*----------------------------------*\
  =========                 |
  \\      /  F ield         | OpenFOAM: The Open Source CFD Toolbox
   \\    /   O peration     | Website:  https://openfoam.org
    \\  /    A nd           | Version:  10
     \\/     M anipulation  |
\*---------------------------------------------------------------------------*/
FoamFile
{
    format      ascii;
    class       surfaceScalarField;
    location    "24000";
    object      phi;
}
// * * * * * * * * * * * * * * * * * * * * * * * * * * * * * * * * * * * * * //

dimensions      [0 3 -1 0 0 0 0];

internalField   nonuniform List<scalar> 
35320
(
2.68198e-08
1.44016e-05
-1.44284e-05
4.24822e-08
1.31617e-05
-1.31773e-05
5.07253e-08
1.27271e-05
-1.27353e-05
5.50981e-08
1.24908e-05
-1.24952e-05
5.71811e-08
1.23527e-05
-1.23548e-05
5.78611e-08
1.22754e-05
-1.22761e-05
5.76795e-08
1.2239e-05
-1.22388e-05
5.69695e-08
1.22319e-05
-1.22312e-05
5.5948e-08
1.22469e-05
-1.22459e-05
5.47276e-08
1.22793e-05
-1.22781e-05
5.34025e-08
1.23257e-05
-1.23244e-05
5.2008e-08
1.23837e-05
-1.23824e-05
5.05875e-08
1.24517e-05
-1.24503e-05
4.91574e-08
1.25282e-05
-1.25267e-05
4.77274e-08
1.26121e-05
-1.26107e-05
4.63077e-08
1.27028e-05
-1.27014e-05
4.49032e-08
1.27994e-05
-1.2798e-05
4.35217e-08
1.29016e-05
-1.29002e-05
4.21627e-08
1.30087e-05
-1.30074e-05
4.08184e-08
1.31205e-05
-1.31192e-05
3.94976e-08
1.32367e-05
-1.32354e-05
3.82081e-08
1.3357e-05
-1.33557e-05
3.69343e-08
1.34812e-05
-1.34799e-05
3.56915e-08
1.3609e-05
-1.36078e-05
3.44661e-08
1.37404e-05
-1.37391e-05
3.32685e-08
1.38751e-05
-1.38739e-05
3.20953e-08
1.40132e-05
-1.4012e-05
3.09437e-08
1.41543e-05
-1.41532e-05
2.98205e-08
1.42986e-05
-1.42975e-05
2.87153e-08
1.44458e-05
-1.44447e-05
2.7635e-08
1.4596e-05
-1.45949e-05
2.65789e-08
1.4749e-05
-1.47479e-05
2.55488e-08
1.49047e-05
-1.49037e-05
2.45417e-08
1.50632e-05
-1.50622e-05
2.35544e-08
1.52244e-05
-1.52234e-05
2.25912e-08
1.53883e-05
-1.53873e-05
2.16516e-08
1.55547e-05
-1.55538e-05
2.07344e-08
1.57237e-05
-1.57228e-05
1.9837e-08
1.58953e-05
-1.58944e-05
1.89632e-08
1.60693e-05
-1.60684e-05
1.81099e-08
1.62458e-05
-1.6245e-05
1.72812e-08
1.64248e-05
-1.6424e-05
1.64716e-08
1.66063e-05
-1.66054e-05
1.56825e-08
1.67901e-05
-1.67893e-05
1.4918e-08
1.69763e-05
-1.69755e-05
1.41701e-08
1.71648e-05
-1.71641e-05
1.34432e-08
1.73557e-05
-1.7355e-05
1.27379e-08
1.75489e-05
-1.75482e-05
1.20518e-08
1.77444e-05
-1.77438e-05
1.13859e-08
1.79422e-05
-1.79416e-05
1.07396e-08
1.81423e-05
-1.81416e-05
1.01097e-08
1.83445e-05
-1.83439e-05
9.50206e-09
1.8549e-05
-1.85484e-05
8.91126e-09
1.87556e-05
-1.8755e-05
8.33871e-09
1.89644e-05
-1.89639e-05
7.7856e-09
1.91754e-05
-1.91748e-05
7.24892e-09
1.93885e-05
-1.93879e-05
6.73001e-09
1.96036e-05
-1.96031e-05
6.22984e-09
1.98208e-05
-1.98203e-05
5.74368e-09
2.00401e-05
-2.00396e-05
5.27448e-09
2.02613e-05
-2.02608e-05
4.82144e-09
2.04845e-05
-2.04841e-05
4.3857e-09
2.07096e-05
-2.07092e-05
3.96232e-09
2.09367e-05
-2.09363e-05
3.56224e-09
2.11656e-05
-2.11652e-05
3.17076e-09
2.13963e-05
-2.13959e-05
2.79691e-09
2.16288e-05
-2.16285e-05
2.43771e-09
2.18631e-05
-2.18627e-05
2.09045e-09
2.2099e-05
-2.20987e-05
1.76162e-09
2.23366e-05
-2.23363e-05
1.44502e-09
2.25758e-05
-2.25755e-05
1.14329e-09
2.28165e-05
-2.28162e-05
8.53854e-10
2.30587e-05
-2.30584e-05
5.79501e-10
2.33023e-05
-2.3302e-05
3.21214e-10
2.35473e-05
-2.3547e-05
7.26494e-11
2.37935e-05
-2.37933e-05
-1.61455e-10
2.4041e-05
-2.40408e-05
-3.80064e-10
2.42896e-05
-2.42894e-05
-5.87781e-10
2.45393e-05
-2.45391e-05
-7.8146e-10
2.479e-05
-2.47898e-05
-9.58498e-10
2.50416e-05
-2.50414e-05
-1.12335e-09
2.52939e-05
-2.52938e-05
-1.27819e-09
2.5547e-05
-2.55469e-05
-1.41702e-09
2.58007e-05
-2.58006e-05
-1.54201e-09
2.60549e-05
-2.60548e-05
-1.65229e-09
2.63095e-05
-2.63094e-05
-1.7486e-09
2.65644e-05
-2.65643e-05
-1.83309e-09
2.68194e-05
-2.68193e-05
-1.89984e-09
2.70744e-05
-2.70743e-05
-1.95581e-09
2.73293e-05
-2.73292e-05
-1.99194e-09
2.75839e-05
-2.75839e-05
2.78382e-05
-2.78381e-05
2.94066e-09
1.43987e-05
7.0876e-09
1.31575e-05
1.26942e-08
1.27215e-05
1.85476e-08
1.24849e-05
2.36699e-08
1.23476e-05
2.79173e-08
1.22712e-05
3.13194e-08
1.22356e-05
3.39471e-08
1.22293e-05
3.59006e-08
1.2245e-05
3.72998e-08
1.22779e-05
3.82217e-08
1.23248e-05
3.87717e-08
1.23832e-05
3.90124e-08
1.24514e-05
3.90033e-08
1.25282e-05
3.87958e-08
1.26124e-05
3.84292e-08
1.27032e-05
3.79353e-08
1.27999e-05
3.73372e-08
1.29022e-05
3.6658e-08
1.30094e-05
3.59226e-08
1.31213e-05
3.51335e-08
1.32375e-05
3.43071e-08
1.33578e-05
3.34515e-08
1.3482e-05
3.25715e-08
1.36099e-05
3.16807e-08
1.37413e-05
3.07756e-08
1.3876e-05
2.98681e-08
1.40141e-05
2.89581e-08
1.41553e-05
2.80438e-08
1.42995e-05
2.71341e-08
1.44467e-05
2.6231e-08
1.45969e-05
2.53381e-08
1.47498e-05
2.44466e-08
1.49056e-05
2.35693e-08
1.50641e-05
2.27025e-08
1.52253e-05
2.1846e-08
1.53891e-05
2.10005e-08
1.55555e-05
2.01732e-08
1.57245e-05
1.93548e-08
1.58961e-05
1.8552e-08
1.60701e-05
1.77675e-08
1.62466e-05
1.69938e-08
1.64256e-05
1.62375e-08
1.6607e-05
1.54986e-08
1.67908e-05
1.47721e-08
1.6977e-05
1.40643e-08
1.71655e-05
1.33724e-08
1.73564e-05
1.2696e-08
1.75496e-05
1.20367e-08
1.77451e-05
1.13896e-08
1.79429e-05
1.0765e-08
1.81429e-05
1.01557e-08
1.83451e-05
9.56091e-09
1.85496e-05
8.98459e-09
1.87562e-05
8.42144e-09
1.8965e-05
7.87503e-09
1.91759e-05
7.34666e-09
1.9389e-05
6.83147e-09
1.96041e-05
6.33272e-09
1.98213e-05
5.84972e-09
2.00405e-05
5.38369e-09
2.02618e-05
4.93352e-09
2.0485e-05
4.49661e-09
2.07101e-05
4.07796e-09
2.09371e-05
3.66891e-09
2.1166e-05
3.27839e-09
2.13967e-05
2.90138e-09
2.16292e-05
2.53739e-09
2.18634e-05
2.19091e-09
2.20994e-05
1.85377e-09
2.23369e-05
1.53427e-09
2.25761e-05
1.22813e-09
2.28168e-05
9.35812e-10
2.3059e-05
6.56918e-10
2.33026e-05
3.90525e-10
2.35475e-05
1.41175e-10
2.37938e-05
-9.74499e-11
2.40412e-05
-3.24248e-10
2.42898e-05
-5.33016e-10
2.45395e-05
-7.31585e-10
2.47902e-05
-9.17302e-10
2.50417e-05
-1.08555e-09
2.52941e-05
-1.24244e-09
2.55472e-05
-1.3835e-09
2.58009e-05
-1.51302e-09
2.60551e-05
-1.62818e-09
2.63096e-05
-1.72798e-09
2.65645e-05
-1.81316e-09
2.68195e-05
-1.88615e-09
2.70745e-05
-1.94092e-09
2.73293e-05
-1.98153e-09
2.7584e-05
2.78382e-05
3.58011e-09
1.43951e-05
6.93498e-09
1.31542e-05
1.01239e-08
1.27183e-05
1.31621e-08
1.24819e-05
1.59773e-08
1.23448e-05
1.86177e-08
1.22685e-05
2.10468e-08
1.22332e-05
2.32269e-08
1.22271e-05
2.51337e-08
1.2243e-05
2.6754e-08
1.22763e-05
2.81042e-08
1.23234e-05
2.91861e-08
1.23821e-05
3.00246e-08
1.24506e-05
3.06446e-08
1.25276e-05
3.10653e-08
1.26119e-05
3.13121e-08
1.27029e-05
3.14057e-08
1.27998e-05
3.13628e-08
1.29022e-05
3.12092e-08
1.30096e-05
3.09466e-08
1.31215e-05
3.0605e-08
1.32379e-05
3.01833e-08
1.33582e-05
2.97079e-08
1.34825e-05
2.91747e-08
1.36104e-05
2.85967e-08
1.37418e-05
2.79834e-08
1.38766e-05
2.73407e-08
1.40147e-05
2.66712e-08
1.41559e-05
2.59814e-08
1.43002e-05
2.5278e-08
1.44474e-05
2.45609e-08
1.45976e-05
2.38336e-08
1.47506e-05
2.31004e-08
1.49063e-05
2.2366e-08
1.50648e-05
2.1627e-08
1.5226e-05
2.08895e-08
1.53898e-05
2.01572e-08
1.55563e-05
1.94218e-08
1.57253e-05
1.86978e-08
1.58968e-05
1.79815e-08
1.60708e-05
1.72659e-08
1.62473e-05
1.65633e-08
1.64263e-05
1.58694e-08
1.66077e-05
1.51839e-08
1.67915e-05
1.45096e-08
1.69777e-05
1.38483e-08
1.71662e-05
1.31977e-08
1.73571e-05
1.256e-08
1.75502e-05
1.19304e-08
1.77457e-05
1.13196e-08
1.79435e-05
1.07185e-08
1.81435e-05
1.01308e-08
1.83457e-05
9.55648e-09
1.85501e-05
8.99649e-09
1.87568e-05
8.45299e-09
1.89656e-05
7.91881e-09
1.91765e-05
7.40164e-09
1.93895e-05
6.89673e-09
1.96046e-05
6.40551e-09
1.98218e-05
5.9313e-09
2.0041e-05
5.46919e-09
2.02622e-05
5.02265e-09
2.04854e-05
4.58685e-09
2.07105e-05
4.16689e-09
2.09375e-05
3.76399e-09
2.11664e-05
3.37128e-09
2.13971e-05
2.99191e-09
2.16296e-05
2.63079e-09
2.18638e-05
2.27952e-09
2.20997e-05
1.94463e-09
2.23373e-05
1.61968e-09
2.25764e-05
1.31131e-09
2.28171e-05
1.01317e-09
2.30593e-05
7.31473e-10
2.33028e-05
4.61915e-10
2.35478e-05
2.05557e-10
2.3794e-05
-3.50221e-11
2.40415e-05
-2.64326e-10
2.42901e-05
-4.79391e-10
2.45397e-05
-6.79695e-10
2.47904e-05
-8.67377e-10
2.50419e-05
-1.04353e-09
2.52943e-05
-1.20187e-09
2.55473e-05
-1.35026e-09
2.5801e-05
-1.48246e-09
2.60552e-05
-1.59949e-09
2.63097e-05
-1.70359e-09
2.65646e-05
-1.79055e-09
2.68195e-05
-1.8629e-09
2.70745e-05
-1.92131e-09
2.73294e-05
-1.96484e-09
2.7584e-05
2.78382e-05
2.80217e-09
1.43923e-05
5.4007e-09
1.31516e-05
8.11267e-09
1.27156e-05
1.05274e-08
1.24795e-05
1.26745e-08
1.23426e-05
1.462e-08
1.22666e-05
1.63764e-08
1.22314e-05
1.79789e-08
1.22255e-05
1.94347e-08
1.22416e-05
2.07453e-08
1.2275e-05
2.19166e-08
1.23222e-05
2.29391e-08
1.23811e-05
2.38198e-08
1.24497e-05
2.45639e-08
1.25268e-05
2.51703e-08
1.26113e-05
2.56504e-08
1.27024e-05
2.60075e-08
1.27995e-05
2.62498e-08
1.2902e-05
2.63902e-08
1.30094e-05
2.64341e-08
1.31215e-05
2.63922e-08
1.32379e-05
2.62695e-08
1.33584e-05
2.60708e-08
1.34827e-05
2.58161e-08
1.36107e-05
2.5499e-08
1.37422e-05
2.51329e-08
1.3877e-05
2.47184e-08
1.40151e-05
2.4268e-08
1.41564e-05
2.3786e-08
1.43007e-05
2.32717e-08
1.44479e-05
2.27314e-08
1.45981e-05
2.21727e-08
1.47511e-05
2.15937e-08
1.49069e-05
2.09997e-08
1.50654e-05
2.03952e-08
1.52266e-05
1.97821e-08
1.53905e-05
1.91597e-08
1.55569e-05
1.85342e-08
1.57259e-05
1.79023e-08
1.58974e-05
1.72721e-08
1.60715e-05
1.66423e-08
1.6248e-05
1.60133e-08
1.64269e-05
1.5386e-08
1.66083e-05
1.47632e-08
1.67921e-05
1.41474e-08
1.69783e-05
1.35366e-08
1.71668e-05
1.29312e-08
1.73577e-05
1.23356e-08
1.75508e-05
1.17518e-08
1.77463e-05
1.11711e-08
1.79441e-05
1.05998e-08
1.8144e-05
1.00422e-08
1.83463e-05
9.49563e-09
1.85507e-05
8.95562e-09
1.87573e-05
8.43016e-09
1.89661e-05
7.91642e-09
1.9177e-05
7.41228e-09
1.939e-05
6.92325e-09
1.96051e-05
6.44454e-09
1.98223e-05
5.97765e-09
2.00415e-05
5.52598e-09
2.02627e-05
5.08473e-09
2.04858e-05
4.65513e-09
2.0711e-05
4.24085e-09
2.09379e-05
3.83464e-09
2.11668e-05
3.44782e-09
2.13975e-05
3.07172e-09
2.163e-05
2.70724e-09
2.18642e-05
2.3577e-09
2.21001e-05
2.01809e-09
2.23376e-05
1.69727e-09
2.25767e-05
1.3847e-09
2.28174e-05
1.08917e-09
2.30596e-05
8.04018e-10
2.33031e-05
5.32096e-10
2.35481e-05
2.72324e-10
2.37943e-05
2.78622e-11
2.40417e-05
-2.04265e-10
2.42903e-05
-4.21296e-10
2.454e-05
-6.27636e-10
2.47906e-05
-8.17136e-10
2.50421e-05
-9.94139e-10
2.52945e-05
-1.15973e-09
2.55475e-05
-1.30748e-09
2.58012e-05
-1.44196e-09
2.60553e-05
-1.56381e-09
2.63099e-05
-1.66883e-09
2.65647e-05
-1.75982e-09
2.68196e-05
-1.83716e-09
2.70746e-05
-1.89689e-09
2.73295e-05
-1.94162e-09
2.75841e-05
2.78382e-05
1.6721e-09
1.43906e-05
3.07744e-09
1.31502e-05
4.88783e-09
1.27138e-05
6.68868e-09
1.24777e-05
8.44973e-09
1.23409e-05
1.01125e-08
1.22649e-05
1.1674e-08
1.22298e-05
1.31309e-08
1.2224e-05
1.44787e-08
1.22402e-05
1.57221e-08
1.22737e-05
1.68572e-08
1.23211e-05
1.78862e-08
1.23801e-05
1.88062e-08
1.24488e-05
1.96181e-08
1.2526e-05
2.03288e-08
1.26106e-05
2.0937e-08
1.27018e-05
2.14436e-08
1.2799e-05
2.18619e-08
1.29015e-05
2.21877e-08
1.30091e-05
2.24251e-08
1.31213e-05
2.25812e-08
1.32377e-05
2.26653e-08
1.33583e-05
2.26775e-08
1.34827e-05
2.26216e-08
1.36107e-05
2.25104e-08
1.37423e-05
2.23379e-08
1.38772e-05
2.2121e-08
1.40153e-05
2.18535e-08
1.41566e-05
2.15444e-08
1.4301e-05
2.12022e-08
1.44483e-05
2.0825e-08
1.45985e-05
2.04113e-08
1.47515e-05
1.99811e-08
1.49074e-05
1.95219e-08
1.50659e-05
1.90436e-08
1.52271e-05
1.8546e-08
1.5391e-05
1.80382e-08
1.55574e-05
1.75169e-08
1.57264e-05
1.69862e-08
1.5898e-05
1.64427e-08
1.6072e-05
1.58993e-08
1.62485e-05
1.53476e-08
1.64275e-05
1.47935e-08
1.66089e-05
1.42395e-08
1.67927e-05
1.36841e-08
1.69788e-05
1.3128e-08
1.71674e-05
1.25782e-08
1.73582e-05
1.20282e-08
1.75514e-05
1.14849e-08
1.77469e-05
1.09464e-08
1.79446e-05
1.04167e-08
1.81446e-05
9.88945e-09
1.83468e-05
9.36883e-09
1.85512e-05
8.86106e-09
1.87578e-05
8.35725e-09
1.89666e-05
7.86368e-09
1.91775e-05
7.38165e-09
1.93905e-05
6.90671e-09
1.96056e-05
6.44272e-09
1.98228e-05
5.99082e-09
2.00419e-05
5.5468e-09
2.02631e-05
5.11603e-09
2.04863e-05
4.69762e-09
2.07114e-05
4.28879e-09
2.09384e-05
3.89306e-09
2.11672e-05
3.50745e-09
2.13979e-05
3.13538e-09
2.16303e-05
2.77594e-09
2.18645e-05
2.42412e-09
2.21004e-05
2.09117e-09
2.23379e-05
1.76626e-09
2.25771e-05
1.45429e-09
2.28177e-05
1.15614e-09
2.30599e-05
8.69311e-10
2.33034e-05
5.96445e-10
2.35483e-05
3.38572e-10
2.37945e-05
9.09507e-11
2.4042e-05
-1.43603e-10
2.42905e-05
-3.64233e-10
2.45402e-05
-5.70085e-10
2.47908e-05
-7.67371e-10
2.50423e-05
-9.46449e-10
2.52946e-05
-1.10816e-09
2.55477e-05
-1.26222e-09
2.58013e-05
-1.39929e-09
2.60555e-05
-1.52173e-09
2.631e-05
-1.63058e-09
2.65648e-05
-1.72329e-09
2.68197e-05
-1.80245e-09
2.70747e-05
-1.86575e-09
2.73295e-05
-1.91081e-09
2.75841e-05
2.78383e-05
1.12018e-09
1.43895e-05
2.02654e-09
1.31493e-05
3.21638e-09
1.27126e-05
4.4609e-09
1.24764e-05
5.76374e-09
1.23396e-05
7.05324e-09
1.22636e-05
8.31372e-09
1.22286e-05
9.53405e-09
1.22228e-05
1.07062e-08
1.22391e-05
1.18213e-08
1.22726e-05
1.28648e-08
1.23201e-05
1.38461e-08
1.23791e-05
1.47484e-08
1.24479e-05
1.55774e-08
1.25252e-05
1.6328e-08
1.26099e-05
1.69935e-08
1.27012e-05
1.75877e-08
1.27984e-05
1.81025e-08
1.2901e-05
1.85342e-08
1.30087e-05
1.88999e-08
1.31209e-05
1.9191e-08
1.32374e-05
1.9413e-08
1.33581e-05
1.95728e-08
1.34825e-05
1.96685e-08
1.36106e-05
1.97027e-08
1.37422e-05
1.9691e-08
1.38772e-05
1.96186e-08
1.40154e-05
1.95011e-08
1.41568e-05
1.93387e-08
1.43011e-05
1.91366e-08
1.44485e-05
1.88948e-08
1.45987e-05
1.8626e-08
1.47518e-05
1.83154e-08
1.49077e-05
1.79797e-08
1.50662e-05
1.76212e-08
1.52275e-05
1.72392e-08
1.53913e-05
1.68336e-08
1.55578e-05
1.64128e-08
1.57268e-05
1.59761e-08
1.58984e-05
1.55271e-08
1.60725e-05
1.50626e-08
1.6249e-05
1.45905e-08
1.6428e-05
1.41097e-08
1.66094e-05
1.36255e-08
1.67932e-05
1.3134e-08
1.69793e-05
1.26406e-08
1.71679e-05
1.21434e-08
1.73587e-05
1.16472e-08
1.75519e-05
1.11506e-08
1.77474e-05
1.06553e-08
1.79451e-05
1.01618e-08
1.81451e-05
9.67044e-09
1.83473e-05
9.18739e-09
1.85517e-05
8.70592e-09
1.87583e-05
8.23256e-09
1.89671e-05
7.76501e-09
1.9178e-05
7.30269e-09
1.9391e-05
6.84771e-09
1.96061e-05
6.40545e-09
1.98232e-05
5.96769e-09
2.00424e-05
5.53975e-09
2.02636e-05
5.12087e-09
2.04867e-05
4.71095e-09
2.07118e-05
4.31506e-09
2.09388e-05
3.92647e-09
2.11676e-05
3.54671e-09
2.13983e-05
3.18251e-09
2.16307e-05
2.82359e-09
2.18649e-05
2.48274e-09
2.21008e-05
2.14727e-09
2.23383e-05
1.826e-09
2.25774e-05
1.51644e-09
2.2818e-05
1.21748e-09
2.30602e-05
9.33757e-10
2.33037e-05
6.60638e-10
2.35486e-05
3.99026e-10
2.37948e-05
1.51722e-10
2.40422e-05
-8.40566e-11
2.42908e-05
-3.07428e-10
2.45404e-05
-5.1396e-10
2.4791e-05
-7.06587e-10
2.50425e-05
-8.91458e-10
2.52948e-05
-1.06061e-09
2.55478e-05
-1.21358e-09
2.58015e-05
-1.35436e-09
2.60556e-05
-1.47739e-09
2.63101e-05
-1.58719e-09
2.65649e-05
-1.68422e-09
2.68198e-05
-1.75992e-09
2.70748e-05
-1.82519e-09
2.73296e-05
-1.87451e-09
2.75841e-05
2.78383e-05
8.64022e-10
1.43886e-05
1.61248e-09
1.31485e-05
2.49584e-09
1.27117e-05
3.45007e-09
1.24755e-05
4.44813e-09
1.23386e-05
5.43599e-09
1.22626e-05
6.42199e-09
1.22276e-05
7.38435e-09
1.22218e-05
8.3303e-09
1.22381e-05
9.24655e-09
1.22717e-05
1.01331e-08
1.23192e-05
1.09774e-08
1.23782e-05
1.17801e-08
1.24471e-05
1.25302e-08
1.25244e-05
1.32345e-08
1.26092e-05
1.38845e-08
1.27005e-05
1.44774e-08
1.27978e-05
1.50086e-08
1.29005e-05
1.54849e-08
1.30082e-05
1.59059e-08
1.31205e-05
1.62628e-08
1.32371e-05
1.65693e-08
1.33578e-05
1.68127e-08
1.34823e-05
1.70071e-08
1.36104e-05
1.71509e-08
1.37421e-05
1.72354e-08
1.38771e-05
1.72821e-08
1.40154e-05
1.72776e-08
1.41568e-05
1.7231e-08
1.43012e-05
1.71416e-08
1.44486e-05
1.70163e-08
1.45989e-05
1.68517e-08
1.4752e-05
1.66569e-08
1.49079e-05
1.64313e-08
1.50665e-05
1.61716e-08
1.52277e-05
1.58894e-08
1.53916e-05
1.55854e-08
1.55581e-05
1.52522e-08
1.57272e-05
1.49051e-08
1.58987e-05
1.45405e-08
1.60728e-05
1.41574e-08
1.62494e-05
1.37615e-08
1.64284e-05
1.33581e-08
1.66098e-05
1.29367e-08
1.67936e-05
1.25099e-08
1.69798e-05
1.20777e-08
1.71683e-05
1.16385e-08
1.73592e-05
1.11911e-08
1.75523e-05
1.07441e-08
1.77478e-05
1.02958e-08
1.79455e-05
9.84247e-09
1.81455e-05
9.39657e-09
1.83477e-05
8.94569e-09
1.85521e-05
8.5003e-09
1.87587e-05
8.05627e-09
1.89675e-05
7.61515e-09
1.91784e-05
7.17941e-09
1.93914e-05
6.75241e-09
1.96065e-05
6.32797e-09
1.98236e-05
5.90746e-09
2.00428e-05
5.49863e-09
2.0264e-05
5.09502e-09
2.04871e-05
4.7021e-09
2.07122e-05
4.31297e-09
2.09391e-05
3.93534e-09
2.1168e-05
3.56835e-09
2.13986e-05
3.2073e-09
2.16311e-05
2.85915e-09
2.18652e-05
2.51942e-09
2.21011e-05
2.19289e-09
2.23386e-05
1.87487e-09
2.25777e-05
1.56832e-09
2.28183e-05
1.27237e-09
2.30604e-05
9.87927e-10
2.3304e-05
7.17823e-10
2.35489e-05
4.55562e-10
2.37951e-05
2.09361e-10
2.40425e-05
-2.38193e-11
2.4291e-05
-2.48395e-10
2.45406e-05
-4.58189e-10
2.47912e-05
-6.55905e-10
2.50427e-05
-8.35712e-10
2.5295e-05
-1.00561e-09
2.5548e-05
-1.16098e-09
2.58016e-05
-1.30156e-09
2.60557e-05
-1.42827e-09
2.63102e-05
-1.54024e-09
2.6565e-05
-1.63385e-09
2.68199e-05
-1.71677e-09
2.70748e-05
-1.77998e-09
2.73297e-05
-1.82995e-09
2.75842e-05
2.78383e-05
7.13303e-10
1.43879e-05
1.32091e-09
1.31479e-05
1.995e-09
1.2711e-05
2.7472e-09
1.24747e-05
3.53451e-09
1.23378e-05
4.33122e-09
1.22619e-05
5.11354e-09
1.22268e-05
5.89585e-09
1.22211e-05
6.66214e-09
1.22374e-05
7.41566e-09
1.22709e-05
8.15207e-09
1.23184e-05
8.86946e-09
1.23775e-05
9.55735e-09
1.24464e-05
1.02197e-08
1.25238e-05
1.08418e-08
1.26085e-05
1.1439e-08
1.26999e-05
1.19886e-08
1.27972e-05
1.25018e-08
1.29e-05
1.29782e-08
1.30077e-05
1.34001e-08
1.31201e-05
1.37875e-08
1.32367e-05
1.41227e-08
1.33574e-05
1.44184e-08
1.3482e-05
1.46662e-08
1.36102e-05
1.48684e-08
1.37419e-05
1.50325e-08
1.38769e-05
1.51489e-08
1.40152e-05
1.52254e-08
1.41567e-05
1.52628e-08
1.43012e-05
1.52592e-08
1.44486e-05
1.52206e-08
1.45989e-05
1.51474e-08
1.47521e-05
1.5041e-08
1.4908e-05
1.49001e-08
1.50666e-05
1.47327e-08
1.52279e-05
1.45398e-08
1.53918e-05
1.43157e-08
1.55583e-05
1.40728e-08
1.57274e-05
1.38029e-08
1.5899e-05
1.35141e-08
1.60731e-05
1.32069e-08
1.62497e-05
1.2885e-08
1.64287e-05
1.25442e-08
1.66101e-05
1.21944e-08
1.67939e-05
1.18271e-08
1.69801e-05
1.14545e-08
1.71687e-05
1.10701e-08
1.73595e-05
1.06809e-08
1.75527e-05
1.0283e-08
1.77482e-05
9.88127e-09
1.79459e-05
9.47551e-09
1.81459e-05
9.06406e-09
1.83481e-05
8.65527e-09
1.85526e-05
8.24332e-09
1.87592e-05
7.83161e-09
1.89679e-05
7.42498e-09
1.91788e-05
7.01629e-09
1.93918e-05
6.612e-09
1.96069e-05
6.20937e-09
1.9824e-05
5.81465e-09
2.00432e-05
5.42287e-09
2.02644e-05
5.03822e-09
2.04875e-05
4.65926e-09
2.07126e-05
4.28816e-09
2.09395e-05
3.92208e-09
2.11683e-05
3.56582e-09
2.1399e-05
3.21337e-09
2.16314e-05
2.87563e-09
2.18656e-05
2.54353e-09
2.21014e-05
2.22239e-09
2.23389e-05
1.90984e-09
2.2578e-05
1.60988e-09
2.28186e-05
1.31813e-09
2.30607e-05
1.0395e-09
2.33043e-05
7.68949e-10
2.35491e-05
5.13024e-10
2.37953e-05
2.65276e-10
2.40427e-05
3.0243e-11
2.42912e-05
-1.89769e-10
2.45408e-05
-4.00829e-10
2.47914e-05
-5.95613e-10
2.50429e-05
-7.79878e-10
2.52952e-05
-9.4964e-10
2.55482e-05
-1.10447e-09
2.58018e-05
-1.24671e-09
2.60559e-05
-1.37271e-09
2.63104e-05
-1.48501e-09
2.65651e-05
-1.58343e-09
2.682e-05
-1.66364e-09
2.70749e-05
-1.73088e-09
2.73297e-05
-1.78118e-09
2.75842e-05
2.78384e-05
5.79948e-10
1.43873e-05
1.05472e-09
1.31474e-05
1.56259e-09
1.27105e-05
2.1531e-09
1.24741e-05
2.78309e-09
1.23372e-05
3.42272e-09
1.22612e-05
4.06432e-09
1.22262e-05
4.70318e-09
1.22204e-05
5.34292e-09
1.22367e-05
5.97092e-09
1.22703e-05
6.59034e-09
1.23178e-05
7.19752e-09
1.23769e-05
7.79443e-09
1.24458e-05
8.36874e-09
1.25232e-05
8.92781e-09
1.2608e-05
9.45458e-09
1.26994e-05
9.9648e-09
1.27967e-05
1.04418e-08
1.28995e-05
1.08858e-08
1.30073e-05
1.13045e-08
1.31196e-05
1.16858e-08
1.32363e-05
1.20325e-08
1.33571e-05
1.23435e-08
1.34817e-05
1.26172e-08
1.36099e-05
1.28551e-08
1.37417e-05
1.30564e-08
1.38767e-05
1.3223e-08
1.40151e-05
1.3357e-08
1.41565e-05
1.34503e-08
1.43011e-05
1.35133e-08
1.44485e-05
1.35405e-08
1.45989e-05
1.35351e-08
1.47521e-05
1.34968e-08
1.4908e-05
1.34316e-08
1.50667e-05
1.33367e-08
1.5228e-05
1.32104e-08
1.53919e-05
1.30632e-08
1.55585e-05
1.28879e-08
1.57276e-05
1.26926e-08
1.58992e-05
1.24729e-08
1.60733e-05
1.22345e-08
1.62499e-05
1.19769e-08
1.64289e-05
1.17016e-08
1.66104e-05
1.14112e-08
1.67942e-05
1.11079e-08
1.69804e-05
1.07861e-08
1.7169e-05
1.04569e-08
1.73599e-05
1.01184e-08
1.75531e-05
9.76878e-09
1.77485e-05
9.41247e-09
1.79463e-05
9.05418e-09
1.81463e-05
8.68728e-09
1.83485e-05
8.31411e-09
1.85529e-05
7.94089e-09
1.87595e-05
7.56582e-09
1.89683e-05
7.18823e-09
1.91792e-05
6.81047e-09
1.93922e-05
6.43402e-09
1.96073e-05
6.05892e-09
1.98244e-05
5.68627e-09
2.00436e-05
5.31846e-09
2.02647e-05
4.95004e-09
2.04879e-05
4.58951e-09
2.07129e-05
4.23163e-09
2.09399e-05
3.88393e-09
2.11687e-05
3.53985e-09
2.13993e-05
3.20625e-09
2.16317e-05
2.87458e-09
2.18659e-05
2.55415e-09
2.21017e-05
2.24005e-09
2.23392e-05
1.93658e-09
2.25783e-05
1.6419e-09
2.28189e-05
1.35445e-09
2.3061e-05
1.07891e-09
2.33045e-05
8.12715e-10
2.35494e-05
5.58229e-10
2.37956e-05
3.14631e-10
2.4043e-05
8.25545e-11
2.42915e-05
-1.37135e-10
2.45411e-05
-3.45698e-10
2.47916e-05
-5.4037e-10
2.50431e-05
-7.22623e-10
2.52954e-05
-8.91552e-10
2.55484e-05
-1.04673e-09
2.58019e-05
-1.18748e-09
2.6056e-05
-1.31635e-09
2.63105e-05
-1.42997e-09
2.65652e-05
-1.524e-09
2.68201e-05
-1.60869e-09
2.7075e-05
-1.67348e-09
2.73298e-05
-1.72357e-09
2.75843e-05
2.78384e-05
4.64354e-10
1.43869e-05
8.43398e-10
1.31471e-05
1.2369e-09
1.27101e-05
1.70354e-09
1.24737e-05
2.20885e-09
1.23367e-05
2.72926e-09
1.22607e-05
3.25595e-09
1.22256e-05
3.78388e-09
1.22199e-05
4.31264e-09
1.22362e-05
4.84067e-09
1.22698e-05
5.36769e-09
1.23173e-05
5.88261e-09
1.23764e-05
6.39363e-09
1.24453e-05
6.89478e-09
1.25227e-05
7.38022e-09
1.26075e-05
7.85427e-09
1.26989e-05
8.30393e-09
1.27963e-05
8.74215e-09
1.28991e-05
9.15234e-09
1.30069e-05
9.54364e-09
1.31192e-05
9.90724e-09
1.3236e-05
1.02443e-08
1.33567e-05
1.05579e-08
1.34813e-05
1.08383e-08
1.36096e-05
1.10945e-08
1.37414e-05
1.13196e-08
1.38765e-05
1.15123e-08
1.40149e-05
1.16746e-08
1.41564e-05
1.18106e-08
1.43009e-05
1.19116e-08
1.44484e-05
1.19871e-08
1.45988e-05
1.2032e-08
1.4752e-05
1.20508e-08
1.4908e-05
1.20401e-08
1.50667e-05
1.20006e-08
1.5228e-05
1.19344e-08
1.5392e-05
1.18436e-08
1.55586e-05
1.17311e-08
1.57277e-05
1.15942e-08
1.58993e-05
1.14333e-08
1.60735e-05
1.12533e-08
1.62501e-05
1.10544e-08
1.64291e-05
1.08388e-08
1.66106e-05
1.06046e-08
1.67945e-05
1.03542e-08
1.69807e-05
1.00923e-08
1.71692e-05
9.81457e-09
1.73602e-05
9.52323e-09
1.75534e-05
9.22532e-09
1.77488e-05
8.91409e-09
1.79466e-05
8.59393e-09
1.81466e-05
8.26709e-09
1.83488e-05
7.93777e-09
1.85533e-05
7.59933e-09
1.87599e-05
7.25788e-09
1.89686e-05
6.91163e-09
1.91795e-05
6.56623e-09
1.93925e-05
6.2173e-09
1.96076e-05
5.87068e-09
1.98247e-05
5.52388e-09
2.00439e-05
5.17633e-09
2.02651e-05
4.83581e-09
2.04882e-05
4.49361e-09
2.07133e-05
4.15736e-09
2.09402e-05
3.82369e-09
2.1169e-05
3.49458e-09
2.13997e-05
3.17113e-09
2.16321e-05
2.85468e-09
2.18662e-05
2.5457e-09
2.21021e-05
2.24192e-09
2.23395e-05
1.94611e-09
2.25786e-05
1.65722e-09
2.28192e-05
1.38196e-09
2.30613e-05
1.10976e-09
2.33048e-05
8.52956e-10
2.35497e-05
6.01108e-10
2.37958e-05
3.6027e-10
2.40432e-05
1.33238e-10
2.42917e-05
-8.4919e-11
2.45413e-05
-2.89961e-10
2.47918e-05
-4.8457e-10
2.50433e-05
-6.66433e-10
2.52956e-05
-8.35128e-10
2.55485e-05
-9.89759e-10
2.58021e-05
-1.13014e-09
2.60562e-05
-1.2572e-09
2.63106e-05
-1.36539e-09
2.65653e-05
-1.46477e-09
2.68202e-05
-1.54315e-09
2.70751e-05
-1.61104e-09
2.73299e-05
-1.66146e-09
2.75843e-05
2.78384e-05
3.88676e-10
1.43865e-05
7.01506e-10
1.31467e-05
1.00899e-09
1.27098e-05
1.38094e-09
1.24733e-05
1.78725e-09
1.23362e-05
2.21354e-09
1.22603e-05
2.64832e-09
1.22252e-05
3.09488e-09
1.22194e-05
3.53226e-09
1.22358e-05
3.97307e-09
1.22693e-05
4.41332e-09
1.23169e-05
4.85532e-09
1.2376e-05
5.28894e-09
1.24449e-05
5.71694e-09
1.25223e-05
6.13883e-09
1.26071e-05
6.55305e-09
1.26985e-05
6.95571e-09
1.27959e-05
7.34163e-09
1.28987e-05
7.7167e-09
1.30065e-05
8.07018e-09
1.31189e-05
8.41015e-09
1.32356e-05
8.72911e-09
1.33564e-05
9.0247e-09
1.34811e-05
9.3059e-09
1.36093e-05
9.55983e-09
1.37411e-05
9.79014e-09
1.38763e-05
9.99544e-09
1.40147e-05
1.01765e-08
1.41562e-05
1.03319e-08
1.43008e-05
1.0466e-08
1.44483e-05
1.05719e-08
1.45987e-05
1.06494e-08
1.47519e-05
1.07045e-08
1.49079e-05
1.07344e-08
1.50666e-05
1.07408e-08
1.5228e-05
1.0723e-08
1.5392e-05
1.06804e-08
1.55586e-05
1.06155e-08
1.57278e-05
1.05252e-08
1.58994e-05
1.04187e-08
1.60736e-05
1.02932e-08
1.62502e-05
1.01421e-08
1.64293e-05
9.9741e-09
1.66108e-05
9.79145e-09
1.67946e-05
9.59173e-09
1.69809e-05
9.37473e-09
1.71695e-05
9.14503e-09
1.73604e-05
8.90243e-09
1.75536e-05
8.64676e-09
1.77491e-05
8.37989e-09
1.79469e-05
8.10429e-09
1.81469e-05
7.81748e-09
1.83491e-05
7.52328e-09
1.85536e-05
7.22379e-09
1.87602e-05
6.91683e-09
1.89689e-05
6.60774e-09
1.91798e-05
6.29272e-09
1.93928e-05
5.97507e-09
1.96079e-05
5.65453e-09
1.98251e-05
5.33492e-09
2.00442e-05
5.01343e-09
2.02654e-05
4.69161e-09
2.04885e-05
4.37069e-09
2.07136e-05
4.05398e-09
2.09405e-05
3.73921e-09
2.11693e-05
3.42542e-09
2.14e-05
3.11944e-09
2.16324e-05
2.81662e-09
2.18665e-05
2.52007e-09
2.21024e-05
2.22697e-09
2.23398e-05
1.94214e-09
2.25789e-05
1.66624e-09
2.28195e-05
1.39472e-09
2.30616e-05
1.13425e-09
2.33051e-05
8.79233e-10
2.35499e-05
6.34816e-10
2.37961e-05
4.03277e-10
2.40434e-05
1.76026e-10
2.42919e-05
-3.6869e-11
2.45415e-05
-2.40309e-10
2.4792e-05
-4.30618e-10
2.50435e-05
-6.10166e-10
2.52957e-05
-7.75291e-10
2.55487e-05
-9.28541e-10
2.58022e-05
-1.06786e-09
2.60563e-05
-1.19282e-09
2.63107e-05
-1.30303e-09
2.65654e-05
-1.39801e-09
2.68203e-05
-1.47651e-09
2.70752e-05
-1.54049e-09
2.73299e-05
-1.5921e-09
2.75844e-05
2.78385e-05
3.22008e-10
1.43862e-05
5.81487e-10
1.31465e-05
8.32278e-10
1.27096e-05
1.13118e-09
1.2473e-05
1.46201e-09
1.23359e-05
1.80992e-09
1.22599e-05
2.17685e-09
1.22248e-05
2.54086e-09
1.22191e-05
2.91124e-09
1.22354e-05
3.28307e-09
1.2269e-05
3.65421e-09
1.23165e-05
4.02647e-09
1.23756e-05
4.39431e-09
1.24445e-05
4.76444e-09
1.25219e-05
5.13183e-09
1.26067e-05
5.48774e-09
1.26981e-05
5.83885e-09
1.27955e-05
6.18234e-09
1.28983e-05
6.51549e-09
1.30061e-05
6.83895e-09
1.31186e-05
7.14519e-09
1.32353e-05
7.44195e-09
1.33561e-05
7.71991e-09
1.34808e-05
7.98403e-09
1.36091e-05
8.22773e-09
1.37409e-05
8.45371e-09
1.38761e-05
8.66079e-09
1.40145e-05
8.8518e-09
1.4156e-05
9.01764e-09
1.43006e-05
9.16407e-09
1.44481e-05
9.28541e-09
1.45986e-05
9.38946e-09
1.47518e-05
9.47039e-09
1.49078e-05
9.52973e-09
1.50666e-05
9.56611e-09
1.5228e-05
9.58342e-09
1.5392e-05
9.57863e-09
1.55586e-05
9.55072e-09
1.57278e-05
9.50629e-09
1.58995e-05
9.43941e-09
1.60737e-05
9.35038e-09
1.62503e-05
9.24945e-09
1.64294e-05
9.12502e-09
1.66109e-05
8.98109e-09
1.67948e-05
8.82855e-09
1.6981e-05
8.65342e-09
1.71696e-05
8.46864e-09
1.73606e-05
8.26763e-09
1.75538e-05
8.05173e-09
1.77493e-05
7.82528e-09
1.79471e-05
7.58761e-09
1.81471e-05
7.34499e-09
1.83494e-05
7.08621e-09
1.85538e-05
6.81986e-09
1.87604e-05
6.55116e-09
1.89692e-05
6.27166e-09
1.91801e-05
5.98914e-09
1.93931e-05
5.70102e-09
1.96082e-05
5.40889e-09
1.98254e-05
5.11398e-09
2.00445e-05
4.81783e-09
2.02657e-05
4.52005e-09
2.04888e-05
4.22366e-09
2.07139e-05
3.92794e-09
2.09408e-05
3.63216e-09
2.11696e-05
3.34137e-09
2.14003e-05
3.04698e-09
2.16327e-05
2.76147e-09
2.18668e-05
2.47659e-09
2.21026e-05
2.20074e-09
2.23401e-05
1.92694e-09
2.25792e-05
1.65853e-09
2.28198e-05
1.39961e-09
2.30618e-05
1.14536e-09
2.33053e-05
9.00374e-10
2.35502e-05
6.63292e-10
2.37963e-05
4.34715e-10
2.40437e-05
2.17469e-10
2.42921e-05
7.99755e-12
2.45417e-05
-1.91127e-10
2.47922e-05
-3.79283e-10
2.50437e-05
-5.54452e-10
2.52959e-05
-7.17597e-10
2.55488e-05
-8.68253e-10
2.58024e-05
-1.00436e-09
2.60564e-05
-1.12702e-09
2.63109e-05
-1.23419e-09
2.65656e-05
-1.32714e-09
2.68204e-05
-1.40485e-09
2.70752e-05
-1.46653e-09
2.733e-05
-1.51363e-09
2.75844e-05
2.78385e-05
2.68577e-10
1.43859e-05
4.8865e-10
1.31463e-05
6.8433e-10
1.27094e-05
9.21217e-10
1.24728e-05
1.19302e-09
1.23356e-05
1.48825e-09
1.22596e-05
1.78677e-09
1.22245e-05
2.09229e-09
1.22188e-05
2.40454e-09
1.22351e-05
2.72078e-09
1.22686e-05
3.03661e-09
1.23162e-05
3.35052e-09
1.23753e-05
3.66885e-09
1.24442e-05
3.98184e-09
1.25216e-05
4.29545e-09
1.26064e-05
4.6055e-09
1.26978e-05
4.91415e-09
1.27952e-05
5.21465e-09
1.2898e-05
5.50997e-09
1.30059e-05
5.79471e-09
1.31183e-05
6.0751e-09
1.3235e-05
6.34377e-09
1.33559e-05
6.60086e-09
1.34805e-05
6.84409e-09
1.36088e-05
7.0745e-09
1.37407e-05
7.28995e-09
1.38759e-05
7.4931e-09
1.40143e-05
7.67773e-09
1.41558e-05
7.84662e-09
1.43004e-05
7.99572e-09
1.4448e-05
8.13327e-09
1.45984e-05
8.2478e-09
1.47517e-05
8.3454e-09
1.49077e-05
8.42393e-09
1.50665e-05
8.48766e-09
1.52279e-05
8.52545e-09
1.5392e-05
8.54795e-09
1.55586e-05
8.55159e-09
1.57278e-05
8.53546e-09
1.58995e-05
8.50339e-09
1.60737e-05
8.45177e-09
1.62504e-05
8.38242e-09
1.64295e-05
8.29611e-09
1.6611e-05
8.19514e-09
1.67949e-05
8.07137e-09
1.69812e-05
7.94235e-09
1.71698e-05
7.79189e-09
1.73607e-05
7.6279e-09
1.7554e-05
7.45212e-09
1.77495e-05
7.26395e-09
1.79473e-05
7.06286e-09
1.81473e-05
6.85e-09
1.83496e-05
6.62985e-09
1.8554e-05
6.40089e-09
1.87607e-05
6.16072e-09
1.89694e-05
5.91541e-09
1.91804e-05
5.6616e-09
1.93934e-05
5.40112e-09
1.96085e-05
5.13924e-09
1.98256e-05
4.87361e-09
2.00448e-05
4.60096e-09
2.0266e-05
4.32866e-09
2.04891e-05
4.05592e-09
2.07141e-05
3.77829e-09
2.09411e-05
3.50236e-09
2.11699e-05
3.22734e-09
2.14005e-05
2.95811e-09
2.16329e-05
2.68642e-09
2.18671e-05
2.42008e-09
2.21029e-05
2.15446e-09
2.23404e-05
1.89667e-09
2.25794e-05
1.6409e-09
2.282e-05
1.39042e-09
2.30621e-05
1.14725e-09
2.33056e-05
9.10845e-10
2.35504e-05
6.84857e-10
2.37965e-05
4.62832e-10