/*--------------------------------*- C++ -*----------------------------------*\
  =========                 |
  \\      /  F ield         | OpenFOAM: The Open Source CFD Toolbox
   \\    /   O peration     | Website:  https://openfoam.org
    \\  /    A nd           | Version:  10
     \\/     M anipulation  |
\*---------------------------------------------------------------------------*/
FoamFile
{
    format      ascii;
    class       volScalarField;
    location    "10000";
    object      nut;
}
// * * * * * * * * * * * * * * * * * * * * * * * * * * * * * * * * * * * * * //

dimensions      [0 2 -1 0 0 0 0];

internalField   nonuniform List<scalar> 
17922
(
0.00296421
0.00299883
0.00303306
0.00306684
0.00310015
0.00313292
0.00316513
0.00319671
0.00322762
0.00325779
0.00328717
0.0033157
0.00334332
0.00336994
0.00339551
0.00341994
0.00344316
0.00346508
0.00348561
0.00350467
0.00352214
0.00353793
0.0035456
0.00354839
0.00354839
0.00354414
0.0035342
0.00351686
0.0034925
0.00346379
0.00343317
0.00340165
0.00336951
0.00333669
0.00330302
0.00326835
0.00323257
0.00319559
0.0031574
0.00311797
0.00307734
0.00303558
0.00299278
0.00294909
0.00290466
0.00285966
0.00281429
0.00276873
0.00272313
0.00267766
0.00263246
0.00258763
0.00254326
0.00249943
0.00245619
0.00241357
0.00237159
0.00233026
0.00228958
0.00224956
0.00221017
0.00217141
0.00213326
0.00209572
0.00205876
0.00202237
0.00198656
0.00195131
0.00191662
0.0018825
0.00184895
0.00181597
0.00178355
0.00175172
0.00172045
0.00168975
0.0016596
0.00162998
0.00160083
0.00157211
0.00154381
0.00151592
0.00148848
0.00146155
0.0014351
0.00140901
0.00138295
0.00135646
0.00132917
0.00130109
0.00127314
0.0012475
0.00122676
0.00296386
0.00299846
0.00303266
0.00306641
0.00309969
0.00313244
0.00316462
0.00319617
0.00322704
0.00325718
0.00328653
0.00331502
0.0033426
0.00336919
0.00339471
0.00341911
0.00344228
0.00346416
0.00348465
0.00350366
0.00352108
0.00353682
0.00354339
0.00354614
0.0035457
0.00354124
0.00353105
0.00351343
0.0034888
0.00345985
0.00342903
0.00339735
0.0033651
0.00333221
0.00329851
0.00326385
0.00322811
0.0031912
0.00315309
0.00311376
0.00307325
0.0030316
0.00298892
0.00294535
0.00290104
0.00285616
0.0028109
0.00276543
0.00271993
0.00267455
0.00262943
0.00258467
0.00254036
0.00249659
0.0024534
0.00241083
0.00236889
0.00232761
0.00228698
0.00224699
0.00220765
0.00216893
0.00213083
0.00209333
0.00205641
0.00202008
0.00198432
0.00194912
0.00191449
0.00188042
0.00184693
0.001814
0.00178165
0.00174986
0.00171866
0.00168802
0.00165793
0.00162836
0.00159927
0.00157063
0.00154241
0.00151462
0.0014873
0.00146047
0.00143411
0.00140808
0.00138203
0.00135551
0.00132813
0.00129996
0.00127194
0.0012463
0.00122567
0.00296352
0.0029981
0.00303228
0.00306601
0.00309926
0.00313198
0.00316413
0.00319565
0.00322649
0.0032566
0.00328591
0.00331437
0.00334191
0.00336846
0.00339395
0.00341831
0.00344144
0.00346328
0.00348373
0.00350269
0.00352007
0.00353576
0.00354073
0.00354339
0.0035427
0.00353805
0.0035276
0.0035097
0.00348476
0.00345553
0.00342446
0.00339257
0.00336015
0.00332713
0.00329335
0.00325864
0.00322287
0.00318597
0.00314789
0.0031086
0.00306814
0.00302656
0.00298396
0.00294047
0.00289624
0.00285145
0.00280627
0.00276089
0.00271547
0.00267016
0.00262511
0.00258042
0.00253618
0.00249248
0.00244935
0.00240684
0.00236497
0.00232374
0.00228317
0.00224326
0.00220398
0.00216533
0.00212731
0.00208988
0.00205305
0.0020168
0.00198113
0.00194603
0.0019115
0.00187754
0.00184415
0.00181133
0.00177909
0.00174742
0.00171633
0.0016858
0.00165583
0.00162639
0.00159743
0.00156893
0.00154087
0.00151325
0.0014861
0.00145947
0.00143329
0.00140741
0.00138146
0.001355
0.00132762
0.00129941
0.00127138
0.0012458
0.00122529
0.0029632
0.00299776
0.00303191
0.00306562
0.00309885
0.00313154
0.00316366
0.00319515
0.00322597
0.00325604
0.00328533
0.00331375
0.00334126
0.00336777
0.00339323
0.00341754
0.00344064
0.00346244
0.00348284
0.00350177
0.0035191
0.00353285
0.00353787
0.00354036
0.00353957
0.00353479
0.00352411
0.00350593
0.0034807
0.00345118
0.00341985
0.00338775
0.00335515
0.00332199
0.00328811
0.00325333
0.00321753
0.00318062
0.00314255
0.00310329
0.00306288
0.00302136
0.00297883
0.00293541
0.00289127
0.00284656
0.00280147
0.00275618
0.00271084
0.00266562
0.00262065
0.00257604
0.00253189
0.00248825
0.0024452
0.00240277
0.00236097
0.00231983
0.00227934
0.0022395
0.00220031
0.00216175
0.00212381
0.00208648
0.00204975
0.00201361
0.00197804
0.00194305
0.00190864
0.0018748
0.00184153
0.00180884
0.00177672
0.00174518
0.00171422
0.00168383
0.00165399
0.00162468
0.00159587
0.00156752
0.00153961
0.00151217
0.00148522
0.00145877
0.00143278
0.00140705
0.00138121
0.00135478
0.00132739
0.00129913
0.00127106
0.00124552
0.00122513
0.0029629
0.00299743
0.00303156
0.00306525
0.00309845
0.00313112
0.00316322
0.00319468
0.00322546
0.00325551
0.00328476
0.00331316
0.00334063
0.00336711
0.00339253
0.00341681
0.00343987
0.00346163
0.003482
0.00350088
0.00351817
0.00352995
0.00353506
0.00353735
0.00353655
0.00353166
0.0035208
0.00350239
0.00347688
0.0034471
0.00341553
0.00338323
0.00335046
0.00331717
0.0032832
0.00324837
0.00321254
0.00317563
0.00313757
0.00309835
0.00305798
0.00301653
0.00297408
0.00293075
0.00288669
0.00284208
0.00279709
0.00275189
0.00270665
0.00266152
0.00261664
0.00257211
0.00252804
0.0024845
0.00244153
0.00239917
0.00235746
0.00231639
0.00227599
0.00223623
0.00219713
0.00215866
0.00212082
0.00208359
0.00204696
0.00201092
0.00197546
0.00194059
0.00190629
0.00187256
0.00183942
0.00180685
0.00177486
0.00174345
0.00171261
0.00168234
0.00165263
0.00162345
0.00159476
0.00156655
0.0015388
0.00151152
0.00148474
0.00145847
0.00143265
0.00140704
0.00138127
0.00135485
0.00132741
0.00129906
0.00127093
0.00124539
0.0012251
0.00296261
0.00299712
0.00303123
0.00306489
0.00309807
0.00313072
0.00316279
0.00319423
0.00322498
0.003255
0.00328422
0.00331259
0.00334003
0.00336648
0.00339186
0.00341611
0.00343914
0.00346086
0.00348119
0.00350004
0.00351729
0.00352745
0.00353245
0.00353456
0.00353373
0.00352876
0.00351776
0.00349913
0.00347339
0.00344336
0.00341158
0.00337909
0.00334617
0.00331277
0.00327872
0.00324384
0.00320799
0.00317108
0.00313305
0.00309388
0.00305357
0.00301219
0.00296982
0.00292659
0.00288263
0.00283812
0.00279322
0.00274812
0.00270298
0.00265795
0.00261316
0.00256873
0.00252474
0.00248128
0.00243839
0.00239612
0.00235449
0.00231351
0.00227319
0.00223352
0.0021945
0.00215612
0.00211838
0.00208124
0.00204471
0.00200877
0.00197343
0.00193866
0.00190447
0.00187086
0.00183783
0.00180538
0.00177351
0.00174222
0.0017115
0.00168135
0.00165175
0.00162268
0.00159411
0.00156602
0.0015384
0.00151127
0.00148465
0.00145854
0.00143285
0.00140735
0.00138163
0.00135519
0.00132766
0.0012992
0.00127097
0.00124542
0.00122523
0.00296233
0.00299682
0.00303091
0.00306456
0.00309771
0.00313033
0.00316238
0.00319379
0.00322452
0.00325451
0.00328371
0.00331204
0.00333946
0.00336588
0.00339123
0.00341544
0.00343844
0.00346013
0.00348042
0.00349923
0.00351644
0.00352524
0.00353007
0.00353204
0.00353116
0.00352611
0.00351498
0.00349616
0.0034702
0.00343995
0.00340797
0.00337531
0.00334226
0.00330876
0.00327464
0.00323973
0.00320388
0.00316699
0.00312899
0.00308987
0.00304963
0.00300833
0.00296606
0.00292292
0.00287906
0.00283466
0.00278987
0.00274487
0.00269984
0.0026549
0.00261021
0.00256587
0.00252198
0.00247861
0.00243581
0.00239362
0.00235207
0.00231118
0.00227094
0.00223136
0.00219243
0.00215414
0.00211648
0.00207944
0.00204301
0.00200717
0.00197193
0.00193727
0.00190319
0.00186969
0.00183677
0.00180443
0.00177266
0.00174148
0.00171087
0.00168082
0.00165133
0.00162236
0.00159389
0.00156591
0.00153841
0.00151141
0.00148492
0.00145894
0.00143337
0.00140794
0.00138224
0.00135575
0.00132811
0.00129951
0.00127118
0.00124561
0.00122551
0.00296206
0.00299654
0.00303061
0.00306423
0.00309737
0.00312997
0.00316199
0.00319338
0.00322408
0.00325405
0.00328322
0.00331153
0.00333891
0.0033653
0.00339063
0.00341481
0.00343777
0.00345943
0.00347969
0.00349846
0.00351551
0.00352322
0.00352787
0.00352976
0.00352884
0.00352371
0.00351247
0.00349347
0.0034673
0.00343684
0.00340468
0.00337187
0.00333871
0.00330512
0.00327096
0.00323603
0.00320019
0.00316332
0.00312538
0.00308632
0.00304616
0.00300495
0.00296277
0.00291974
0.002876
0.0028317
0.00278703
0.00274215
0.00269722
0.00265239
0.0026078
0.00256356
0.00251976
0.00247648
0.00243377
0.00239167
0.00235021
0.0023094
0.00226924
0.00222975
0.00219091
0.00215271
0.00211514
0.00207819
0.00204185
0.00200612
0.00197097
0.00193641
0.00190243
0.00186903
0.00183621
0.00180397
0.00177231
0.00174122
0.0017107
0.00168075
0.00165134
0.00162245
0.00159407
0.00156618
0.00153878
0.00151188
0.00148551
0.00145965
0.00143417
0.00140879
0.00138308
0.00135651
0.00132874
0.00129998
0.00127152
0.00124592
0.00122593
0.00296181
0.00299627
0.00303032
0.00306392
0.00309704
0.00312962
0.00316162
0.00319299
0.00322367
0.00325361
0.00328275
0.00331104
0.00333839
0.00336476
0.00339005
0.00341421
0.00343714
0.00345877
0.003479
0.00349774
0.00351361
0.00352129
0.00352581
0.00352768
0.00352674
0.00352156
0.00351022
0.00349106
0.00346469
0.00343405
0.00340172
0.00336878
0.00333551
0.00330186
0.00326766
0.00323273
0.00319691
0.00316008
0.0031222
0.00308322
0.00304315
0.00300204
0.00295997
0.00291705
0.00287342
0.00282925
0.0027847
0.00273993
0.00269512
0.0026504
0.00260592
0.00256178
0.00251808
0.00247489
0.00243227
0.00239026
0.00234889
0.00230816
0.0022681
0.00222869
0.00218993
0.00215182
0.00211434
0.00207748
0.00204123
0.00200558
0.00197052
0.00193606
0.00190217
0.00186886
0.00183614
0.00180399
0.00177241
0.00174141
0.00171097
0.00168109
0.00165175
0.00162294
0.00159463
0.00156681
0.00153948
0.00151268
0.0014864
0.00146063
0.00143521
0.00140986
0.00138412
0.00135745
0.00132951
0.00130058
0.00127198
0.00124635
0.00122647
0.00296157
0.00299601
0.00303005
0.00306363
0.00309673
0.00312929
0.00316127
0.00319261
0.00322327
0.00325319
0.00328231
0.00331057
0.0033379
0.00336424
0.00338951
0.00341364
0.00343655
0.00345814
0.00347835
0.00349705
0.0035118
0.00351947
0.00352389
0.00352579
0.00352485
0.00351965
0.00350822
0.00348891
0.00346236
0.00343155
0.00339907
0.00336601
0.00333265
0.00329896
0.00326474
0.00322982
0.00319403
0.00315726
0.00311945
0.00308055
0.00304058
0.00299958
0.00295763
0.00291483
0.00287133
0.00282729
0.00278286
0.00273822
0.00269352
0.00264892
0.00260455
0.00256052
0.00251692
0.00247383
0.0024313
0.00238938
0.0023481
0.00230746
0.00226747
0.00222815
0.00218948
0.00215145
0.00211405
0.00207727
0.00204111
0.00200555
0.00197058
0.00193619
0.00190239
0.00186917
0.00183652
0.00180445
0.00177295
0.00174202
0.00171164
0.00168182
0.00165254
0.00162378
0.00159551
0.00156775
0.00154049
0.00151375
0.00148755
0.00146185
0.00143648
0.00141114
0.00138533
0.00135853
0.00133042
0.00130128
0.00127253
0.00124687
0.00122712
0.00296134
0.00299577
0.00302979
0.00306336
0.00309644
0.00312898
0.00316094
0.00319226
0.0032229
0.0032528
0.0032819
0.00331013
0.00333744
0.00336375
0.003389
0.0034131
0.00343598
0.00345756
0.00347773
0.0034964
0.00351023
0.00351779
0.00352215
0.0035241
0.00352319
0.00351798
0.00350646
0.00348702
0.00346031
0.00342933
0.00339672
0.00336355
0.00333013
0.00329639
0.00326217
0.00322727
0.00319153
0.00315483
0.0031171
0.00307831
0.00303845
0.00299757
0.00295574
0.00291307
0.00286971
0.0028258
0.0027815
0.00273699
0.00269242
0.00264794
0.00260368
0.00255976
0.00251627
0.00247327
0.00243084
0.00238901
0.00234781
0.00230726
0.00226736
0.00222812
0.00218953
0.00215158
0.00211426
0.00207756
0.00204147
0.00200599
0.00197109
0.00193678
0.00190306
0.0018699
0.00183733
0.00180532
0.00177388
0.00174301
0.00171269
0.00168291
0.00165366
0.00162493
0.0015967
0.00156897
0.00154176
0.00151508
0.00148894
0.00146328
0.00143794
0.00141258
0.00138669
0.00135974
0.00133142
0.00130207
0.00127315
0.00124746
0.00122787
0.00296113
0.00299554
0.00302955
0.0030631
0.00309616
0.00312869
0.00316063
0.00319193
0.00322255
0.00325243
0.00328151
0.00330972
0.00333701
0.0033633
0.00338852
0.0034126
0.00343546
0.003457
0.00347715
0.00349579
0.00350885
0.00351628
0.00352063
0.00352263
0.00352174
0.00351654
0.00350496
0.00348539
0.00345853
0.0034274
0.00339465
0.00336139
0.00332792
0.00329416
0.00325995
0.00322508
0.0031894
0.00315278
0.00311515
0.00307646
0.00303673
0.00299597
0.00295428
0.00291176
0.00286853
0.00282476
0.00278061
0.00273623
0.00269179
0.00264744
0.0026033
0.00255949
0.0025161
0.00247321
0.00243087
0.00238914
0.00234802
0.00230756
0.00226774
0.00222857
0.00219006
0.00215218
0.00211494
0.00207831
0.0020423
0.00200688
0.00197205
0.00193781
0.00190414
0.00187105
0.00183853
0.00180658
0.00177518
0.00174435
0.00171407
0.00168432
0.00165509
0.00162638
0.00159817
0.00157046
0.00154327
0.00151663
0.00149053
0.0014649
0.00143957
0.00141417
0.00138817
0.00136105
0.0013325
0.00130291
0.00127382
0.00124811
0.0012287
0.00296093
0.00299533
0.00302932
0.00306286
0.0030959
0.00312841
0.00316034
0.00319163
0.00322223
0.00325209
0.00328114
0.00330934
0.0033366
0.00336287
0.00338807
0.00341213
0.00343496
0.00345649
0.0034766
0.00349522
0.00350762
0.00351496
0.00351933
0.00352138
0.00352054
0.00351533
0.0035037
0.00348402
0.00345701
0.00342574
0.00339288
0.00335953
0.00332601
0.00329224
0.00325805
0.00322324
0.00318763
0.0031511
0.00311358
0.00307501
0.0030354
0.00299479
0.00295324
0.00291086
0.00286779
0.00282417
0.00278016
0.00273592
0.00269162
0.00264739
0.00260337
0.00255968
0.0025164
0.00247361
0.00243138
0.00238973
0.0023487
0.00230832
0.00226858
0.00222949
0.00219104
0.00215324
0.00211606
0.0020795
0.00204355
0.00200819
0.00197342
0.00193923
0.00190562
0.00187257
0.0018401
0.00180818
0.00177683
0.00174602
0.00171576
0.00168602
0.0016568
0.00162809
0.00159988
0.00157218
0.001545
0.00151837
0.0014923
0.00146669
0.00144134
0.00141588
0.00138976
0.00136243
0.00133363
0.00130379
0.00127453
0.00124881
0.00122962
0.00296074
0.00299513
0.00302911
0.00306263
0.00309567
0.00312816
0.00316007
0.00319134
0.00322192
0.00325176
0.0032808
0.00330898
0.00333622
0.00336247
0.00338766
0.00341169
0.0034345
0.003456
0.0034761
0.00349469
0.00350653
0.00351382
0.00351824
0.00352035
0.00351956
0.00351437
0.00350269
0.00348291
0.00345575
0.00342434
0.00339138
0.00335796
0.0033244
0.00329063
0.00325647
0.00322172
0.00318619
0.00314977
0.00311236
0.00307393
0.00303446
0.00299399
0.0029526
0.00291038
0.00286746
0.00282399
0.00278013
0.00273605
0.00269188
0.00264779
0.0026039
0.00256032
0.00251715
0.00247447
0.00243233
0.00239077
0.00234983
0.00230952
0.00226986
0.00223084
0.00219246
0.00215472
0.0021176
0.0020811
0.0020452
0.00200989
0.00197517
0.00194102
0.00190745
0.00187444
0.001842
0.00181011
0.00177878
0.00174798
0.00171773
0.00168799
0.00165876
0.00163004
0.00160181
0.0015741
0.00154692
0.0015203
0.00149423
0.00146862
0.00144325
0.0014177
0.00139142
0.00136388
0.00133481
0.00130471
0.00127527
0.00124957
0.00123066
0.00296057
0.00299495
0.00302891
0.00306243
0.00309544
0.00312792
0.00315982
0.00319107
0.00322164
0.00325147
0.00328049
0.00330865
0.00333588
0.00336211
0.00338727
0.00341129
0.00343408
0.00345556
0.00347563
0.0034942
0.00350559
0.00351286
0.00351734
0.00351954
0.00351882
0.00351365
0.00350193
0.00348204
0.00345476
0.00342322
0.00339014
0.00335666
0.00332307
0.00328932
0.0032552
0.00322052
0.00318509
0.00314878
0.0031115
0.0030732
0.00303388
0.00299358
0.00295234
0.00291029
0.00286753
0.00282423
0.00278052
0.00273659
0.00269257
0.00264861
0.00260485
0.00256139
0.00251833
0.00247575
0.00243371
0.00239224
0.00235138
0.00231115
0.00227156
0.0022326
0.00219429
0.0021566
0.00211954
0.00208308
0.00204723
0.00201196
0.00197728
0.00194317
0.00190962
0.00187664
0.00184421
0.00181234
0.00178101
0.00175022
0.00171995
0.0016902
0.00166095
0.0016322
0.00160394
0.00157621
0.00154901
0.00152239
0.00149631
0.00147069
0.00144526
0.00141961
0.00139317
0.00136537
0.00133602
0.00130565
0.00127605
0.00125039
0.00123182
0.0029604
0.00299478
0.00302873
0.00306224
0.00309524
0.00312771
0.00315959
0.00319083
0.00322138
0.00325119
0.0032802
0.00330834
0.00333556
0.00336177
0.00338692
0.00341092
0.00343369
0.00345515
0.0034752
0.00349372
0.00350479
0.00351207
0.00351665
0.00351894
0.0035183
0.00351316
0.00350141
0.00348142
0.00345401
0.00342235
0.00338918
0.00335564
0.00332203
0.00328829
0.00325423
0.00321962
0.00318429
0.00314811
0.00311096
0.00307282
0.00303366
0.00299352
0.00295245
0.00291057
0.00286798
0.00282484
0.00278131
0.00273752
0.00269365
0.00264984
0.0026062
0.00256287
0.00251992
0.00247745
0.0024355
0.00239411
0.00235334
0.00231318
0.00227365
0.00223476
0.0021965
0.00215886
0.00212184
0.00208543
0.00204961
0.00201438
0.00197972
0.00194563
0.0019121
0.00187913
0.00184671
0.00181484
0.00178351
0.0017527
0.00172242
0.00169263
0.00166335
0.00163455
0.00160626
0.00157849
0.00155127
0.00152462
0.00149853
0.00147288
0.00144739
0.00142161
0.00139497
0.00136692
0.00133726
0.00130661
0.00127686
0.00125129
0.00123314
0.0028196
0.00285519
0.00289052
0.00292555
0.00296027
0.00299463
0.00302857
0.00306206
0.00309506
0.00312751
0.00315938
0.00319061
0.00322115
0.00325094
0.00327994
0.00330806
0.00333526
0.00336146
0.00338659
0.00341058
0.00343334
0.00345478
0.00347481
0.00349302
0.00350413
0.00351144
0.00351613
0.00351854
0.00351799
0.0035129
0.00350112
0.00348105
0.00345352
0.00342173
0.00338847
0.00335487
0.00332125
0.00328754
0.00325353
0.00321902
0.0031838
0.00314774
0.00311075
0.00307276
0.00303377
0.0029938
0.00295291
0.00291121
0.0028688
0.00282583
0.00278246
0.00273884
0.00269512
0.00265145
0.00260795
0.00256473
0.0025219
0.00247953
0.00243767
0.00239637
0.00235567
0.00231558
0.00227611
0.00223728
0.00219906
0.00216147
0.00212449
0.00208811
0.00205232
0.0020171
0.00198246
0.00194838
0.00191486
0.0018819
0.00184948
0.00181759
0.00178624
0.00175541
0.00172509
0.00169527
0.00166593
0.00163709
0.00160874
0.00158093
0.00155367
0.001527
0.00150088
0.00147518
0.00144961
0.0014237
0.00139684
0.0013685
0.00133853
0.0013076
0.00127771
0.00125228
0.00123464
0.00281949
0.00285509
0.00289042
0.00292545
0.00296016
0.0029945
0.00302843
0.00306191
0.00309489
0.00312734
0.00315919
0.00319041
0.00322094
0.00325072
0.0032797
0.00330781
0.003335
0.00336119
0.0033863
0.00341027
0.00343302
0.00345444
0.00347446
0.00349245
0.0035036
0.00351098
0.0035158
0.00351834
0.0035179
0.00351286
0.00350107
0.00348092
0.00345327
0.00342137
0.00338802
0.00335437
0.00332074
0.00328706
0.00325312
0.00321869
0.0031836
0.00314768
0.00311084
0.00307302
0.0030342
0.00299441
0.00295371
0.00291218
0.00286996
0.00282717
0.00278397
0.00274051
0.00269695
0.00265342
0.00261005
0.00256696
0.00252424
0.00248197
0.0024402
0.00239899
0.00235836
0.00231833
0.00227893
0.00224014
0.00220197
0.00216441
0.00212746
0.0020911
0.00205533
0.00202013
0.00198549
0.00195142
0.00191789
0.00188491
0.00185248
0.00182058
0.0017892
0.00175833
0.00172797
0.00169809
0.0016687
0.00163979
0.00161138
0.00158351
0.00155621
0.0015295
0.00150334
0.00147759
0.00145192
0.00142586
0.00139877
0.00137013
0.00133982
0.00130862
0.00127862
0.00125338
0.00123636
0.00281941
0.00285501
0.00289034
0.00292536
0.00296006
0.00299439
0.00302831
0.00306178
0.00309475
0.00312718
0.00315903
0.00319023
0.00322075
0.00325052
0.00327949
0.00330759
0.00333476
0.00336094
0.00338604
0.00341
0.00343273
0.00345414
0.00347415
0.00349201
0.00350323
0.0035107
0.00351567
0.00351835
0.00351803
0.00351305
0.00350124
0.00348102
0.00345326
0.00342125
0.00338781
0.00335412
0.00332048
0.00328683
0.00325296
0.00321864
0.00318367
0.0031479
0.00311122
0.00307357
0.00303494
0.00299533
0.00295482
0.00291349
0.00287145
0.00282885
0.00278582
0.00274253
0.00269912
0.00265574
0.00261251
0.00256954
0.00252693
0.00248476
0.00244308
0.00240195
0.00236138
0.00232142
0.00228206
0.00224332
0.00220518
0.00216766
0.00213072
0.00209438
0.00205862
0.00202342
0.00198878
0.0019547
0.00192116
0.00188817
0.00185571
0.00182377
0.00179236
0.00176145
0.00173103
0.00170109
0.00167163
0.00164265
0.00161417
0.00158623
0.00155888
0.00153212
0.00150592
0.0014801
0.00145433
0.00142809
0.00140075
0.00137179
0.00134114
0.00130966
0.00127958
0.00125462
0.00123836
0.00271125
0.00274748
0.00278351
0.00281935
0.00285494
0.00289027
0.00292529
0.00295998
0.0029943
0.0030282
0.00306166
0.00309462
0.00312705
0.00315888
0.00319008
0.00322058
0.00325035
0.0032793
0.0033074
0.00333456
0.00336072
0.00338582
0.00340976
0.00343248
0.00345388
0.00347387
0.00349171
0.00350302
0.00351062
0.00351574
0.00351857
0.00351837
0.00351346
0.00350165
0.00348136
0.00345349
0.00342137
0.00338784
0.00335411
0.00332047
0.00328686
0.00325307
0.00321885
0.00318402
0.0031484
0.00311188
0.00307441
0.00303597
0.00299655
0.00295624
0.0029151
0.00287325
0.00283083
0.00278799
0.00274487
0.00270162
0.00265838
0.00261529
0.00257244
0.00252994
0.00248787
0.00244628
0.00240522
0.00236472
0.00232481
0.0022855
0.00224679
0.00220869
0.00217118
0.00213427
0.00209793
0.00206217
0.00202696
0.00199232
0.00195822
0.00192466
0.00189163
0.00185914
0.00182717
0.00179571
0.00176474
0.00173426
0.00170425
0.00167471
0.00164565
0.0016171
0.00158909
0.00156168
0.00153487
0.00150862
0.00148272
0.00145683
0.0014304
0.00140278
0.00137348
0.00134248
0.00131074
0.00128062
0.00125602
0.00124067
0.00271121
0.00274744
0.00278347
0.0028193
0.00285489
0.00289021
0.00292523
0.00295991
0.00299422
0.00302812
0.00306156
0.00309452
0.00312693
0.00315876
0.00318994
0.00322044
0.0032502
0.00327914
0.00330723
0.00333438
0.00336054
0.00338562
0.00340956
0.00343226
0.00345365
0.00347364
0.00349153
0.00350297
0.00351073
0.00351601
0.003519
0.00351893
0.00351409
0.00350229
0.00348193
0.00345396
0.00342172
0.00338812
0.00335434
0.0033207
0.00328713
0.00325342
0.00321932
0.00318462
0.00314915
0.00311281
0.00307553
0.00303727
0.00299806
0.00295794
0.002917
0.00287535
0.00283312
0.00279046
0.00274751
0.00270442
0.00266133
0.00261837
0.00257565
0.00253326
0.00249128
0.00244977
0.00240879
0.00236835
0.00232849
0.00228922
0.00225055
0.00221246
0.00217497
0.00213806
0.00210173
0.00206596
0.00203074
0.00199607
0.00196195
0.00192836
0.0018953
0.00186277
0.00183075
0.00179923
0.00176821
0.00173765
0.00170756
0.00167794
0.00164879
0.00162016
0.00159208
0.0015646
0.00153774
0.00151143
0.00148545
0.00145942
0.00143278
0.00140487
0.00137521
0.00134385
0.00131186
0.00128176
0.00125762
0.00124335
0.00271117
0.0027474
0.00278344
0.00281927
0.00285485
0.00289017
0.00292518
0.00295985
0.00299415
0.00302805
0.00306149
0.00309443
0.00312684
0.00315865
0.00318984
0.00322033
0.00325007
0.00327901
0.00330709
0.00333423
0.00336038
0.00338546
0.00340938
0.00343208
0.00345347
0.00347344
0.00349148
0.00350309
0.00351105
0.0035165
0.00351965
0.00351971
0.00351496
0.00350316
0.00348274
0.00345466
0.00342232
0.00338863
0.0033548
0.00332116
0.00328764
0.003254
0.00322002
0.00318546
0.00315016
0.00311399
0.0030769
0.00303884
0.00299982
0.00295991
0.00291917
0.00287772
0.00283569
0.00279321
0.00275043
0.0027075
0.00266457
0.00262174
0.00257914
0.00253686
0.00249497
0.00245355
0.00241263
0.00237225
0.00233244
0.0022932
0.00225455
0.00221649
0.00217901
0.0021421
0.00210575
0.00206997
0.00203473
0.00200004
0.00196588
0.00193226
0.00189916
0.00186658
0.0018345
0.00180293
0.00177183
0.0017412
0.00171103
0.00168131
0.00165207
0.00162335
0.0015952
0.00156765
0.00154073
0.00151435
0.00148828
0.00146211
0.00143523
0.00140701
0.00137698
0.00134525
0.00131303
0.00128301
0.00125948
0.00124651
0.00271115
0.00274738
0.00278342
0.00281925
0.00285483
0.00289014
0.00292514
0.00295981
0.00299411
0.00302799
0.00306143
0.00309436
0.00312676
0.00315857
0.00318975
0.00322023
0.00324997
0.0032789
0.00330697
0.00333411
0.00336025
0.00338532
0.00340925
0.00343194
0.00345331
0.00347328
0.00349158
0.00350338
0.00351156
0.0035172
0.00352052
0.00352072
0.00351605
0.00350427
0.00348379
0.0034556
0.00342315
0.00338937
0.0033555
0.00332186
0.00328837
0.00325482
0.00322095
0.00318653
0.0031514
0.00311541
0.00307851
0.00304065
0.00300184
0.00296214
0.0029216
0.00288036
0.00283851
0.00279622
0.00275362
0.00271086
0.00266806
0.00262537
0.00258289
0.00254072
0.00249892
0.00245758
0.00241672
0.0023764
0.00233663
0.00229742
0.0022588
0.00222074
0.00218326
0.00214635
0.00210999
0.00207419
0.00203893
0.0020042
0.00197001
0.00193634
0.00190319
0.00187056
0.00183842
0.00180678
0.00177561
0.0017449
0.00171463
0.00168482
0.00165549
0.00162667
0.00159844
0.00157083
0.00154385
0.0015174
0.00149122
0.00146488
0.00143776
0.0014092
0.00137877
0.00134668
0.00131425
0.00128439
0.00126161
0.00125018
0.00271113
0.00274737
0.00278341
0.00281923
0.00285481
0.00289012
0.00292512
0.00295979
0.00299408
0.00302796
0.00306138
0.00309432
0.00312671
0.00315852
0.00318968
0.00322016
0.0032499
0.00327882
0.00330689
0.00333402
0.00336016
0.00338522
0.00340914
0.00343183
0.0034532
0.00347316
0.00349162
0.00350382
0.00351226
0.0035181
0.0035216
0.00352195
0.00351738
0.00350561
0.00348507
0.00345678
0.00342422
0.00339035
0.00335642
0.00332277
0.00328933
0.00325586
0.00322211
0.00318783
0.00315286
0.00311706
0.00308035
0.0030427
0.0030041
0.0029646
0.00292428
0.00288323
0.00284159
0.00279948
0.00275705
0.00271445
0.00267181
0.00262925
0.00258689
0.00254482
0.00250312
0.00246184
0.00242105
0.00238078
0.00234105
0.00230187
0.00226326
0.00222521
0.00218773
0.0021508
0.00211443
0.0020786
0.00204331
0.00200854
0.0019743
0.00194059
0.00190739
0.00187469
0.0018425
0.00181078
0.00177953
0.00174873
0.00171837
0.00168846
0.00165903
0.00163012
0.00160181
0.00157412
0.00154708
0.00152055
0.00149427
0.00146775
0.00144036
0.00141144
0.0013806
0.00134813
0.00131553
0.00128592
0.00126406
0.00125443
0.00271113
0.00274737
0.00278341
0.00281923
0.00285481
0.00289011
0.00292511
0.00295977
0.00299406
0.00302794
0.00306136
0.00309429
0.00312668
0.00315848
0.00318964
0.00322012
0.00324985
0.00327877
0.00330683
0.00333396
0.00336009
0.00338516
0.00340907
0.00343175
0.00345312
0.00347309
0.00349154
0.0035044
0.00351313
0.00351919
0.00352289
0.0035234
0.00351892
0.00350718
0.00348659
0.0034582
0.00342552
0.00339155
0.00335757
0.00332391
0.00329051
0.00325711
0.00322347
0.00318934
0.00315454
0.00311893
0.00308241
0.00304496
0.00300657
0.00296729
0.00292717
0.00288633
0.00284488
0.00280296
0.00276071
0.00271828
0.00267578
0.00263336
0.00259111
0.00254914
0.00250753
0.00246633
0.0024256
0.00238537
0.00234567
0.00230652
0.00226792
0.00222987
0.00219238
0.00215544
0.00211905
0.00208319
0.00204786
0.00201305
0.00197876
0.001945
0.00191174
0.00187898
0.00184672
0.00181493
0.0017836
0.00175271
0.00172225
0.00169224
0.0016627
0.0016337
0.0016053
0.00157754
0.00155043
0.00152382
0.00149742
0.00147071
0.00144303
0.00141373
0.00138245
0.00134962
0.00131691
0.00128767
0.00126694
0.00125944
0.00271114
0.00274737
0.00278342
0.00281924
0.00285482
0.00289012
0.00292512
0.00295978
0.00299406
0.00302794
0.00306136
0.00309428
0.00312667
0.00315846
0.00318962
0.0032201
0.00324982
0.00327874
0.0033068
0.00333393
0.00336006
0.00338512
0.00340903
0.00343172
0.00345309
0.00347305
0.00349151
0.00350511
0.00351417
0.00352047
0.00352438
0.00352506
0.0035207
0.00350898
0.00348834
0.00345985
0.00342705
0.00339298
0.00335893
0.00332526
0.00329189
0.00325857
0.00322504
0.00319106
0.00315642
0.00312099
0.00308468
0.00304743
0.00300925
0.00297018
0.00293028
0.00288964
0.00284839
0.00280666
0.00276459
0.00272231
0.00267996
0.00263767
0.00259554
0.00255368
0.00251215
0.00247102
0.00243034
0.00239016
0.00235049
0.00231136
0.00227276
0.00223472
0.00219722
0.00216026
0.00212384
0.00208794
0.00205257
0.00201772
0.00198338
0.00194955
0.00191623
0.00188342
0.00185108
0.00181922
0.0017878
0.00175681
0.00172625
0.00169613
0.00166649
0.00163739
0.00160891
0.00158108
0.0015539
0.0015272
0.00150067
0.00147375
0.00144576
0.00141605
0.00138433
0.00135114
0.00131837
0.00128963
0.00127027
0.00126524
0.00271116
0.00274739
0.00278344
0.00281926
0.00285484
0.00289014
0.00292514
0.0029598
0.00299408
0.00302795
0.00306137
0.00309429
0.00312668
0.00315847
0.00318963
0.0032201
0.00324982
0.00327874
0.0033068
0.00333393
0.00336006
0.00338512
0.00340903
0.00343172
0.00345309
0.00347305
0.00349152
0.00350596
0.00351539
0.00352196
0.00352609
0.00352694
0.0035227
0.00351102
0.00349034
0.00346174
0.00342881
0.00339464
0.00336052
0.00332682
0.00329348
0.00326023
0.00322681
0.00319297
0.0031585
0.00312325
0.00308713
0.00305009
0.00301213
0.00297327
0.00293357
0.00289314
0.00285209
0.00281055
0.00276865
0.00272654
0.00268434
0.00264218
0.00260016
0.0025584
0.00251695
0.00247589
0.00243527
0.00239513
0.00235548
0.00231637
0.00227778
0.00223973
0.00220221
0.00216523
0.00212878
0.00209285
0.00205743
0.00202253
0.00198813
0.00195425
0.00192087
0.00188798
0.00185558
0.00182363
0.00179213
0.00176104
0.00173038
0.00170015
0.00167041
0.00164121
0.00161263
0.00158473
0.00155748
0.00153069
0.00150401
0.00147686
0.00144854
0.00141839
0.0013862
0.00135267
0.00131991
0.00129183
0.00127408
0.00127185
0.00271118
0.00274742
0.00278347
0.0028193
0.00285488
0.00289018
0.00292518
0.00295983
0.00299412
0.00302799
0.0030614
0.00309432
0.00312671
0.0031585
0.00318966
0.00322013
0.00324985
0.00327877
0.00330683
0.00333395
0.00336009
0.00338515
0.00340906
0.00343175
0.00345313
0.0034731
0.00349157
0.00350697
0.00351679
0.00352367
0.00352802
0.00352906
0.00352494
0.0035133
0.00349258
0.00346387
0.00343081
0.00339652
0.00336232
0.00332859
0.00329526
0.00326208
0.00322876
0.00319506
0.00316075
0.00312569
0.00308977
0.00305293
0.00301518
0.00297653
0.00293705
0.00289682
0.00285597
0.00281461
0.00277289
0.00273094
0.00268889
0.00264686
0.00260496
0.00256329
0.00252192
0.00248093
0.00244036
0.00240025
0.00236064
0.00232153
0.00228295
0.00224489
0.00220736
0.00217035
0.00213386
0.00209789
0.00206243
0.00202747
0.00199302
0.00195908
0.00192563
0.00189268
0.0018602
0.00182817
0.00179658
0.0017654
0.00173463
0.00170429
0.00167443
0.00164514
0.00161648
0.0015885
0.00156117
0.00153429
0.00150746
0.00148006
0.00145137
0.00142076
0.00138811
0.00135426
0.00132161
0.00129439
0.00127859
0.00127961
0.00271122
0.00274747
0.00278351
0.00281934
0.00285492
0.00289023
0.00292523
0.00295988
0.00299417
0.00302804
0.00306145