/*--------------------------------*- C++ -*----------------------------------*\
  =========                 |
  \\      /  F ield         | OpenFOAM: The Open Source CFD Toolbox
   \\    /   O peration     | Website:  https://openfoam.org
    \\  /    A nd           | Version:  10
     \\/     M anipulation  |
\*---------------------------------------------------------------------------*/
FoamFile
{
    format      ascii;
    class       volVectorField;
    location    "39000";
    object      Urel;
}
// * * * * * * * * * * * * * * * * * * * * * * * * * * * * * * * * * * * * * //

dimensions      [0 1 -1 0 0 0 0];

internalField   nonuniform List<vector> 
17981
(
(0.125215 -0.331535 1.08279e-21)
(0.122058 -0.341625 -1.08069e-21)
(0.118969 -0.3516 0)
(0.115942 -0.361478 -6.78082e-21)
(0.112979 -0.371276 1.48738e-20)
(0.110082 -0.381006 -8.02769e-21)
(0.107256 -0.390677 0)
(0.104501 -0.400295 6.90128e-22)
(0.10182 -0.409864 0)
(0.0992155 -0.419383 0)
(0.096688 -0.428852 -8.39802e-22)
(0.0942388 -0.438268 1.54872e-20)
(0.0918685 -0.447627 -1.39985e-20)
(0.0895774 -0.456924 0)
(0.0873652 -0.466152 0)
(0.0852316 -0.475307 0)
(0.0831758 -0.484381 0)
(0.0811968 -0.493369 -1.57768e-20)
(0.0792932 -0.502265 1.51103e-20)
(0.0774638 -0.511063 3.13967e-20)
(0.0757067 -0.519758 -2.96107e-20)
(0.0740203 -0.528344 -4.74483e-22)
(0.0724027 -0.536817 0)
(0.0708518 -0.545173 0)
(0.0693658 -0.553408 2.99403e-20)
(0.0679424 -0.561518 -2.82944e-20)
(0.0665796 -0.569501 2.9098e-20)
(0.0652752 -0.577354 -2.79632e-20)
(0.0640272 -0.585075 -4.34656e-22)
(0.0628334 -0.592663 0)
(0.0616917 -0.600116 2.1004e-22)
(0.0606001 -0.607433 -2.06271e-22)
(0.0595566 -0.614613 -2.02445e-22)
(0.0585591 -0.621657 2.54677e-20)
(0.0576059 -0.628564 -2.45347e-20)
(0.0566949 -0.635335 -1.90777e-22)
(0.0558244 -0.64197 0)
(0.0549926 -0.648469 0)
(0.0541979 -0.654834 1.79073e-22)
(0.0534385 -0.661065 -2.27653e-20)
(0.052713 -0.667165 -1.12268e-22)
(0.0520197 -0.673134 2.11574e-20)
(0.0513572 -0.678974 8.18972e-23)
(0.0507241 -0.684687 0)
(0.0501191 -0.690275 0)
(0.0495408 -0.695739 0)
(0.0489881 -0.701081 0)
(0.0484598 -0.706304 -1.89392e-20)
(0.141501 -0.315572 -6.50744e-21)
(0.138212 -0.325431 0)
(0.134992 -0.33519 -1.88748e-20)
(0.131843 -0.344873 4.62615e-20)
(0.128769 -0.354495 -2.61812e-20)
(0.125773 -0.364072 3.93768e-20)
(0.122857 -0.373613 -3.79178e-20)
(0.120025 -0.383126 6.88759e-22)
(0.117279 -0.392613 1.53577e-21)
(0.114619 -0.402075 -5.56091e-20)
(0.112048 -0.411511 1.10615e-19)
(0.109565 -0.420916 -5.66246e-20)
(0.107172 -0.430286 0)
(0.104869 -0.439614 1.90232e-21)
(0.102654 -0.448893 -6.40767e-20)
(0.100526 -0.458116 6.13037e-20)
(0.0984853 -0.467275 6.50392e-20)
(0.0965294 -0.476362 -6.22449e-20)
(0.0946567 -0.485371 9.92726e-22)
(0.0928652 -0.494294 0)
(0.0911528 -0.503124 -4.95789e-22)
(0.0895171 -0.511855 6.44551e-20)
(0.0879559 -0.520481 -6.0355e-20)
(0.0864666 -0.528997 6.36149e-20)
(0.0850468 -0.537397 -1.22003e-19)
(0.0836939 -0.545679 5.89369e-20)
(0.0824054 -0.553837 -6.01546e-20)
(0.0811788 -0.561869 5.78038e-20)
(0.0800116 -0.569772 4.50562e-22)
(0.0789013 -0.577543 0)
(0.0778455 -0.58518 2.16752e-22)
(0.0768418 -0.592682 2.13811e-22)
(0.0758878 -0.600048 -5.39633e-20)
(0.0749814 -0.607277 5.23858e-20)
(0.0741204 -0.614369 -6.04821e-22)
(0.0733026 -0.621323 5.12027e-20)
(0.0725261 -0.628139 -4.91778e-20)
(0.0717887 -0.634819 0)
(0.0710887 -0.641362 4.76591e-20)
(0.0704243 -0.647769 -9.24307e-20)
(0.0697936 -0.654043 4.46464e-20)
(0.069195 -0.660183 -4.45745e-20)
(0.068627 -0.666191 -7.74255e-22)
(0.068088 -0.672069 4.20847e-20)
(0.0675764 -0.677819 0)
(0.0670911 -0.683442 0)
(0.0666305 -0.688941 1.54732e-22)
(0.0661935 -0.694316 -7.6686e-23)
(0.156352 -0.298076 0)
(0.152883 -0.307716 1.05074e-20)
(0.149495 -0.317274 -1.11591e-20)
(0.146191 -0.326774 2.68844e-20)
(0.142975 -0.336236 -2.77731e-20)
(0.13985 -0.345676 -2.22071e-21)
(0.136819 -0.355106 0)
(0.133885 -0.364531 -1.47747e-21)
(0.13105 -0.373957 -4.74718e-21)
(0.128315 -0.383384 0)
(0.125683 -0.392808 1.80246e-21)
(0.123152 -0.402226 3.69865e-21)
(0.120723 -0.411631 0)
(0.118395 -0.421015 -2.15614e-23)
(0.116168 -0.430369 1.99289e-21)
(0.114039 -0.439686 0)
(0.112007 -0.448955 1.34056e-19)
(0.11007 -0.458168 -1.26189e-19)
(0.108225 -0.467315 -1.35245e-19)
(0.10647 -0.476388 1.28482e-19)
(0.104802 -0.485379 -2.03401e-21)
(0.103218 -0.49428 0)
(0.101714 -0.503084 9.98008e-22)
(0.100289 -0.511784 -9.96823e-22)
(0.0989391 -0.520376 9.8176e-22)
(0.0976608 -0.528852 -1.25066e-19)
(0.0964513 -0.537209 1.21052e-19)
(0.0953078 -0.545443 -9.42784e-22)
(0.0942272 -0.553549 0)
(0.0932066 -0.561525 1.17428e-19)
(0.0922433 -0.569369 2.85412e-21)
(0.0913344 -0.577077 -1.12798e-19)
(0.0904773 -0.584649 0)
(0.0896694 -0.592082 0)
(0.0889083 -0.599377 -1.08134e-19)
(0.0881915 -0.606533 1.04653e-19)
(0.0875168 -0.61355 -4.00455e-22)
(0.0868819 -0.620427 0)
(0.0862847 -0.627165 3.8407e-22)
(0.0857233 -0.633765 -3.76299e-22)
(0.0851956 -0.640227 -9.48254e-20)
(0.0846999 -0.646553 9.15709e-20)
(0.0842344 -0.652744 1.76057e-22)
(0.0837974 -0.658802 -1.7188e-22)
(0.0833873 -0.664728 -3.36205e-22)
(0.0830027 -0.670523 0)
(0.0826421 -0.67619 -1.60545e-22)
(0.0823041 -0.681731 -8.18319e-20)
(0.15556 -0.316568 -1.69623e-21)
(0.152279 -0.32589 2.32774e-21)
(0.149107 -0.335228 9.20754e-20)
(0.146048 -0.344588 -1.90102e-19)
(0.143104 -0.353976 1.00785e-19)
(0.140277 -0.36339 -3.43863e-21)
(0.137566 -0.372828 1.19043e-19)
(0.134973 -0.382284 -1.21079e-19)
(0.132497 -0.39175 0)
(0.130136 -0.401217 -2.03263e-21)
(0.127889 -0.410675 1.33637e-19)
(0.125754 -0.420114 -1.29667e-19)
(0.123727 -0.429521 -1.33714e-19)
(0.121806 -0.438887 -1.05987e-20)
(0.119989 -0.448201 1.3222e-19)
(0.11827 -0.457453 -1.37693e-19)
(0.116648 -0.466632 1.31849e-19)
(0.115118 -0.475731 0)
(0.113676 -0.48474 1.32618e-19)
(0.11232 -0.493651 -2.62439e-19)
(0.111045 -0.502459 1.24831e-19)
(0.109847 -0.511156 1.28971e-19)
(0.108724 -0.519737 -1.22863e-19)
(0.10767 -0.528196 -9.699e-22)
(0.106684 -0.53653 -1.24239e-19)
(0.105761 -0.544734 -7.98602e-22)
(0.104899 -0.552805 -4.36464e-21)
(0.104093 -0.560741 1.17423e-19)
(0.103342 -0.56854 1.15771e-19)
(0.102641 -0.576199 -2.25118e-19)
(0.101989 -0.583717 1.10331e-19)
(0.101383 -0.591094 -1.09173e-19)
(0.100819 -0.598329 1.05704e-19)
(0.100296 -0.605421 -1.04758e-19)
(0.0998108 -0.612372 -2.65937e-21)
(0.0993616 -0.61918 9.90055e-20)
(0.0989461 -0.625848 1.14324e-21)
(0.0985623 -0.632376 -9.5689e-20)
(0.0982083 -0.638765 9.24389e-20)
(0.0978823 -0.645017 3.56756e-22)
(0.0975825 -0.651132 3.48745e-22)
(0.0973073 -0.657113 8.73554e-20)
(0.0970552 -0.662962 -8.47966e-20)
(0.0968247 -0.66868 0)
(0.166459 -0.295579 -4.6089e-20)
(0.162992 -0.304805 -4.45873e-21)
(0.159653 -0.314073 0)
(0.156445 -0.323393 1.03559e-19)
(0.153371 -0.332769 -9.90395e-20)
(0.150432 -0.342199 7.08591e-21)
(0.147629 -0.35168 7.48803e-21)
(0.144961 -0.361205 0)
(0.142427 -0.370765 0)
(0.140025 -0.380347 -4.11792e-21)
(0.137752 -0.389942 0)
(0.135606 -0.399535 0)
(0.133583 -0.409114 -4.33111e-21)
(0.13168 -0.418666 2.17495e-21)
(0.129891 -0.428179 -1.41972e-19)
(0.128213 -0.43764 1.35835e-19)
(0.126641 -0.44704 -1.38681e-19)
(0.125171 -0.456367 1.34912e-19)
(0.123799 -0.465611 2.12535e-21)
(0.122519 -0.474763 0)
(0.121327 -0.483815 -1.35641e-19)
(0.12022 -0.492761 -5.76538e-21)
(0.119192 -0.501592 -5.4923e-21)
(0.118239 -0.510303 1.28969e-19)
(0.117358 -0.51889 -1.28168e-19)
(0.116544 -0.527347 -3.77524e-21)
(0.115793 -0.53567 1.24231e-19)
(0.115103 -0.543857 -1.22748e-19)
(0.114468 -0.551904 1.17327e-19)
(0.113887 -0.55981 0)
(0.113356 -0.567572 1.15152e-19)
(0.112871 -0.57519 -1.12793e-19)
(0.112431 -0.582663 0)
(0.112031 -0.589989 8.40161e-22)
(0.111669 -0.59717 8.23946e-22)
(0.111344 -0.604205 8.06159e-22)
(0.111052 -0.611094 1.00945e-19)
(0.110792 -0.61784 -1.98978e-19)
(0.11056 -0.624442 9.73163e-20)
(0.110356 -0.630902 0)
(0.110177 -0.637221 0)
(0.110022 -0.643402 9.1324e-20)
(0.109889 -0.649445 -8.79801e-20)
(0.109776 -0.655353 0)
(0.175624 -0.273326 -4.82094e-20)
(0.171939 -0.282479 -7.68451e-20)
(0.168404 -0.291705 1.72182e-19)
(0.165022 -0.301013 -9.00144e-20)
(0.161796 -0.310407 -1.1417e-19)
(0.158728 -0.319887 1.05302e-19)
(0.155817 -0.329447 -3.85174e-21)
(0.153063 -0.339077 0)
(0.150463 -0.348767 -1.37211e-19)
(0.148015 -0.358504 2.75444e-19)
(0.145715 -0.368272 8.73569e-21)
(0.143559 -0.378058 -1.36112e-19)
(0.141542 -0.387846 -4.40101e-21)
(0.13966 -0.397621 -1.45676e-19)
(0.137906 -0.407369 1.39273e-19)
(0.136276 -0.417077 -1.45368e-19)
(0.134764 -0.426731 -5.54627e-21)
(0.133364 -0.43632 1.38599e-19)
(0.132071 -0.445832 -6.5655e-21)
(0.13088 -0.455257 0)
(0.129784 -0.464585 8.22707e-24)
(0.128779 -0.473808 2.12865e-21)
(0.12786 -0.482919 1.36104e-19)
(0.127022 -0.49191 3.35225e-21)
(0.126259 -0.500776 -2.61218e-19)
(0.125568 -0.509511 1.25169e-19)
(0.124944 -0.518111 -3.95623e-21)
(0.124383 -0.526572 0)
(0.12388 -0.534891 -2.47124e-19)
(0.123432 -0.543066 2.38194e-19)
(0.123036 -0.551093 0)
(0.122687 -0.558972 9.05385e-22)
(0.122383 -0.566702 2.29008e-19)
(0.122121 -0.574281 -2.21912e-19)
(0.121897 -0.581709 0)
(0.121709 -0.588988 -8.35771e-22)
(0.121553 -0.596116 8.17872e-22)
(0.121429 -0.603094 8.01252e-22)
(0.121333 -0.609925 -2.027e-19)
(0.121263 -0.616608 1.95201e-19)
(0.121218 -0.623145 -7.50129e-22)
(0.121194 -0.629538 -1.8957e-19)
(0.121192 -0.635788 1.8267e-19)
(0.121208 -0.641898 0)
(0.179018 -0.258967 -4.38341e-21)
(0.175256 -0.268183 -5.27289e-21)
(0.171675 -0.277517 0)
(0.168277 -0.286972 -6.68653e-21)
(0.165064 -0.296544 -7.23258e-21)
(0.162035 -0.306227 0)
(0.159188 -0.316009 -1.35791e-19)
(0.15652 -0.325876 1.29389e-19)
(0.154027 -0.335812 0)
(0.151704 -0.3458 -2.91599e-19)
(0.149544 -0.355823 2.8267e-19)
(0.147542 -0.365864 4.54346e-21)
(0.145691 -0.375905 0)
(0.143985 -0.385931 0)
(0.142416 -0.395924 -4.54832e-21)
(0.140978 -0.405872 0)
(0.139663 -0.41576 2.95294e-19)
(0.138466 -0.425575 -5.76076e-19)
(0.13738 -0.435306 5.71441e-19)
(0.136397 -0.444943 -2.76476e-19)
(0.135513 -0.454476 0)
(0.13472 -0.463896 2.78237e-19)
(0.134014 -0.473195 -2.69598e-19)
(0.133389 -0.482368 0)
(0.132839 -0.491408 2.70523e-19)
(0.132359 -0.50031 -5.20633e-19)
(0.131945 -0.50907 2.52496e-19)
(0.131592 -0.517684 -2.55355e-19)
(0.131296 -0.526149 2.44266e-19)
(0.131052 -0.534462 -2.4628e-19)
(0.130857 -0.542622 2.37631e-19)
(0.130706 -0.550628 0)
(0.130598 -0.558478 2.30652e-19)
(0.130527 -0.566172 -2.24504e-19)
(0.130492 -0.57371 0)
(0.13049 -0.581092 -2.1948e-19)
(0.130517 -0.58832 2.12154e-19)
(0.130571 -0.595392 -8.13267e-22)
(0.13065 -0.602312 -2.05028e-19)
(0.130752 -0.60908 3.98877e-19)
(0.130875 -0.615698 -1.93272e-19)
(0.131016 -0.622167 1.92538e-19)
(0.131174 -0.62849 1.89776e-21)
(0.176263 -0.252978 -6.05383e-21)
(0.172682 -0.262547 1.94719e-22)
(0.16932 -0.272268 7.49007e-21)
(0.166173 -0.282131 0)
(0.163238 -0.29212 -2.84494e-19)
(0.16051 -0.30222 5.39923e-19)
(0.157983 -0.31241 2.05519e-20)
(0.155649 -0.322672 1.90005e-20)
(0.153502 -0.332984 -2.97639e-19)
(0.151533 -0.343326 -4.60296e-21)
(0.149733 -0.353681 0)
(0.148094 -0.364028 -3.06036e-19)
(0.146608 -0.374351 -8.26756e-21)
(0.145266 -0.384633 2.97366e-19)
(0.14406 -0.394859 0)
(0.142982 -0.405015 2.16786e-23)
(0.142024 -0.415088 4.57892e-21)
(0.141178 -0.425067 -4.5396e-21)
(0.140437 -0.434941 0)
(0.139795 -0.444701 2.86619e-19)
(0.139244 -0.454338 -2.77811e-19)
(0.138779 -0.463846 0)
(0.138392 -0.473217 2.13725e-21)
(0.138079 -0.482445 2.72798e-19)
(0.137834 -0.491527 -2.58755e-19)
(0.137652 -0.500458 0)
(0.137527 -0.509235 2.59463e-19)
(0.137456 -0.517855 -2.50352e-19)
(0.137434 -0.526315 1.93747e-21)
(0.137458 -0.534615 0)
(0.137522 -0.542753 1.8686e-21)
(0.137624 -0.550729 0)
(0.13776 -0.558543 -2.31568e-19)
(0.137928 -0.566194 4.50748e-19)
(0.138124 -0.573683 -4.41644e-19)
(0.138345 -0.581012 2.16635e-19)
(0.138589 -0.588181 0)
(0.138854 -0.595191 8.09903e-22)
(0.139138 -0.602045 -2.03971e-19)
(0.139438 -0.608744 3.96146e-19)
(0.139753 -0.61529 -1.95933e-19)
(0.17485 -0.237281 -2.29038e-19)
(0.171351 -0.24722 2.1697e-19)
(0.168104 -0.25733 0)
(0.165102 -0.267594 8.44948e-21)
(0.162338 -0.27799 1.34155e-22)
(0.159802 -0.288495 0)
(0.157486 -0.299088 0)
(0.15538 -0.309744 1.86632e-20)
(0.153472 -0.320441 4.74388e-21)
(0.151753 -0.331158 4.74061e-21)
(0.150212 -0.341875 0)
(0.148838 -0.352571 -3.13284e-19)
(0.147622 -0.363229 2.95213e-19)
(0.146554 -0.373833 3.11168e-19)
(0.145625 -0.384366 -2.93686e-19)
(0.144824 -0.394816 -4.72663e-21)
(0.144144 -0.405169 4.68784e-21)
(0.143575 -0.415415 0)
(0.143111 -0.425543 4.59412e-21)
(0.142743 -0.435544 2.93995e-19)
(0.142464 -0.445411 -2.8305e-19)
(0.142268 -0.455136 -2.9051e-19)
(0.142148 -0.464714 2.77891e-19)
(0.142098 -0.474139 -4.29188e-21)
(0.142111 -0.483408 0)
(0.142184 -0.492516 4.15759e-21)
(0.14231 -0.50146 2.6606e-19)
(0.142485 -0.510238 -2.56956e-19)
(0.142704 -0.518848 2.54683e-19)
(0.142963 -0.52729 -4.96056e-19)
(0.143259 -0.535562 2.416e-19)
(0.143587 -0.543665 -2.405e-19)
(0.143945 -0.551598 2.32567e-19)
(0.144329 -0.559362 -8.96849e-22)
(0.144737 -0.566957 -3.14904e-25)
(0.145164 -0.574386 8.60552e-22)
(0.14561 -0.581649 0)
(0.146072 -0.588748 -8.2502e-22)
(0.146547 -0.595685 0)
(0.147034 -0.602463 8.0151e-22)
(0.167738 -0.232062 0)
(0.164709 -0.242666 8.40129e-21)
(0.161949 -0.253422 8.90322e-21)
(0.159446 -0.264302 0)
(0.157189 -0.275282 -3.09233e-19)
(0.155163 -0.286334 2.85339e-19)
(0.153358 -0.297436 -9.59545e-21)
(0.151759 -0.308562 -4.88492e-21)
(0.150355 -0.31969 -3.20706e-19)
(0.149133 -0.330801 -1.40508e-20)
(0.148081 -0.341873 3.12418e-19)
(0.147188 -0.35289 0)
(0.146443 -0.363835 -3.1782e-19)
(0.145836 -0.374694 -1.04915e-20)
(0.145356 -0.385452 6.2125e-19)
(0.144994 -0.396099 -3.0107e-19)
(0.144741 -0.406624 -3.0692e-19)
(0.14459 -0.417017 5.94207e-19)
(0.14453 -0.427269 -2.9687e-19)
(0.144555 -0.437373 -2.27573e-21)
(0.144658 -0.447323 -2.25489e-21)
(0.144831 -0.457112 -2.82846e-19)
(0.145068 -0.466736 -5.64438e-21)
(0.145364 -0.476192 2.7095e-19)
(0.145713 -0.485476 -2.12109e-21)
(0.14611 -0.494587 0)
(0.14655 -0.503522 -2.04809e-21)
(0.147028 -0.512279 0)
(0.14754 -0.52086 0)
(0.148082 -0.529262 0)
(0.148652 -0.537486 1.90302e-21)
(0.149244 -0.545534 0)
(0.149857 -0.553405 -9.15194e-22)
(0.150488 -0.561102 -2.09103e-25)
(0.151133 -0.568625 -8.78454e-22)
(0.15179 -0.575976 2.23194e-19)
(0.152458 -0.583158 -2.14496e-19)
(0.153134 -0.590172 2.1522e-19)
(0.154813 -0.251532 3.14878e-19)
(0.152921 -0.263029 -2.90679e-19)
(0.151267 -0.274579 9.88625e-21)
(0.149838 -0.286155 0)
(0.148618 -0.297735 -3.28332e-19)
(0.147594 -0.309295 3.14394e-19)
(0.146751 -0.320815 -2.97659e-23)
(0.146076 -0.332277 5.01585e-21)
(0.145558 -0.343664 0)
(0.145184 -0.354959 -4.98118e-21)
(0.144944 -0.36615 -4.97055e-21)
(0.144826 -0.377222 -3.19894e-19)
(0.14482 -0.388164 3.07964e-19)
(0.144916 -0.398966 4.83987e-21)
(0.145108 -0.40962 1.14431e-23)
(0.145385 -0.420118 3.10743e-19)
(0.145739 -0.430454 -2.95224e-19)
(0.146165 -0.440621 -2.30361e-21)
(0.146654 -0.450615 -2.2676e-21)
(0.1472 -0.460432 0)
(0.147798 -0.470069 2.8438e-19)
(0.148442 -0.479524 -2.74875e-19)
(0.149126 -0.488794 2.75002e-19)
(0.149846 -0.497878 -2.68056e-19)
(0.150598 -0.506775 -2.65402e-19)
(0.151377 -0.515486 2.58828e-19)
(0.152179 -0.524011 -1.98427e-21)
(0.153001 -0.532349 -2.48862e-19)
(0.153839 -0.540503 2.40927e-19)
(0.154691 -0.548474 -2.40125e-19)
(0.155554 -0.556262 2.35314e-19)
(0.156425 -0.563871 2.30475e-19)
(0.157302 -0.571302 -2.25043e-19)
(0.158184 -0.578557 -8.74483e-22)
(0.150447 -0.228111 0)
(0.148742 -0.240093 -1.0862e-22)
(0.147294 -0.252128 3.31036e-19)
(0.146084 -0.264189 -3.26631e-19)
(0.145097 -0.276251 0)
(0.144317 -0.28829 -1.02744e-20)
(0.143727 -0.300285 5.12213e-21)
(0.143314 -0.312216 3.37432e-19)
(0.143064 -0.324065 1.22771e-20)
(0.142963 -0.335815 -3.18282e-19)
(0.143 -0.347453 -3.2771e-19)
(0.143162 -0.358965 3.20406e-19)
(0.143439 -0.37034 3.27499e-19)
(0.14382 -0.381567 -3.10676e-19)
(0.144296 -0.392638 3.25828e-19)
(0.144859 -0.403545 -3.14494e-19)
(0.145498 -0.41428 -4.83469e-21)
(0.146207 -0.424838 3.09122e-19)
(0.146979 -0.435213 -5.96418e-19)
(0.147805 -0.445402 -8.12167e-21)
(0.14868 -0.455402 2.90442e-19)
(0.149598 -0.465209 -2.91226e-19)
(0.150553 -0.474822 2.83944e-19)
(0.151541 -0.48424 -2.79507e-19)
(0.152556 -0.493462 5.49469e-19)
(0.153594 -0.502488 -2.67995e-19)
(0.154651 -0.511318 0)
(0.155723 -0.519953 -2.03402e-21)
(0.156808 -0.528393 1.99595e-21)
(0.157901 -0.536642 -3.9153e-21)
(0.159001 -0.5447 -2.48098e-19)
(0.160104 -0.552568 2.41374e-19)
(0.161208 -0.560251 1.8437e-21)
(0.162311 -0.56775 0)
(0.144261 -0.205258 -3.03265e-19)
(0.142802 -0.217755 3.23137e-19)
(0.141615 -0.230304 -6.67083e-19)
(0.140679 -0.242875 3.3419e-19)
(0.139977 -0.255443 -1.0471e-20)
(0.139489 -0.267983 -3.35996e-19)
(0.1392 -0.280472 3.21942e-19)
(0.139093 -0.292891 3.42132e-19)
(0.139154 -0.30522 -3.3931e-19)
(0.139369 -0.317443 3.40333e-19)
(0.139723 -0.329546 -3.38039e-19)
(0.140205 -0.341514 0)
(0.140802 -0.353336 -5.21515e-21)
(0.141504 -0.365001 3.30972e-19)
(0.142299 -0.376499 -6.57299e-19)
(0.143179 -0.387824 3.2142e-19)
(0.144135 -0.398967 9.17383e-24)
(0.145157 -0.409923 0)
(0.146239 -0.420686 -9.81528e-21)
(0.147372 -0.431253 3.15392e-19)
(0.14855 -0.44162 -6.11212e-19)
(0.149767 -0.451785 2.98477e-19)
(0.151017 -0.461745 0)
(0.152294 -0.471501 0)
(0.153594 -0.48105 -2.89367e-19)
(0.154912 -0.490394 5.62467e-19)
(0.156244 -0.499531 -2.75515e-19)
(0.157586 -0.508464 2.74363e-19)
(0.158935 -0.517194 -2.65871e-19)
(0.160287 -0.525721 3.15495e-25)
(0.16164 -0.534049 -2.59138e-19)
(0.16299 -0.542178 2.49242e-19)
(0.164337 -0.550113 -9.67398e-22)
(0.165676 -0.557854 -2.47479e-19)
(0.136473 -0.183211 9.9593e-21)
(0.135322 -0.196243 0)
(0.134453 -0.209322 1.05502e-20)
(0.133844 -0.222419 0)
(0.133477 -0.235506 3.65069e-19)
(0.133331 -0.248559 -3.50669e-19)
(0.133389 -0.261554 0)
(0.133634 -0.274471 1.09455e-20)
(0.134048 -0.287289 3.63714e-19)
(0.134618 -0.299993 -3.39361e-19)
(0.135328 -0.312567 -5.46162e-21)
(0.136165 -0.324996 5.43967e-21)
(0.137117 -0.33727 3.57274e-19)
(0.138171 -0.349377 -6.88752e-19)
(0.139317 -0.361308 3.37172e-19)
(0.140544 -0.373054 3.53296e-19)
(0.141844 -0.384608 -3.26024e-19)
(0.143206 -0.395964 -3.35179e-19)
(0.144623 -0.407118 6.65535e-19)
(0.146088 -0.418065 -3.20356e-19)
(0.147592 -0.428801 0)
(0.149129 -0.439325 0)
(0.150695 -0.449634 0)
(0.152282 -0.459727 0)
(0.153886 -0.469604 2.34965e-21)
(0.155502 -0.479265 0)
(0.157126 -0.48871 -2.27313e-21)
(0.158754 -0.497941 2.90162e-19)
(0.160382 -0.506958 -2.79138e-19)
(0.162008 -0.515763 2.96095e-25)
(0.163628 -0.524359 -2.72345e-19)
(0.165239 -0.532748 2.6412e-19)
(0.16684 -0.540932 2.03514e-21)
(0.168428 -0.548914 0)
(0.126565 -0.175729 3.24778e-19)
(0.126067 -0.189345 -3.55115e-19)
(0.125836 -0.202974 7.00595e-19)
(0.125852 -0.216588 -3.34603e-19)
(0.126093 -0.230159 1.12457e-20)
(0.126541 -0.243664 0)
(0.127177 -0.257082 -5.91289e-23)
(0.127984 -0.270393 -1.13392e-20)
(0.128945 -0.28358 3.7038e-19)
(0.130046 -0.296627 -3.45767e-19)
(0.131271 -0.309519 -1.8154e-23)
(0.132609 -0.322245 5.62563e-21)
(0.134046 -0.334794 0)
(0.135571 -0.347155 3.60652e-19)
(0.137172 -0.359321 -3.54221e-19)
(0.138841 -0.371285 3.54003e-19)
(0.140567 -0.383039 -6.92785e-19)
(0.142342 -0.394581 3.33661e-19)
(0.144159 -0.405904 5.28816e-21)
(0.146009 -0.417007 0)
(0.147887 -0.427886 0)
(0.149786 -0.43854 -3.28256e-19)
(0.151699 -0.448968 3.18137e-19)
(0.153624 -0.459169 -2.46889e-21)
(0.155553 -0.469144 0)
(0.157483 -0.478892 2.3908e-21)
(0.159411 -0.488416 -2.35083e-21)
(0.161332 -0.497716 0)
(0.163243 -0.506796 2.9228e-19)
(0.165142 -0.515655 -5.68225e-19)
(0.167025 -0.524299 2.78356e-19)
(0.16889 -0.532728 2.73998e-19)
(0.170736 -0.540947 -2.69692e-19)
(0.116845 -0.156339 3.4638e-19)
(0.116761 -0.170488 -3.419e-19)
(0.116949 -0.184647 1.1213e-20)
(0.117387 -0.198783 3.75739e-19)
(0.118053 -0.212871 -3.49578e-19)
(0.118927 -0.226885 -1.16397e-20)
(0.11999 -0.240802 3.72011e-19)
(0.121222 -0.254603 2.66752e-20)
(0.122607 -0.268269 -3.70921e-19)
(0.124129 -0.281784 -1.76991e-20)
(0.125772 -0.295134 -1.17847e-20)
(0.127523 -0.308306 -3.87376e-19)
(0.129367 -0.32129 7.48144e-19)
(0.131294 -0.334076 -7.43697e-19)
(0.133291 -0.346655 3.58811e-19)
(0.135349 -0.359021 -3.70551e-19)
(0.137458 -0.371167 3.58794e-19)
(0.13961 -0.383089 5.60944e-21)
(0.141795 -0.394783 -3.58901e-19)
(0.144008 -0.406245 3.47805e-19)
(0.14624 -0.417473 5.41656e-21)
(0.148486 -0.428465 0)
(0.15074 -0.439221 0)
(0.152996 -0.44974 -3.3524e-19)
(0.15525 -0.460022 3.25177e-19)
(0.157498 -0.470068 3.22288e-19)
(0.159735 -0.479879 -3.15131e-19)
(0.161958 -0.489457 0)
(0.164164 -0.498804 4.79123e-21)
(0.16635 -0.507922 -3.03014e-19)
(0.168513 -0.516814 2.96389e-19)
(0.170652 -0.525483 2.91866e-19)
(0.172763 -0.533932 -2.89651e-19)
(0.106515 -0.138092 3.52094e-19)
(0.10688 -0.152762 0)
(0.10752 -0.167442 -1.16642e-20)
(0.108411 -0.1821 -8.89499e-23)
(0.109532 -0.196704 -1.20186e-20)
(0.11086 -0.211228 4.08474e-19)
(0.112375 -0.225645 -7.80576e-19)
(0.114057 -0.239935 3.96717e-19)
(0.115888 -0.254078 0)
(0.117851 -0.268056 4.00833e-19)
(0.11993 -0.281857 -3.68868e-19)
(0.122109 -0.295466 0)
(0.124377 -0.308875 4.03132e-19)
(0.126719 -0.322074 -7.78999e-19)
(0.129125 -0.335055 7.80287e-19)
(0.131585 -0.347811 9.20309e-21)
(0.134088 -0.360338 -7.62294e-19)
(0.136626 -0.37263 3.73583e-19)
(0.139191 -0.384683 -6.16464e-24)
(0.141774 -0.396494 3.73288e-19)
(0.14437 -0.408061 -3.73461e-19)
(0.146971 -0.419383 0)
(0.149573 -0.430458 0)
(0.152169 -0.441286 -3.56638e-19)
(0.154755 -0.451867 -5.20254e-21)
(0.157327 -0.462203 3.41028e-19)
(0.159881 -0.472294 0)
(0.162413 -0.482142 0)
(0.16492 -0.49175 -2.53526e-21)
(0.167399 -0.50112 -2.49145e-21)
(0.169847 -0.510254 -4.89438e-21)
(0.172263 -0.519156 3.11629e-19)
(0.174645 -0.527829 -6.14761e-19)
(0.0967883 -0.136159 3.62563e-19)
(0.0978808 -0.151339 3.96185e-19)
(0.0992253 -0.1665 -3.93206e-19)
(0.1008 -0.181607 -3.95841e-19)
(0.102585 -0.196628 3.80772e-19)
(0.104557 -0.211537 0)
(0.106698 -0.226307 -1.28186e-20)
(0.108988 -0.240917 4.18872e-19)
(0.111406 -0.25535 2.73814e-20)
(0.113935 -0.26959 -8.37538e-19)
(0.116557 -0.283628 3.99102e-19)
(0.119258 -0.297453 4.10303e-19)
(0.122025 -0.311058 -4.03627e-19)
(0.124848 -0.324433 0)
(0.127716 -0.337572 -4.09361e-19)
(0.130619 -0.350469 8.02957e-19)
(0.133549 -0.363121 -4.00025e-19)
(0.136497 -0.375524 -6.16531e-21)
(0.139456 -0.387675 0)
(0.142419 -0.399573 6.03381e-21)
(0.145381 -0.411215 0)
(0.148334 -0.422601 0)
(0.151274 -0.433731 -3.71658e-19)
(0.154196 -0.444605 3.66514e-19)
(0.157096 -0.455224 0)
(0.15997 -0.465589 0)
(0.162815 -0.475702 -2.73378e-21)
(0.165626 -0.485565 -3.49078e-19)
(0.168402 -0.495181 3.36372e-19)
(0.17114 -0.504552 8.27979e-26)
(0.173837 -0.513681 -3.30878e-19)
(0.176493 -0.522573 3.2599e-19)
(0.0865891 -0.120469 4.08923e-19)
(0.0881343 -0.136118 -3.8105e-19)
(0.0899324 -0.151774 4.14507e-19)
(0.0919628 -0.167397 -4.38219e-19)
(0.0942045 -0.182947 -4.25264e-19)
(0.0966357 -0.198388 4.09232e-19)
(0.0992342 -0.213686 0)
(0.101978 -0.228807 0)
(0.104844 -0.243723 -4.43392e-19)
(0.107812 -0.258404 4.27382e-19)
(0.110866 -0.272839 2.03065e-20)
(0.113999 -0.287043 6.74827e-21)
(0.117199 -0.301023 6.72944e-21)
(0.120453 -0.314766 -4.34856e-19)
(0.123747 -0.328265 -1.03882e-20)
(0.127066 -0.341514 4.19247e-19)
(0.130402 -0.354509 4.25434e-19)
(0.133746 -0.367248 -4.12927e-19)
(0.137091 -0.379727 0)
(0.140431 -0.391943 0)
(0.14376 -0.403896 -4.07826e-19)
(0.147073 -0.415585 4.02226e-19)
(0.150364 -0.427009 3.97292e-19)
(0.153629 -0.438169 -7.80581e-19)
(0.156864 -0.449064 3.80439e-19)
(0.160065 -0.459697 -3.80106e-19)
(0.163228 -0.47007 7.46193e-19)
(0.16635 -0.480183 -3.60509e-19)
(0.169428 -0.49004 0)
(0.17246 -0.499643 3.58236e-19)
(0.175445 -0.508997 -6.94409e-19)
(0.178379 -0.518103 3.41317e-19)
(0.0762437 -0.105869 -4.02838e-19)
(0.0782533 -0.121879 -1.3526e-20)
(0.0805163 -0.137935 1.38673e-20)
(0.083012 -0.153988 4.63055e-19)
(0.0857187 -0.169993 -4.32443e-19)
(0.0886133 -0.185905 2.8936e-20)
(0.0916732 -0.201686 -4.76042e-19)
(0.0948767 -0.217302 -1.81333e-20)
(0.0982038 -0.232724 4.45844e-19)
(0.101636 -0.247927 1.46154e-20)
(0.105158 -0.262889 -1.46156e-20)
(0.108752 -0.277594 -7.27098e-21)
(0.112402 -0.29203 -7.22223e-21)
(0.116093 -0.306184 -7.1475e-21)
(0.119807 -0.320044 0)
(0.123535 -0.333608 0)
(0.127273 -0.346898 -6.96195e-21)
(0.131017 -0.359932 0)
(0.134756 -0.372705 -4.49274e-19)
(0.138482 -0.385212 -1.48539e-20)
(0.142188 -0.397452 8.51258e-19)
(0.145869 -0.409423 -8.54548e-19)
(0.149519 -0.421124 4.1533e-19)
(0.153134 -0.432554 -6.45386e-21)
(0.156711 -0.443714 -3.18238e-21)
(0.160245 -0.454604 0)
(0.163733 -0.465226 3.98096e-19)
(0.167172 -0.475581 -7.78523e-19)
(0.170559 -0.485672 3.80605e-19)
(0.173892 -0.495501 0)
(0.177169 -0.505071 3.74881e-19)
(0.180387 -0.514386 -3.63746e-19)
(0.0660284 -0.0924072 -4.55355e-19)
(0.068519 -0.108714 8.96747e-19)
(0.0712653 -0.125111 -4.55024e-19)
(0.0742471 -0.141544 1.50425e-20)
(0.0774417 -0.15796 -5.15687e-19)
(0.0808241 -0.174303 -2.26466e-20)
(0.0843695 -0.190525 1.01317e-18)
(0.088054 -0.206585 -5.07186e-19)
(0.0918557 -0.22245 5.11702e-19)
(0.0957549 -0.238096 -5.09577e-19)
(0.0997337 -0.2535 0)
(0.103776 -0.268648 0)
(0.107868 -0.283525 -7.7435e-21)
(0.111995 -0.298121 5.06533e-19)
(0.116143 -0.312424 -4.81832e-19)
(0.120302 -0.326421 -7.53793e-21)
(0.124458 -0.340108 -4.8264e-19)
(0.128603 -0.353482 4.66755e-19)
(0.132726 -0.366547 -4.56221e-19)
(0.136825 -0.379322 4.63992e-19)
(0.140899 -0.391823 4.67412e-19)
(0.144941 -0.404054 7.63627e-21)
(0.148946 -0.416013 -4.42131e-19)
(0.152909 -0.427698 6.8781e-21)
(0.156826 -0.439108 -4.33921e-19)
(0.160692 -0.450243 4.21685e-19)
(0.164505 -0.461104 -3.29357e-21)
(0.168261 -0.471692 0)
(0.171956 -0.482008 -4.11032e-19)
(0.17559 -0.492055 -4.6686e-21)
(0.179159 -0.501836 -7.47685e-21)
(0.182663 -0.511354 3.91422e-19)
(0.0564257 -0.0799714 4.91628e-19)
(0.0593894 -0.0964828 -4.48405e-19)
(0.0626093 -0.113137 1.54287e-20)
(0.0660668 -0.129879 1.58528e-20)
(0.0697392 -0.146647 1.61902e-20)
(0.0736011 -0.163376 5.2311e-19)
(0.0776258 -0.180008 -1.08274e-18)
(0.081788 -0.196492 5.42707e-19)
(0.086064 -0.212789 1.68502e-20)
(0.0904325 -0.228867 0)
(0.0948736 -0.244699 -5.62251e-19)
(0.0993695 -0.260265 -1.60701e-20)
(0.103904 -0.275551 5.32092e-19)
(0.108461 -0.290542 0)
(0.11303 -0.305231 -5.29253e-19)
(0.117597 -0.31961 5.196e-19)
(0.122153 -0.333675 1.60012e-20)
(0.12669 -0.347422 5.11373e-19)
(0.131199 -0.360848 2.15236e-21)
(0.135672 -0.373955 -4.80976e-19)
(0.140105 -0.386748 0)
(0.144495 -0.399243 -4.85247e-19)
(0.14884 -0.411455 -7.70026e-21)
(0.153138 -0.423391 4.73305e-19)
(0.157384 -0.435048 -4.5962e-19)
(0.161573 -0.446426 4.57436e-19)
(0.165703 -0.457524 3.52015e-21)
(0.169768 -0.468343 0)
(0.173767 -0.478883 0)
(0.177696 -0.489147 3.35464e-21)
(0.181554 -0.499138 3.29787e-21)
(0.185337 -0.508857 0)
(0.047686 -0.068491 5.13546e-19)
(0.0511009 -0.0851107 -4.70299e-19)
(0.0547719 -0.101932 5.21574e-19)
(0.0586832 -0.118901 -5.40418e-19)
(0.0628131 -0.13595 -9.19159e-23)
(0.0671356 -0.153007 0)
(0.0716223 -0.169999 0)
(0.0762455 -0.186866 5.8483e-19)
(0.0809793 -0.203559 -1.16873e-18)
(0.0858005 -0.220038 5.65742e-19)
(0.0906875 -0.236272 1.79829e-20)
(0.0956214 -0.252237 0)
(0.100585 -0.267915 -5.77117e-19)
(0.105563 -0.283291 -1.50966e-20)
(0.110541 -0.298355 1.12002e-18)
(0.115508 -0.313099 -5.56633e-19)
(0.120454 -0.327519 5.54733e-19)
(0.125369 -0.34161 -5.28049e-19)
(0.130246 -0.355374 0)
(0.13508 -0.36881 -1.65235e-20)
(0.139864 -0.381921 8.14812e-21)
(0.144595 -0.394715 5.19277e-19)
(0.14927 -0.4072 -4.96193e-19)
(0.153891 -0.419395 -7.84665e-21)
(0.158455 -0.431307 -1.54865e-20)
(0.162958 -0.442934 -4.9232e-19)
(0.167394 -0.454276 4.78694e-19)
(0.171762 -0.465332 4.77788e-19)
(0.176056 -0.476102 9.37369e-21)
(0.180274 -0.486589 -4.60685e-19)
(0.184414 -0.496794 -4.61651e-19)
(0.188473 -0.50672 -4.82995e-21)
(0.0398887 -0.0578994 -2.91357e-19)
(0.0437256 -0.0745279 2.37657e-19)
(0.0478156 -0.0914176 2.82932e-19)
(0.052148 -0.108521 -2.76418e-19)
(0.0567046 -0.125772 5.81942e-19)
(0.0614598 -0.14309 -5.8372e-19)
(0.0663842 -0.160391 0)
(0.0714473 -0.177601 1.90973e-20)
(0.0766204 -0.194656 6.26855e-19)
(0.0818772 -0.211508 -6.05343e-19)
(0.087194 -0.228118 0)
(0.0925496 -0.244456 1.91313e-20)
(0.0979256 -0.260502 1.9025e-20)
(0.103306 -0.276238 0)
(0.108677 -0.291655 0)
(0.114027 -0.306744 9.29009e-21)
(0.119346 -0.321501 -1.83658e-20)
(0.124625 -0.335923 5.78036e-19)
(0.129857 -0.350009 -5.59101e-19)
(0.135037 -0.363761 1.1202e-23)
(0.140159 -0.37718 -1.74717e-20)
(0.14522 -0.390274 0)
(0.150218 -0.40305 5.40375e-19)
(0.155154 -0.415521 -5.33319e-19)
(0.160028 -0.427698 8.29544e-21)
(0.164836 -0.439586 -4.0894e-21)
(0.169573 -0.451182 0)
(0.174236 -0.462485 -3.97298e-21)
(0.17882 -0.473495 -2.45677e-24)
(0.183322 -0.484214 -4.91865e-19)
(0.187739 -0.494642 4.81863e-19)
(0.192069 -0.504783 0)
(0.0330481 -0.0481914 -3.2375e-20)
(0.0372788 -0.064715 2.83852e-19)
(0.0417546 -0.0815623 -2.96715e-19)
(0.0464723 -0.0986958 3.26821e-19)
(0.0514193 -0.116053 -2.82291e-19)
(0.0565732 -0.133551 -3.25021e-19)
(0.0619045 -0.151096 3.15978e-19)
(0.0673803 -0.168597 -3.74412e-19)
(0.0729682 -0.185975 3.63922e-19)
(0.0786384 -0.203168 2.05843e-20)
(0.0843641 -0.220126 2.05686e-20)
(0.0901218 -0.236814 -4.10468e-20)
(0.0958912 -0.253205 -2.04299e-20)
(0.101655 -0.26928 -6.56966e-19)
(0.1074 -0.285028 1.2951e-18)
(0.113115 -0.300441 -6.38522e-19)
(0.118788 -0.315516 -6.267e-19)
(0.124414 -0.33025 -1.33264e-20)
(0.129984 -0.344644 5.98808e-19)
(0.135495 -0.358698 9.4889e-21)
(0.140941 -0.372417 9.36532e-21)
(0.14632 -0.385805 0)
(0.15163 -0.39887 -9.11282e-21)
(0.156874 -0.411625 0)
(0.162052 -0.424082 -8.88703e-21)
(0.16716 -0.436242 5.78743e-19)
(0.172193 -0.448104 -1.10766e-18)
(0.177147 -0.459666 5.4223e-19)
(0.182016 -0.470927 5.36516e-19)
(0.186798 -0.481888 -5.2982e-19)
(0.191488 -0.49255 4.06368e-21)
(0.196085 -0.502914 -4.04831e-21)