/*--------------------------------*- C++ -*----------------------------------*\
  =========                 |
  \\      /  F ield         | OpenFOAM: The Open Source CFD Toolbox
   \\    /   O peration     | Website:  https://openfoam.org
    \\  /    A nd           | Version:  10
     \\/     M anipulation  |
\*---------------------------------------------------------------------------*/
FoamFile
{
    format      ascii;
    class       surfaceScalarField;
    location    "76000";
    object      phi;
}
// * * * * * * * * * * * * * * * * * * * * * * * * * * * * * * * * * * * * * //

dimensions      [0 3 -1 0 0 0 0];

internalField   nonuniform List<scalar> 
35539
(
9.19299e-09
4.64152e-05
-4.64151e-05
9.13174e-09
4.69557e-05
-4.69557e-05
9.071e-09
4.74978e-05
-4.74977e-05
9.01878e-09
4.80411e-05
-4.80411e-05
8.97353e-09
4.85855e-05
-4.85855e-05
8.92812e-09
4.91307e-05
-4.91306e-05
8.8907e-09
4.96762e-05
-4.96762e-05
8.85949e-09
5.02219e-05
-5.02218e-05
8.82744e-09
5.07673e-05
-5.07672e-05
8.79742e-09
5.1312e-05
-5.1312e-05
8.77267e-09
5.18558e-05
-5.18557e-05
8.75065e-09
5.23981e-05
-5.2398e-05
8.73183e-09
5.29385e-05
-5.29384e-05
8.70897e-09
5.34765e-05
-5.34765e-05
8.68947e-09
5.40117e-05
-5.40117e-05
8.66831e-09
5.45435e-05
-5.45435e-05
8.64795e-09
5.50714e-05
-5.50714e-05
8.62306e-09
5.55947e-05
-5.55947e-05
8.59567e-09
5.61129e-05
-5.61129e-05
8.56292e-09
5.66252e-05
-5.66252e-05
8.52408e-09
5.7131e-05
-5.7131e-05
8.47996e-09
5.76295e-05
-5.76294e-05
8.42288e-09
5.81198e-05
-5.81197e-05
8.35565e-09
5.86012e-05
-5.86011e-05
8.27444e-09
5.90726e-05
-5.90725e-05
8.18129e-09
5.95332e-05
-5.95331e-05
8.06481e-09
5.99819e-05
-5.99818e-05
7.92627e-09
6.04176e-05
-6.04174e-05
7.76678e-09
5.97906e-05
-5.97905e-05
7.58211e-09
5.81442e-05
-5.8144e-05
7.37719e-09
5.6547e-05
-5.65468e-05
7.14234e-09
5.49974e-05
-5.49971e-05
6.88036e-09
5.34936e-05
-5.34934e-05
6.58842e-09
5.20342e-05
-5.20339e-05
6.26756e-09
5.06176e-05
-5.06172e-05
5.91517e-09
4.92423e-05
-4.92419e-05
5.5331e-09
4.79069e-05
-4.79065e-05
5.11714e-09
4.66102e-05
-4.66098e-05
4.66791e-09
4.53508e-05
-4.53504e-05
4.18812e-09
4.41276e-05
-4.41271e-05
3.6748e-09
4.29392e-05
-4.29387e-05
3.13138e-09
4.17847e-05
-4.17842e-05
2.55563e-09
4.06629e-05
-4.06623e-05
1.95288e-09
3.95727e-05
-3.95721e-05
1.32507e-09
3.85132e-05
-3.85126e-05
6.68437e-10
3.74833e-05
-3.74826e-05
-1.71415e-11
3.64821e-05
-3.64814e-05
-7.23039e-10
3.55086e-05
-3.55079e-05
-1.45495e-09
3.45621e-05
-3.45614e-05
-2.20657e-09
3.36416e-05
-3.36409e-05
-2.98404e-09
3.27464e-05
-3.27456e-05
-3.78314e-09
3.18755e-05
-3.18747e-05
-4.60671e-09
3.10284e-05
-3.10276e-05
-5.45725e-09
3.02042e-05
-3.02034e-05
-6.32581e-09
2.94023e-05
-2.94014e-05
-7.22164e-09
2.86219e-05
-2.8621e-05
-8.1389e-09
2.78625e-05
-2.78616e-05
-9.07685e-09
2.71234e-05
-2.71224e-05
-1.00409e-08
2.64039e-05
-2.6403e-05
-1.10272e-08
2.57037e-05
-2.57027e-05
-1.20361e-08
2.5022e-05
-2.5021e-05
-1.3069e-08
2.43584e-05
-2.43573e-05
-1.41224e-08
2.37123e-05
-2.37113e-05
-1.52041e-08
2.30833e-05
-2.30822e-05
-1.63086e-08
2.24709e-05
-2.24698e-05
-1.74444e-08
2.18747e-05
-2.18736e-05
-1.8607e-08
2.12943e-05
-2.12931e-05
-1.98011e-08
2.07291e-05
-2.07279e-05
-2.10343e-08
2.0179e-05
-2.01777e-05
-2.23027e-08
1.96434e-05
-1.96421e-05
-2.36134e-08
1.9122e-05
-1.91207e-05
-2.49619e-08
1.86146e-05
-1.86132e-05
-2.63569e-08
1.81207e-05
-1.81193e-05
-2.77933e-08
1.76401e-05
-1.76387e-05
-2.92713e-08
1.71724e-05
-1.7171e-05
-3.07935e-08
1.67174e-05
-1.67159e-05
-3.23512e-08
1.62748e-05
-1.62733e-05
-3.39434e-08
1.58443e-05
-1.58427e-05
-3.55677e-08
1.54255e-05
-1.54239e-05
-3.72184e-08
1.50183e-05
-1.50167e-05
-3.88895e-08
1.46224e-05
-1.46207e-05
-4.05752e-08
1.42374e-05
-1.42357e-05
-4.2271e-08
1.38631e-05
-1.38614e-05
-4.39649e-08
1.34992e-05
-1.34976e-05
-4.56549e-08
1.31456e-05
-1.31439e-05
-4.73303e-08
1.28018e-05
-1.28002e-05
-4.89808e-08
1.24678e-05
-1.24661e-05
-5.06001e-08
1.21431e-05
-1.21415e-05
-5.21783e-08
1.18275e-05
-1.18259e-05
-5.37044e-08
1.15209e-05
-1.15193e-05
-5.51728e-08
1.12228e-05
-1.12214e-05
-5.65712e-08
1.09332e-05
-1.09318e-05
1.06517e-05
-1.06504e-05
9.33089e-09
4.64153e-05
9.2625e-09
4.69558e-05
9.19961e-09
4.74978e-05
9.14118e-09
4.80412e-05
9.08987e-09
4.85856e-05
9.04384e-09
4.91307e-05
9.0035e-09
4.96763e-05
8.96169e-09
5.02219e-05
8.92895e-09
5.07673e-05
8.89833e-09
5.13121e-05
8.87201e-09
5.18558e-05
8.84548e-09
5.23981e-05
8.81895e-09
5.29385e-05
8.79232e-09
5.34765e-05
8.77049e-09
5.40117e-05
8.74578e-09
5.45436e-05
8.72036e-09
5.50714e-05
8.69374e-09
5.55948e-05
8.66061e-09
5.61129e-05
8.62252e-09
5.66253e-05
8.58058e-09
5.7131e-05
8.52712e-09
5.76295e-05
8.46937e-09
5.81199e-05
8.39906e-09
5.86012e-05
8.31169e-09
5.90727e-05
8.2096e-09
5.95333e-05
8.08778e-09
5.9982e-05
7.94489e-09
6.04177e-05
7.7761e-09
5.97908e-05
7.58256e-09
5.81444e-05
7.36683e-09
5.65472e-05
7.12529e-09
5.49976e-05
6.85664e-09
5.34939e-05
6.5595e-09
5.20345e-05
6.2291e-09
5.06179e-05
5.86875e-09
4.92426e-05
5.47202e-09
4.79073e-05
5.04502e-09
4.66106e-05
4.5879e-09
4.53513e-05
4.09748e-09
4.41281e-05
3.5748e-09
4.29398e-05
3.02312e-09
4.17853e-05
2.43822e-09
4.06635e-05
1.82759e-09
3.95733e-05
1.18713e-09
3.85138e-05
5.24362e-10
3.74839e-05
-1.64529e-10
3.64828e-05
-8.77996e-10
3.55094e-05
-1.61124e-09
3.45628e-05
-2.37038e-09
3.36424e-05
-3.15236e-09
3.27471e-05
-3.95678e-09
3.18763e-05
-4.78256e-09
3.10292e-05
-5.62596e-09
3.02051e-05
-6.49454e-09
2.94031e-05
-7.38418e-09
2.86228e-05
-8.29581e-09
2.78634e-05
-9.22862e-09
2.71243e-05
-1.01832e-08
2.64049e-05
-1.11588e-08
2.57046e-05
-1.21566e-08
2.5023e-05
-1.3173e-08
2.43594e-05
-1.42154e-08
2.37134e-05
-1.52783e-08
2.30844e-05
-1.63671e-08
2.2472e-05
-1.74829e-08
2.18759e-05
-1.86259e-08
2.12954e-05
-1.98039e-08
2.07303e-05
-2.10142e-08
2.01802e-05
-2.22618e-08
1.96446e-05
-2.35479e-08
1.91233e-05
-2.48794e-08
1.86159e-05
-2.62478e-08
1.81221e-05
-2.76594e-08
1.76415e-05
-2.91137e-08
1.71739e-05
-3.06042e-08
1.67189e-05
-3.2133e-08
1.62763e-05
-3.36959e-08
1.58458e-05
-3.52879e-08
1.54271e-05
-3.69033e-08
1.50199e-05
-3.85385e-08
1.4624e-05
-4.01855e-08
1.4239e-05
-4.18379e-08
1.38647e-05
-4.34908e-08
1.35009e-05
-4.51341e-08
1.31472e-05
-4.67615e-08
1.28035e-05
-4.83624e-08
1.24694e-05
-4.99311e-08
1.21446e-05
-5.14556e-08
1.18291e-05
-5.293e-08
1.15223e-05
-5.43432e-08
1.12243e-05
-5.56867e-08
1.09345e-05
1.0653e-05
9.45444e-09
4.64154e-05
9.38379e-09
4.69559e-05
9.31963e-09
4.74979e-05
9.25913e-09
4.80413e-05
9.2007e-09
4.85857e-05
9.15502e-09
4.91308e-05
9.10958e-09
4.96763e-05
9.06712e-09
5.0222e-05
9.03059e-09
5.07673e-05
8.98984e-09
5.13121e-05
8.96039e-09
5.18558e-05
8.93203e-09
5.23981e-05
8.89971e-09
5.29385e-05
8.87328e-09
5.34766e-05
8.84748e-09
5.40118e-05
8.81688e-09
5.45436e-05
8.78858e-09
5.50715e-05
8.75446e-09
5.55948e-05
8.71879e-09
5.6113e-05
8.67997e-09
5.66253e-05
8.63039e-09
5.71311e-05
8.57522e-09
5.76296e-05
8.50849e-09
5.81199e-05
8.4305e-09
5.86013e-05
8.33886e-09
5.90728e-05
8.23108e-09
5.95334e-05
8.10385e-09
5.99821e-05
7.95406e-09
6.04179e-05
7.77592e-09
5.9791e-05
7.58015e-09
5.81446e-05
7.35671e-09
5.65474e-05
7.10596e-09
5.49979e-05
6.82439e-09
5.34942e-05
6.51492e-09
5.20348e-05
6.1763e-09
5.06182e-05
5.80396e-09
4.9243e-05
5.4031e-09
4.79077e-05
4.96998e-09
4.66111e-05
4.49892e-09
4.53518e-05
4.00021e-09
4.41286e-05
3.46898e-09
4.29403e-05
2.90655e-09
4.17858e-05
2.31636e-09
4.06641e-05
1.69617e-09
3.9574e-05
1.05e-09
3.85145e-05
3.81012e-10
3.74846e-05
-3.14553e-10
3.64835e-05
-1.03304e-09
3.55101e-05
-1.77366e-09
3.45636e-05
-2.53641e-09
3.36431e-05
-3.31566e-09
3.27479e-05
-4.11902e-09
3.18771e-05
-4.94252e-09
3.103e-05
-5.78678e-09
3.02059e-05
-6.64978e-09
2.9404e-05
-7.53544e-09
2.86237e-05
-8.43827e-09
2.78643e-05
-9.36369e-09
2.71252e-05
-1.03065e-08
2.64058e-05
-1.12676e-08
2.57056e-05
-1.22479e-08
2.5024e-05
-1.32505e-08
2.43604e-05
-1.42725e-08
2.37144e-05
-1.53173e-08
2.30854e-05
-1.63877e-08
2.24731e-05
-1.74805e-08
2.18769e-05
-1.86051e-08
2.12965e-05
-1.97574e-08
2.07315e-05
-2.09439e-08
2.01814e-05
-2.21692e-08
1.96458e-05
-2.3432e-08
1.91246e-05
-2.4733e-08
1.86172e-05
-2.60766e-08
1.81234e-05
-2.74606e-08
1.76429e-05
-2.88832e-08
1.71753e-05
-3.03456e-08
1.67204e-05
-3.18406e-08
1.62778e-05
-3.33694e-08
1.58474e-05
-3.49229e-08
1.54287e-05
-3.64995e-08
1.50215e-05
-3.80928e-08
1.46256e-05
-3.96985e-08
1.42406e-05
-4.13081e-08
1.38663e-05
-4.29125e-08
1.35025e-05
-4.45084e-08
1.31488e-05
-4.60857e-08
1.28051e-05
-4.76368e-08
1.24709e-05
-4.91513e-08
1.21462e-05
-5.06237e-08
1.18305e-05
-5.20446e-08
1.15238e-05
-5.34047e-08
1.12256e-05
-5.46952e-08
1.09358e-05
1.06542e-05
9.58075e-09
4.64155e-05
9.50444e-09
4.69559e-05
9.43365e-09
4.7498e-05
9.36903e-09
4.80413e-05
9.31083e-09
4.85857e-05
9.25438e-09
4.91308e-05
9.20207e-09
4.96764e-05
9.15943e-09
5.0222e-05
9.11639e-09
5.07674e-05
9.08026e-09
5.13121e-05
9.04369e-09
5.18559e-05
9.00648e-09
5.23981e-05
8.97821e-09
5.29385e-05
8.94863e-09
5.34766e-05
8.9125e-09
5.40118e-05
8.88183e-09
5.45436e-05
8.84786e-09
5.50715e-05
8.81041e-09
5.55948e-05
8.77013e-09
5.6113e-05
8.72431e-09
5.66254e-05
8.67109e-09
5.71311e-05
8.61108e-09
5.76296e-05
8.54057e-09
5.812e-05
8.45687e-09
5.86014e-05
8.36026e-09
5.90729e-05
8.24531e-09
5.95335e-05
8.11111e-09
5.99823e-05
7.94964e-09
6.0418e-05
7.7658e-09
5.97912e-05
7.55976e-09
5.81448e-05
7.32744e-09
5.65477e-05
7.06709e-09
5.49981e-05
6.78116e-09
5.34945e-05
6.46427e-09
5.20351e-05
6.11897e-09
5.06186e-05
5.73648e-09
4.92434e-05
5.32453e-09
4.79081e-05
4.88062e-09
4.66115e-05
4.40311e-09
4.53522e-05
3.89454e-09
4.41291e-05
3.35412e-09
4.29408e-05
2.78473e-09
4.17864e-05
2.1857e-09
4.06647e-05
1.5593e-09
3.95746e-05
9.10278e-10
3.85151e-05
2.31541e-10
3.74853e-05
-4.66013e-10
3.64842e-05
-1.18851e-09
3.55108e-05
-1.93065e-09
3.45643e-05
-2.69348e-09
3.36439e-05
-3.47728e-09
3.27487e-05
-4.27817e-09
3.18779e-05
-5.09689e-09
3.10309e-05
-5.93803e-09
3.02067e-05
-6.79548e-09
2.94049e-05
-7.67036e-09
2.86246e-05
-8.56518e-09
2.78652e-05
-9.4746e-09
2.71261e-05
-1.04026e-08
2.64068e-05
-1.13503e-08
2.57066e-05
-1.23127e-08
2.50249e-05
-1.32961e-08
2.43614e-05
-1.42991e-08
2.37154e-05
-1.53213e-08
2.30865e-05
-1.63653e-08
2.24741e-05
-1.74359e-08
2.1878e-05
-1.85335e-08
2.12976e-05
-1.9663e-08
2.07326e-05
-2.08237e-08
2.01825e-05
-2.20188e-08
1.9647e-05
-2.32527e-08
1.91258e-05
-2.45247e-08
1.86185e-05
-2.58378e-08
1.81247e-05
-2.71878e-08
1.76442e-05
-2.85775e-08
1.71767e-05
-3.00028e-08
1.67218e-05
-3.1463e-08
1.62793e-05
-3.29497e-08
1.58489e-05
-3.44645e-08
1.54302e-05
-3.60019e-08
1.5023e-05
-3.75516e-08
1.46271e-05
-3.91107e-08
1.42422e-05
-4.06708e-08
1.38679e-05
-4.22306e-08
1.35041e-05
-4.37753e-08
1.31504e-05
-4.53005e-08
1.28066e-05
-4.67986e-08
1.24724e-05
-4.82609e-08
1.21476e-05
-4.96798e-08
1.18319e-05
-5.10453e-08
1.15251e-05
-5.23523e-08
1.12269e-05
-5.35923e-08
1.09371e-05
1.06554e-05
9.69636e-09
4.64155e-05
9.61604e-09
4.6956e-05
9.54056e-09
4.74981e-05
9.47516e-09
4.80414e-05
9.41232e-09
4.85858e-05
9.35195e-09
4.91309e-05
9.29984e-09
4.96764e-05
9.24768e-09
5.02221e-05
9.20062e-09
5.07674e-05
9.16127e-09
5.13122e-05
9.119e-09
5.18559e-05
9.08369e-09
5.23982e-05
9.04476e-09
5.29386e-05
9.00695e-09
5.34766e-05
8.97454e-09
5.40118e-05
8.93639e-09
5.45437e-05
8.8969e-09
5.50715e-05
8.85745e-09
5.55949e-05
8.80984e-09
5.61131e-05
8.75915e-09
5.66254e-05
8.70187e-09
5.71312e-05
8.63629e-09
5.76297e-05
8.56212e-09
5.81201e-05
8.47059e-09
5.86015e-05
8.37008e-09
5.9073e-05
8.24867e-09
5.95337e-05
8.10304e-09
5.99824e-05
7.93758e-09
6.04182e-05
7.74957e-09
5.97914e-05
7.53317e-09
5.8145e-05
7.29271e-09
5.65479e-05
7.02627e-09
5.49984e-05
6.73185e-09
5.34948e-05
6.40384e-09
5.20355e-05
6.04525e-09
5.06189e-05
5.66087e-09
4.92438e-05
5.23824e-09
4.79086e-05
4.78513e-09
4.6612e-05
4.30144e-09
4.53527e-05
3.78203e-09
4.41296e-05
3.23537e-09
4.29414e-05
2.65872e-09
4.1787e-05
2.05383e-09
4.06653e-05
1.42195e-09
3.95752e-05
7.61211e-10
3.85158e-05
8.27016e-11
3.7486e-05
-6.21514e-10
3.64849e-05
-1.34413e-09
3.55115e-05
-2.08747e-09
3.45651e-05
-2.8505e-09
3.36447e-05
-3.62892e-09
3.27495e-05
-4.42853e-09
3.18787e-05
-5.24507e-09
3.10317e-05
-6.07451e-09
3.02076e-05
-6.92461e-09
2.94057e-05
-7.7881e-09
2.86254e-05
-8.66737e-09
2.78661e-05
-9.56364e-09
2.7127e-05
-1.04763e-08
2.64077e-05
-1.14035e-08
2.57075e-05
-1.23498e-08
2.50259e-05
-1.33075e-08
2.43623e-05
-1.42852e-08
2.37164e-05
-1.52822e-08
2.30875e-05
-1.63018e-08
2.24752e-05
-1.73456e-08
2.18791e-05
-1.84143e-08
2.12987e-05
-1.9513e-08
2.07337e-05
-2.06423e-08
2.01836e-05
-2.18085e-08
1.96482e-05
-2.30103e-08
1.9127e-05
-2.42483e-08
1.86197e-05
-2.55252e-08
1.8126e-05
-2.68404e-08
1.76456e-05
-2.8193e-08
1.71781e-05
-2.95792e-08
1.67232e-05
-3.09969e-08
1.62807e-05
-3.2446e-08
1.58503e-05
-3.39161e-08
1.54317e-05
-3.54042e-08
1.50245e-05
-3.69094e-08
1.46286e-05
-3.84197e-08
1.42437e-05
-3.99321e-08
1.38694e-05
-4.14376e-08
1.35056e-05
-4.29309e-08
1.31519e-05
-4.44024e-08
1.2808e-05
-4.58465e-08
1.24739e-05
-4.72546e-08
1.2149e-05
-4.86199e-08
1.18333e-05
-4.99339e-08
1.15264e-05
-5.11894e-08
1.12282e-05
-5.23778e-08
1.09383e-05
1.06565e-05
9.80155e-09
4.64156e-05
9.72028e-09
4.69561e-05
9.639e-09
4.74981e-05
9.56628e-09
4.80415e-05
9.49942e-09
4.85858e-05
9.43815e-09
4.91309e-05
9.38006e-09
4.96765e-05
9.3299e-09
5.02221e-05
9.27715e-09
5.07675e-05
9.23184e-09
5.13122e-05
9.18584e-09
5.18559e-05
9.14105e-09
5.23982e-05
9.10213e-09
5.29386e-05
9.06294e-09
5.34767e-05
9.02256e-09
5.40119e-05
8.98306e-09
5.45437e-05
8.94074e-09
5.50716e-05
8.89134e-09
5.55949e-05
8.8435e-09
5.61131e-05
8.78876e-09
5.66255e-05
8.72684e-09
5.71313e-05
8.65616e-09
5.76298e-05
8.5699e-09
5.81202e-05
8.47668e-09
5.86016e-05
8.36673e-09
5.90731e-05
8.23694e-09
5.95338e-05
8.08995e-09
5.99826e-05
7.91734e-09
6.04184e-05
7.71735e-09
5.97916e-05
7.49448e-09
5.81452e-05
7.24618e-09
5.65482e-05
6.97047e-09
5.49987e-05
6.66337e-09
5.34951e-05
6.33119e-09
5.20358e-05
5.96653e-09
5.06193e-05
5.56648e-09
4.92442e-05
5.14195e-09
4.7909e-05
4.67698e-09
4.66124e-05
4.18531e-09
4.53532e-05
3.66148e-09
4.41301e-05
3.10634e-09
4.29419e-05
2.52298e-09
4.17876e-05
1.91272e-09
4.06659e-05
1.27702e-09
3.95759e-05
6.15921e-10
3.85164e-05
-6.92224e-11
3.74867e-05
-7.70877e-10
3.64856e-05
-1.49702e-09
3.55122e-05
-2.2407e-09
3.45658e-05
-2.99744e-09
3.36454e-05
-3.77674e-09
3.27503e-05
-4.5671e-09
3.18795e-05
-5.37494e-09
3.10325e-05
-6.19944e-09
3.02084e-05
-7.03462e-09
2.94065e-05
-7.88517e-09
2.86263e-05
-8.75035e-09
2.78669e-05
-9.62956e-09
2.71279e-05
-1.05212e-08
2.64086e-05
-1.14262e-08
2.57084e-05
-1.2345e-08
2.50268e-05
-1.32826e-08
2.43633e-05
-1.42322e-08
2.37173e-05
-1.52027e-08
2.30884e-05
-1.61928e-08
2.24762e-05
-1.7203e-08
2.18801e-05
-1.82402e-08
2.12997e-05
-1.93064e-08
2.07348e-05
-2.0404e-08
2.01847e-05
-2.15319e-08
1.96493e-05
-2.26961e-08
1.91282e-05
-2.38985e-08
1.86209e-05
-2.51378e-08
1.81272e-05
-2.64142e-08
1.76468e-05
-2.77233e-08
1.71794e-05
-2.90654e-08
1.67246e-05
-3.04409e-08
1.62821e-05
-3.18417e-08
1.58517e-05
-3.32669e-08
1.54331e-05
-3.47068e-08
1.5026e-05
-3.61595e-08
1.46301e-05
-3.76184e-08
1.42451e-05
-3.90779e-08
1.38709e-05
-4.05307e-08
1.3507e-05
-4.1969e-08
1.31533e-05
-4.33878e-08
1.28095e-05
-4.47787e-08
1.24752e-05
-4.61318e-08
1.21504e-05
-4.74427e-08
1.18346e-05
-4.87048e-08
1.15277e-05
-4.99084e-08
1.12294e-05
-5.10519e-08
1.09394e-05
1.06575e-05
9.90198e-09
4.64157e-05
9.81186e-09
4.69562e-05
9.73027e-09
4.74982e-05
9.65203e-09
4.80415e-05
9.58204e-09
4.85859e-05
9.5178e-09
4.9131e-05
9.45584e-09
4.96765e-05
9.394e-09
5.02222e-05
9.34401e-09
5.07675e-05
9.29017e-09
5.13123e-05
9.24463e-09
5.1856e-05
9.20141e-09
5.23983e-05
9.15495e-09
5.29387e-05
9.11146e-09
5.34767e-05
9.06526e-09
5.40119e-05
9.01748e-09
5.45437e-05
8.96909e-09
5.50716e-05
8.92117e-09
5.5595e-05
8.86719e-09
5.61132e-05
8.80278e-09
5.66255e-05
8.73546e-09
5.71313e-05
8.65616e-09
5.76298e-05
8.57095e-09
5.81202e-05
8.4728e-09
5.86017e-05
8.35164e-09
5.90732e-05
8.21961e-09
5.95339e-05
8.06384e-09
5.99827e-05
7.88199e-09
6.04185e-05
7.67477e-09
5.97918e-05
7.44436e-09
5.81454e-05
7.18834e-09
5.65484e-05
6.90415e-09
5.49989e-05
6.59182e-09
5.34954e-05
6.24777e-09
5.20361e-05
5.87412e-09
5.06197e-05
5.4716e-09
4.92446e-05
5.03196e-09
4.79094e-05
4.56404e-09
4.66129e-05
4.06428e-09
4.53537e-05
3.53319e-09
4.41306e-05
2.97491e-09
4.29425e-05
2.38501e-09
4.17882e-05
1.77034e-09
4.06665e-05
1.12892e-09
3.95765e-05
4.67677e-10
3.85171e-05
-2.18879e-10
3.74873e-05
-9.25631e-10
3.64863e-05
-1.64733e-09
3.5513e-05
-2.38483e-09
3.45666e-05
-3.14213e-09
3.36462e-05
-3.91295e-09
3.2751e-05
-4.69653e-09
3.18803e-05
-5.4938e-09
3.10333e-05
-6.30375e-09
3.02092e-05
-7.12631e-09
2.94074e-05
-7.96358e-09
2.86271e-05
-8.8074e-09
2.78678e-05
-9.66383e-09
2.71288e-05
-1.0534e-08
2.64094e-05
-1.14135e-08
2.57093e-05
-1.23086e-08
2.50277e-05
-1.32124e-08
2.43642e-05
-1.41351e-08
2.37182e-05
-1.50723e-08
2.30894e-05
-1.60274e-08
2.24771e-05
-1.70059e-08
2.1881e-05
-1.80096e-08
2.13007e-05
-1.90368e-08
2.07358e-05
-2.00957e-08
2.01858e-05
-2.11853e-08
1.96504e-05
-2.23099e-08
1.91293e-05
-2.34705e-08
1.86221e-05
-2.46668e-08
1.81284e-05
-2.58965e-08
1.76481e-05
-2.71621e-08
1.71806e-05
-2.84608e-08
1.67258e-05
-2.97869e-08
1.62834e-05
-3.11361e-08
1.58531e-05
-3.2509e-08
1.54345e-05
-3.39002e-08
1.50274e-05
-3.52985e-08
1.46315e-05
-3.67055e-08
1.42466e-05
-3.81103e-08
1.38723e-05
-3.95076e-08
1.35084e-05
-4.089e-08
1.31547e-05
-4.22536e-08
1.28108e-05
-4.35862e-08
1.24766e-05
-4.48889e-08
1.21517e-05
-4.61471e-08
1.18359e-05
-4.73584e-08
1.15289e-05
-4.85147e-08
1.12305e-05
-4.96107e-08
1.09405e-05
1.06586e-05
9.98591e-09
4.64158e-05
9.89344e-09
4.69563e-05
9.81182e-09
4.74983e-05
9.72985e-09
4.80416e-05
9.65304e-09
4.8586e-05
9.58333e-09
4.91311e-05
9.51778e-09
4.96766e-05
9.4582e-09
5.02222e-05
9.39922e-09
5.07676e-05
9.34463e-09
5.13123e-05
9.29137e-09
5.1856e-05
9.23842e-09
5.23983e-05
9.1896e-09
5.29387e-05
9.13914e-09
5.34768e-05
9.09293e-09
5.4012e-05
9.04415e-09
5.45438e-05
8.99202e-09
5.50717e-05
8.93445e-09
5.5595e-05
8.87202e-09
5.61132e-05
8.80948e-09
5.66256e-05
8.73309e-09
5.71314e-05
8.65396e-09
5.76299e-05
8.55786e-09
5.81203e-05
8.45075e-09
5.86018e-05
8.32969e-09
5.90733e-05
8.18772e-09
5.95341e-05
8.02566e-09
5.99829e-05
7.83204e-09
6.04187e-05
7.6194e-09
5.9792e-05
7.382e-09
5.81457e-05
7.11513e-09
5.65487e-05
6.82472e-09
5.49992e-05
6.50628e-09
5.34957e-05
6.15563e-09
5.20365e-05
5.77162e-09
5.06201e-05
5.36059e-09
4.9245e-05
4.91745e-09
4.79099e-05
4.44222e-09
4.66134e-05
3.93437e-09
4.53542e-05
3.40001e-09
4.41312e-05
2.83211e-09
4.29431e-05
2.2396e-09
4.17887e-05
1.61983e-09
4.06671e-05
9.79735e-10
3.95771e-05
3.13542e-10
3.85178e-05
-3.69647e-10
3.7488e-05
-1.07223e-09
3.6487e-05
-1.79076e-09
3.55137e-05
-2.52765e-09
3.45673e-05
-3.27636e-09
3.36469e-05
-4.03598e-09
3.27518e-05
-4.81272e-09
3.18811e-05
-5.59702e-09
3.10341e-05
-6.3917e-09
3.021e-05
-7.19785e-09
2.94082e-05
-8.01186e-09
2.86279e-05
-8.83641e-09
2.78686e-05
-9.66975e-09
2.71296e-05
-1.05119e-08
2.64103e-05
-1.13662e-08
2.57101e-05
-1.22253e-08
2.50286e-05
-1.31009e-08
2.43651e-05
-1.3987e-08
2.37191e-05
-1.48883e-08
2.30903e-05
-1.58085e-08
2.2478e-05
-1.67499e-08
2.1882e-05
-1.77104e-08
2.13017e-05
-1.86989e-08
2.07368e-05
-1.9716e-08
2.01868e-05
-2.07666e-08
1.96515e-05
-2.18466e-08
1.91304e-05
-2.2961e-08
1.86232e-05
-2.41086e-08
1.81296e-05
-2.52925e-08
1.76492e-05
-2.65082e-08
1.71818e-05
-2.77535e-08
1.67271e-05
-2.90277e-08
1.62847e-05
-3.03283e-08
1.58544e-05
-3.16467e-08
1.54358e-05
-3.29787e-08
1.50287e-05
-3.43254e-08
1.46328e-05
-3.56729e-08
1.42479e-05
-3.70213e-08
1.38736e-05
-3.83613e-08
1.35098e-05
-3.96886e-08
1.3156e-05
-4.09948e-08
1.28121e-05
-4.22756e-08
1.24779e-05
-4.35215e-08
1.21529e-05
-4.47283e-08
1.18371e-05
-4.58906e-08
1.15301e-05
-4.70021e-08
1.12317e-05
-4.80582e-08
1.09416e-05
1.06596e-05
1.0058e-08
4.64159e-05
9.964e-09
4.69564e-05
9.87691e-09
4.74984e-05
9.79382e-09
4.80417e-05
9.7139e-09
4.85861e-05
9.63968e-09
4.91312e-05
9.57018e-09
4.96767e-05
9.50436e-09
5.02223e-05
9.44185e-09
5.07676e-05
9.38386e-09
5.13124e-05
9.32691e-09
5.18561e-05
9.27245e-09
5.23984e-05
9.21922e-09
5.29388e-05
9.16527e-09
5.34768e-05
9.10956e-09
5.4012e-05
9.05544e-09
5.45438e-05
8.99846e-09
5.50717e-05
8.93883e-09
5.55951e-05
8.87226e-09
5.61133e-05
8.80087e-09
5.66257e-05
8.72255e-09
5.71315e-05
8.63379e-09
5.763e-05
8.53452e-09
5.81204e-05
8.41873e-09
5.86019e-05
8.29147e-09
5.90735e-05
8.14022e-09
5.95342e-05
7.96922e-09
5.99831e-05
7.7774e-09
6.04189e-05
7.55343e-09
5.97922e-05
7.30852e-09
5.81459e-05
7.03548e-09
5.65489e-05
6.7341e-09
5.49995e-05
6.4037e-09
5.3496e-05
6.04817e-09
5.20368e-05
5.6616e-09
5.06204e-05
5.24071e-09
4.92454e-05
4.7884e-09
4.79103e-05
4.30785e-09
4.66138e-05
3.79527e-09
4.53547e-05
3.2563e-09
4.41317e-05
2.68617e-09
4.29436e-05
2.08907e-09
4.17893e-05
1.47033e-09
4.06677e-05
8.27487e-10
3.95778e-05
1.64127e-10
3.85184e-05
-5.18399e-10
3.74887e-05
-1.21835e-09
3.64877e-05
-1.93274e-09
3.55144e-05
-2.66044e-09
3.4568e-05
-3.40004e-09
3.36477e-05
-4.15075e-09
3.27525e-05
-4.91012e-09
3.18819e-05
-5.6808e-09
3.10348e-05
-6.45705e-09
3.02108e-05
-7.2418e-09
2.9409e-05
-8.03282e-09
2.86287e-05
-8.83351e-09
2.78694e-05
-9.64025e-09
2.71304e-05
-1.04517e-08
2.64111e-05
-1.12717e-08
2.57109e-05
-1.21023e-08
2.50294e-05
-1.29401e-08
2.43659e-05
-1.37883e-08
2.372e-05
-1.4652e-08
2.30911e-05
-1.55319e-08
2.24789e-05
-1.64263e-08
2.18829e-05
-1.73469e-08
2.13026e-05
-1.82915e-08
2.07377e-05
-1.92617e-08
2.01878e-05
-2.02621e-08
1.96525e-05
-2.12959e-08
1.91314e-05
-2.23598e-08
1.86243e-05
-2.34593e-08
1.81307e-05
-2.45908e-08
1.76504e-05
-2.57515e-08
1.7183e-05
-2.69461e-08
1.67283e-05
-2.81618e-08
1.62859e-05
-2.94042e-08
1.58556e-05
-3.06649e-08
1.5437e-05
-3.19429e-08
1.503e-05
-3.32277e-08
1.46341e-05
-3.45184e-08
1.42492e-05
-3.58067e-08
1.38749e-05
-3.70886e-08
1.3511e-05
-3.83591e-08
1.31573e-05
-3.96078e-08
1.28134e-05
-4.08346e-08
1.24791e-05
-4.20282e-08
1.21541e-05
-4.31873e-08
1.18382e-05
-4.43022e-08
1.15312e-05
-4.53722e-08
1.12327e-05
-4.63885e-08
1.09426e-05
1.06605e-05
1.01222e-08
4.6416e-05
1.00253e-08
4.69565e-05
9.92801e-09
4.74985e-05
9.84297e-09
4.80418e-05
9.76151e-09
4.85861e-05
9.68263e-09
4.91312e-05
9.6087e-09
4.96767e-05
9.54089e-09
5.02224e-05
9.47528e-09
5.07677e-05
9.41132e-09
5.13124e-05
9.34707e-09
5.18562e-05
9.29144e-09
5.23984e-05
9.23242e-09
5.29388e-05
9.17452e-09
5.34769e-05
9.11711e-09
5.40121e-05
9.05633e-09
5.45439e-05
8.99274e-09
5.50718e-05
8.92857e-09
5.55952e-05
8.85901e-09
5.61134e-05
8.77949e-09
5.66257e-05
8.6958e-09
5.71316e-05
8.59872e-09
5.76301e-05
8.49352e-09
5.81205e-05
8.37452e-09
5.8602e-05
8.23734e-09
5.90736e-05
8.0847e-09
5.95344e-05
7.90478e-09
5.99832e-05
7.69943e-09
6.04191e-05
7.4724e-09
5.97924e-05
7.21433e-09
5.81462e-05
6.93711e-09
5.65492e-05
6.62914e-09
5.49998e-05
6.29629e-09
5.34964e-05
5.93012e-09
5.20372e-05
5.5345e-09
5.06208e-05
5.10791e-09
4.92458e-05
4.65134e-09
4.79108e-05
4.164e-09
4.66143e-05
3.65117e-09
4.53552e-05
3.10386e-09
4.41323e-05
2.53332e-09
4.29442e-05
1.9374e-09
4.17899e-05
1.31669e-09
4.06684e-05
6.72536e-10
3.95784e-05
1.41267e-11
3.85191e-05
-6.66412e-10
3.74894e-05
-1.35842e-09
3.64884e-05
-2.06442e-09
3.55151e-05
-2.78111e-09
3.45687e-05
-3.5094e-09
3.36484e-05
-4.24681e-09
3.27533e-05
-4.99041e-09
3.18826e-05
-5.74127e-09
3.10356e-05
-6.49927e-09
3.02115e-05
-7.26026e-09
2.94097e-05
-8.02738e-09
2.86295e-05
-8.79737e-09
2.78702e-05
-9.57052e-09
2.71312e-05
-1.0352e-08
2.64119e-05
-1.11356e-08
2.57117e-05
-1.19261e-08
2.50302e-05
-1.27246e-08
2.43667e-05
-1.35333e-08
2.37208e-05
-1.43528e-08
2.30919e-05
-1.51857e-08
2.24797e-05
-1.60392e-08
2.18837e-05
-1.69117e-08
2.13035e-05
-1.78063e-08
2.07386e-05
-1.87282e-08
2.01887e-05
-1.96783e-08
1.96534e-05
-2.06569e-08
1.91324e-05
-2.16693e-08
1.86253e-05
-2.27126e-08
1.81317e-05
-2.37849e-08
1.76514e-05
-2.4892e-08
1.71841e-05
-2.60243e-08
1.67294e-05
-2.7185e-08
1.62871e-05
-2.83674e-08
1.58568e-05
-2.95675e-08
1.54382e-05
-3.07819e-08
1.50312e-05
-3.20066e-08
1.46353e-05
-3.32365e-08
1.42504e-05
-3.44659e-08
1.38762e-05
-3.56901e-08
1.35123e-05
-3.68993e-08
1.31585e-05
-3.80939e-08
1.28146e-05
-3.92642e-08
1.24803e-05
-4.04071e-08
1.21553e-05
-4.15182e-08
1.18394e-05
-4.25908e-08
1.15323e-05
-4.36202e-08
1.12338e-05
-4.46028e-08
1.09436e-05
1.06615e-05
1.01658e-08
4.64161e-05
1.00672e-08
4.69566e-05
9.97298e-09
4.74986e-05
9.88004e-09
4.80419e-05
9.7953e-09
4.85862e-05
9.71277e-09
4.91313e-05
9.63598e-09
4.96768e-05
9.56433e-09
5.02224e-05
9.49337e-09
5.07678e-05
9.42444e-09
5.13125e-05
9.36108e-09
5.18562e-05
9.29645e-09
5.23985e-05
9.23396e-09
5.29389e-05
9.17129e-09
5.34769e-05
9.10676e-09
5.40121e-05
9.04309e-09
5.4544e-05
8.9748e-09
5.50719e-05
8.90065e-09
5.55952e-05
8.82626e-09
5.61134e-05
8.74217e-09
5.66258e-05
8.65459e-09
5.71317e-05
8.55285e-09
5.76302e-05
8.44057e-09
5.81207e-05
8.31549e-09
5.86021e-05
8.1719e-09
5.90738e-05
8.00704e-09
5.95345e-05
7.82473e-09
5.99834e-05
7.61224e-09
6.04193e-05
7.37373e-09
5.97927e-05
7.1168e-09
5.81464e-05
6.82726e-09
5.65495e-05
6.5144e-09
5.50002e-05
6.16938e-09
5.34967e-05
5.7979e-09
5.20376e-05
5.39744e-09
5.06212e-05
4.96488e-09
4.92463e-05
4.5064e-09
4.79112e-05
4.01543e-09
4.66148e-05
3.49342e-09
4.53558e-05
2.94802e-09
4.41328e-05
2.3762e-09
4.29448e-05
1.77833e-09
4.17905e-05
1.15928e-09
4.0669e-05
5.206e-10
3.95791e-05
-1.3659e-10
3.85197e-05
-8.07046e-10
3.74901e-05
-1.49312e-09
3.6489e-05
-2.18985e-09
3.55158e-05
-2.89421e-09
3.45694e-05
-3.60735e-09
3.36491e-05
-4.32791e-09
3.2754e-05
-5.05361e-09
3.18833e-05
-5.78084e-09
3.10363e-05
-6.51355e-09
3.02123e-05
-7.24676e-09
2.94105e-05
-7.98394e-09
2.86302e-05
-8.72322e-09
2.78709e-05
-9.46349e-09
2.71319e-05
-1.02052e-08
2.64126e-05
-1.09494e-08
2.57125e-05
-1.16987e-08
2.50309e-05
-1.24537e-08
2.43674e-05
-1.32163e-08
2.37215e-05
-1.39891e-08
2.30927e-05
-1.47749e-08
2.24805e-05
-1.55768e-08
2.18845e-05
-1.63964e-08
2.13043e-05
-1.72394e-08
2.07395e-05
-1.81057e-08
2.01896e-05
-1.89992e-08
1.96543e-05
-1.99234e-08
1.91333e-05
-2.08772e-08
1.86262e-05
-2.18602e-08
1.81327e-05
-2.28773e-08
1.76525e-05
-2.39187e-08
1.71852e-05
-2.499e-08
1.67305e-05
-2.6088e-08
1.62882e-05
-2.72057e-08
1.58579e-05
-2.83443e-08
1.54394e-05
-2.94968e-08
1.50323e-05
-3.06574e-08
1.46365e-05
-3.18246e-08
1.42516e-05
-3.29923e-08
1.38773e-05
-3.41537e-08
1.35134e-05
-3.53083e-08
1.31596e-05
-3.64459e-08
1.28157e-05
-3.75636e-08
1.24814e-05
-3.86573e-08
1.21564e-05
-3.97225e-08
1.18404e-05
-4.07529e-08
1.15333e-05
-4.17479e-08
1.12347e-05
-4.27013e-08
1.09445e-05
1.06624e-05
1.01987e-08
4.64162e-05
1.00907e-08
4.69567e-05
9.99402e-09
4.74987e-05
9.90262e-09
4.8042e-05
9.81009e-09
4.85863e-05
9.72824e-09
4.91314e-05
9.64772e-09
4.96769e-05
9.56711e-09
5.02225e-05
9.49545e-09
5.07679e-05
9.423e-09
5.13126e-05
9.35549e-09
5.18563e-05
9.28593e-09
5.23986e-05
9.21985e-09
5.2939e-05
9.15248e-09
5.3477e-05
9.08164e-09
5.40122e-05
9.01214e-09
5.4544e-05
8.93899e-09
5.50719e-05
8.86593e-09
5.55953e-05
8.78128e-09
5.61135e-05
8.69566e-09
5.66259e-05
8.59618e-09
5.71318e-05
8.49077e-09
5.76303e-05
8.37298e-09
5.81208e-05
8.23692e-09
5.86023e-05
8.08852e-09
5.90739e-05
7.91889e-09
5.95347e-05
7.72667e-09
5.99836e-05
7.51064e-09
6.04196e-05
7.26622e-09
5.97929e-05
6.99551e-09
5.81467e-05
6.70302e-09
5.65498e-05
6.38144e-09
5.50005e-05
6.03394e-09
5.34971e-05
5.65513e-09
5.2038e-05
5.24992e-09
5.06216e-05
4.81333e-09
4.92467e-05
4.34664e-09
4.79117e-05
3.85237e-09
4.66153e-05
3.33419e-09
4.53563e-05
2.78406e-09
4.41334e-05
2.212e-09
4.29453e-05
1.61853e-09
4.17911e-05
1.00108e-09
4.06696e-05
3.68082e-10
3.95797e-05
-2.82754e-10
3.85204e-05
-9.46418e-10
3.74907e-05
-1.61975e-09
3.64897e-05
-2.30303e-09
3.55165e-05
-2.99584e-09
3.45701e-05
-3.69152e-09
3.36498e-05
-4.38929e-09
3.27547e-05
-5.09218e-09
3.1884e-05
-5.7958e-09
3.1037e-05
-6.49863e-09
3.0213e-05
-7.20531e-09
2.94112e-05
-7.90619e-09
2.86309e-05
-8.60767e-09
2.78716e-05
-9.30924e-09
2.71326e-05
-1.00098e-08
2.64133e-05
-1.07139e-08
2.57132e-05
-1.1418e-08
2.50316e-05
-1.21232e-08
2.43682e-05
-1.28358e-08
2.37223e-05
-1.35564e-08
2.30934e-05
-1.42894e-08
2.24813e-05
-1.50361e-08
2.18853e-05
-1.58014e-08
2.13051e-05
-1.65856e-08
2.07402e-05
-1.73959e-08
2.01904e-05
-1.82293e-08
1.96552e-05
-1.90915e-08
1.91342e-05
-1.99817e-08
1.86271e-05
-2.09023e-08
1.81336e-05
-2.18524e-08
1.76534e-05
-2.28334e-08
1.71861e-05
-2.38382e-08
1.67315e-05
-2.48675e-08
1.62892e-05
-2.59205e-08
1.58589e-05
-2.69926e-08
1.54405e-05
-2.80785e-08
1.50334e-05
-2.91751e-08
1.46376e-05
-3.02779e-08
1.42527e-05
-3.13836e-08
1.38784e-05
-3.24846e-08
1.35145e-05
-3.35788e-08
1.31607e-05
-3.46622e-08
1.28168e-05
-3.57293e-08
1.24824e-05
-3.67755e-08
1.21574e-05
-3.77965e-08
1.18414e-05
-3.87918e-08
1.15343e-05
-3.97531e-08
1.12357e-05
-4.06813e-08
1.09454e-05
1.06633e-05
1.02092e-08
4.64163e-05
1.01051e-08
4.69568e-05
1.00027e-08
4.74988e-05
9.9057e-09
4.80421e-05
9.81584e-09
4.85864e-05
9.72329e-09
4.91315e-05
9.64232e-09
4.9677e-05
9.56062e-09
5.02226e-05
9.47893e-09
5.07679e-05
9.40521e-09
5.13127e-05
9.33264e-09
5.18564e-05
9.25866e-09
5.23986e-05
9.18639e-09
5.2939e-05
9.11498e-09
5.34771e-05
9.04506e-09
5.40123e-05
8.96599e-09
5.45441e-05
8.88969e-09
5.5072e-05
8.80575e-09
5.55954e-05
8.72012e-09
5.61136e-05
8.62483e-09
5.6626e-05
8.52324e-09
5.71319e-05
8.41064e-09
5.76304e-05
8.28366e-09
5.81209e-05
8.1466e-09
5.86024e-05
7.98962e-09
5.90741e-05
7.81432e-09
5.95349e-05
7.61708e-09
5.99838e-05
7.38988e-09
6.04198e-05
7.13901e-09
5.97932e-05
6.86343e-09
5.8147e-05
6.5617e-09
5.65501e-05
6.23603e-09
5.50008e-05
5.87936e-09
5.34974e-05
5.49908e-09
5.20383e-05
5.08634e-09
5.06221e-05
4.64754e-09
4.92471e-05
4.18047e-09
4.79122e-05
3.68463e-09
4.66158e-05
3.16107e-09
4.53568e-05
2.61532e-09
4.41339e-05
2.04383e-09
4.29459e-05
1.45272e-09
4.17917e-05
8.42801e-10
4.06702e-05
2.13718e-10
3.95803e-05
-4.26098e-10
3.8521e-05
-1.0773e-09
3.74914e-05
-1.73862e-09
3.64904e-05
-2.40568e-09