/*--------------------------------*- C++ -*----------------------------------*\
  =========                 |
  \\      /  F ield         | OpenFOAM: The Open Source CFD Toolbox
   \\    /   O peration     | Website:  https://openfoam.org
    \\  /    A nd           | Version:  10
     \\/     M anipulation  |
\*---------------------------------------------------------------------------*/
FoamFile
{
    format      ascii;
    class       volScalarField;
    location    "45000";
    object      yPlus;
}
// * * * * * * * * * * * * * * * * * * * * * * * * * * * * * * * * * * * * * //

dimensions      [0 0 0 0 0 0 0];

internalField   uniform 0;

boundaryField
{
    right
    {
        type            cyclic;
    }
    left
    {
        type            cyclic;
    }
    outerWall
    {
        type            calculated;
        value           nonuniform List<scalar> 0();
    }
    stirrerWall
    {
        type            calculated;
        value           nonuniform List<scalar> 
98
(
1.94489
1.842
1.74938
1.66714
1.5952
1.53345
1.4819
1.44072
1.41035
1.39224
1.41621
1.4739
1.55323
1.65939
1.79747
1.97672
2.25455
2.80143
4.698
10.2697
16.9973
11.1423
10.44
11.2847
11.6749
11.5695
11.601
11.4461
11.2892
11.4482
11.2018
10.9956
10.8252
10.7013
10.6182
10.5688
10.5484
10.5554
10.5883
10.6463
10.7287
10.8352
10.9655
11.1198
11.2952
11.4867
11.5436
10.6178
11.3051
11.5524
11.6717
10.689
11.2572
11.2738
11.2437
11.4887
10.6317
10.4316
10.4008
10.3713
18.1951
18.4227
18.6538
18.8892
19.1289
19.3734
19.6231
19.8784
20.1395
20.407
20.6812
20.9628
21.2527
21.551
21.8578
22.1749
22.5047
22.8478
23.2041
23.5759
23.9687
24.3736
24.8011
25.2413
25.7237
26.2312
26.7788
27.3796
28.0258
28.6959
29.3941
30.1733
31.0852
32.166
33.4209
34.699
36.1226
37.9909
)
;
    }
    top
    {
        type            empty;
    }
    bottom
    {
        type            empty;
    }
    procBoundary0to1
    {
        type            processor;
        value           uniform 0;
    }
    procBoundary0to3
    {
        type            processor;
        value           uniform 0;
    }
}


// ************************************************************************* //
