/*--------------------------------*- C++ -*----------------------------------*\
  =========                 |
  \\      /  F ield         | OpenFOAM: The Open Source CFD Toolbox
   \\    /   O peration     | Website:  https://openfoam.org
    \\  /    A nd           | Version:  10
     \\/     M anipulation  |
\*---------------------------------------------------------------------------*/
FoamFile
{
    format      ascii;
    class       volScalarField;
    location    "6000";
    object      nut;
}
// * * * * * * * * * * * * * * * * * * * * * * * * * * * * * * * * * * * * * //

dimensions      [0 2 -1 0 0 0 0];

internalField   nonuniform List<scalar> 
17981
(
7.1576e-05
7.40176e-05
7.65007e-05
7.89904e-05
8.14493e-05
8.38521e-05
8.61853e-05
8.84442e-05
9.063e-05
9.27477e-05
9.48044e-05
9.68073e-05
9.87632e-05
0.000100678
0.000102555
0.000104396
0.000106207
0.000107992
0.000109756
0.0001115
0.000113228
0.00011494
0.000116637
0.000118322
0.000119996
0.00012166
0.000123316
0.000124964
0.000126605
0.000128242
0.000129875
0.000131506
0.000133134
0.000134762
0.00013639
0.000138018
0.000139649
0.000141283
0.00014292
0.000144561
0.000146207
0.000147859
0.000149518
0.000151183
0.000152856
0.000154537
0.000156228
0.000157928
8.04285e-05
8.28703e-05
8.52464e-05
8.75431e-05
8.9753e-05
9.18754e-05
9.39145e-05
9.58774e-05
9.77725e-05
9.96085e-05
0.000101394
0.000103135
0.000104838
0.000106506
0.000108145
0.000109761
0.000111357
0.000112937
0.000114503
0.000116056
0.000117598
0.000119132
0.000120658
0.000122177
0.000123692
0.000125204
0.000126713
0.000128221
0.000129728
0.000131237
0.000132749
0.000134263
0.000135781
0.000137304
0.000138833
0.000140368
0.00014191
0.000143461
0.00014502
0.000146589
0.000148168
0.000149757
0.000151357
0.000152969
0.000154594
0.000156231
0.000157881
0.000159545
8.88623e-05
9.10855e-05
9.32021e-05
9.52164e-05
9.71365e-05
9.89715e-05
0.000100732
0.000102428
0.000104069
0.000105663
0.000107217
0.000108735
0.000110225
0.000111693
0.000113142
0.000114575
0.000115995
0.000117405
0.000118805
0.000120197
0.000121584
0.000122967
0.000124347
0.000125726
0.000127105
0.000128485
0.000129868
0.000131255
0.000132646
0.000134043
0.000135447
0.000136859
0.000138279
0.000139708
0.000141148
0.000142599
0.000144061
0.000145536
0.000147024
0.000148526
0.000150041
0.000151571
0.000153116
0.000154677
0.000156254
0.000157847
0.000159457
0.000161084
0.000103379
0.000104974
0.000106509
0.000107994
0.000109435
0.00011084
0.000112216
0.00011357
0.000114904
0.000116222
0.000117526
0.000118819
0.000120102
0.000121378
0.000122648
0.000123914
0.000125178
0.000126441
0.000127704
0.000128969
0.000130238
0.000131511
0.00013279
0.000134077
0.000135372
0.000136676
0.000137991
0.000139317
0.000140655
0.000142007
0.000143373
0.000144753
0.00014615
0.000147562
0.000148991
0.000150437
0.000151901
0.000153383
0.000154884
0.000156404
0.000157944
0.000159503
0.000161083
0.000162682
0.000108464
0.000109874
0.000111239
0.000112568
0.000113868
0.000115145
0.000116401
0.00011764
0.000118864
0.000120075
0.000121276
0.000122468
0.000123653
0.000124833
0.000126009
0.000127182
0.000128355
0.000129529
0.000130706
0.000131886
0.000133071
0.000134263
0.000135463
0.000136672
0.000137892
0.000139123
0.000140367
0.000141624
0.000142897
0.000144185
0.00014549
0.000146812
0.000148153
0.000149513
0.000150892
0.000152291
0.000153712
0.000155153
0.000156617
0.000158102
0.00015961
0.00016114
0.000162693
0.000153402
0.000112368
0.00011365
0.000114905
0.000116136
0.000117347
0.00011854
0.000119717
0.000120881
0.000122032
0.000123174
0.000124307
0.000125432
0.000126552
0.000127668
0.000128781
0.000129892
0.000131004
0.000132118
0.000133235
0.000134356
0.000135484
0.000136618
0.000137761
0.000138915
0.000140079
0.000141256
0.000142447
0.000143652
0.000144873
0.00014611
0.000147366
0.00014864
0.000149933
0.000151247
0.000152581
0.000153937
0.000155315
0.000156715
0.000158139
0.000159586
0.000161056
0.000154924
0.000139512
0.000124337
0.000116289
0.000117475
0.000118644
0.000119798
0.000120938
0.000122066
0.000123184
0.000124291
0.000125391
0.000126483
0.00012757
0.000128653
0.000129733
0.000130811
0.000131889
0.000132967
0.000134048
0.000135133
0.000136223
0.000137319
0.000138423
0.000139536
0.000140659
0.000141794
0.000142942
0.000144104
0.000145281
0.000146474
0.000147684
0.000148912
0.00015016
0.000151428
0.000152716
0.000154026
0.000155358
0.000156713
0.000158091
0.000159492
0.000151424
0.000138544
0.000126164
0.000116031
0.000108542
0.00012001
0.000121124
0.000122229
0.000123325
0.000124413
0.000125494
0.000126571
0.000127642
0.00012871
0.000129776
0.00013084
0.000131905
0.00013297
0.000134037
0.000135108
0.000136184
0.000137265
0.000138353
0.00013945
0.000140555
0.000141672
0.0001428
0.000143942
0.000145097
0.000146268
0.000147455
0.000148659
0.000149882
0.000151124
0.000152385
0.000153668
0.000154972
0.000156297
0.000154421
0.000145457
0.00013544
0.000126368
0.000118912
0.000113129
0.000108699
0.000105246
0.000121233
0.000122304
0.000123371
0.000124435
0.000125496
0.000126556
0.000127615
0.000128674
0.000129734
0.000130794
0.000131858
0.000132924
0.000133994
0.00013507
0.000136151
0.000137239
0.000138335
0.000139441
0.000140556
0.000141683
0.000142821
0.000143973
0.000145138
0.000146319
0.000147516
0.00014873
0.000149961
0.000151211
0.000152481
0.000152959
0.000146671
0.000139148
0.000132015
0.000125844
0.000120889
0.000117015
0.000113872
0.000111099
0.000108434
0.000105792
0.000122104
0.000123139
0.000124177
0.000125218
0.000126264
0.000127313
0.000128368
0.000129427
0.000130493
0.000131564
0.000132643
0.000133729
0.000134822
0.000135925
0.000137037
0.000138159
0.000139293
0.000140437
0.000141595
0.000142766
0.00014395
0.00014515
0.000146364
0.000147595
0.000148842
0.000145508
0.000139959
0.000134381
0.000129448
0.000125464
0.000122392
0.000119977
0.000117915
0.000115932
0.000113821
0.000111474
0.0001089
0.000106228
0.000123505
0.000124539
0.000125583
0.000126636
0.0001277
0.000128773
0.000129856
0.000130951
0.000132056
0.000133173
0.000134301
0.000135441
0.000136593
0.000137758
0.000138936
0.000140128
0.000141334
0.000142554
0.000143311
0.000139657
0.000135254
0.000131208
0.000127875
0.000125332
0.000123427
0.000121918
0.000120563
0.000119168
0.000117598
0.000115782
0.000113704
0.000111394
0.000108941
0.000106545
0.000119368
0.000120366
0.000121382
0.000122413
0.000123461
0.000124525
0.000125604
0.000126698
0.000127808
0.000128933
0.000130072
0.000131227
0.000132395
0.000133579
0.000134776
0.000135988
0.000137215
0.000135465
0.000132225
0.000129564
0.000127075
0.000125165
0.000123765
0.000122662
0.000121666
0.000120632
0.000119472
0.000118138
0.000116608
0.000114881
0.000112961
0.000110864
0.000108632
0.000106332
0.000113921
0.000114864
0.000115833
0.000116826
0.000117843
0.000118883
0.000119946
0.00012103
0.000122135
0.00012326
0.000124405
0.000125568
0.000126748
0.000127946
0.000129161
0.000130391
0.000129554
0.000127128
0.000124948
0.000123327
0.000122155
0.000121281
0.000120556
0.00011986
0.000119108
0.000118256
0.000117274
0.000116146
0.000114857
0.000113394
0.000111746
0.00010992
0.000107954
0.000105926
0.000107328
0.000108194
0.000109096
0.000110033
0.000111003
0.000112006
0.000113039
0.000114103
0.000115195
0.000116315
0.000117459
0.000118628
0.00011982
0.000121034
0.000122267
0.00012352
0.000122341
0.000120789
0.000119692
0.000118954
0.000118425
0.000117996
0.000117587
0.000117143
0.000116628
0.000116016
0.000115284
0.000114412
0.000113377
0.000112161
0.000110752
0.000109155
0.00010741
0.000105593
0.000100585
0.0001014
0.000102262
0.000103169
0.00010412
0.000105114
0.000106148
0.000107221
0.000108331
0.000109474
0.000110651
0.000111857
0.000113092
0.000114352
0.000115637
0.000116662
0.000115893
0.000115311
0.000115065
0.000114913
0.000114752
0.000114575
0.000114372
0.000114107
0.000113744
0.000113256
0.000112618
0.000111813
0.000110817
0.000109618
0.000108219
0.000106664
0.000105035
9.23195e-05
9.30275e-05
9.37965e-05
9.46251e-05
9.55115e-05
9.64538e-05
9.74496e-05
9.84965e-05
9.95918e-05
0.000100733
0.000101917
0.00010314
0.000104401
0.000105697
0.000107024
0.000108381
0.000109764
0.000111172
0.000111284
0.000111043
0.000111044
0.000111232
0.000111417
0.000111458
0.000111329
0.000111062
0.000110663
0.000110103
0.000109342
0.000108353
0.000107144
0.000105768
0.00010432
8.37278e-05
8.43121e-05
8.49728e-05
8.57083e-05
8.65168e-05
8.7396e-05
8.83431e-05
8.93551e-05
9.04288e-05
9.15607e-05
9.27472e-05
9.39849e-05
9.52702e-05
9.65996e-05
9.79696e-05
9.93769e-05
0.000100818
0.000102291
0.000103791
0.000105318
0.000106869
0.00010844
0.000108543
0.000108361
0.000108352
0.000108463
0.000108509
0.00010831
0.000107797
0.000106998
0.000105973
0.00010479
0.000103541
7.5633e-05
7.61745e-05
7.68068e-05
7.75277e-05
7.83344e-05
7.92237e-05
8.01917e-05
8.12347e-05
8.23483e-05
8.35285e-05
8.47707e-05
8.60708e-05
8.74245e-05
8.88278e-05
9.02765e-05
9.17669e-05
9.32953e-05
9.48583e-05
9.64527e-05
9.80755e-05
9.97233e-05
0.000101393
0.000103083
0.00010479
0.000106511
0.00010706
0.000106545
0.000105967
0.000105471
0.000104887
0.000104066
0.000103049
6.73759e-05
6.77977e-05
6.83257e-05
6.89571e-05
6.96886e-05
7.05163e-05
7.14356e-05
7.24418e-05
7.353e-05
7.46952e-05
7.59322e-05
7.72362e-05
7.86024e-05
8.00264e-05
8.15038e-05
8.30306e-05
8.46026e-05
8.62154e-05
8.78646e-05
8.95466e-05
9.1258e-05
9.2995e-05
9.47545e-05
9.65337e-05
9.83301e-05
0.000100142
0.000101966
0.000103803
0.000105649
0.000105333
0.000104041
0.000102871
5.98868e-05
6.01974e-05
6.06285e-05
6.11766e-05
6.18374e-05
6.26061e-05
6.34772e-05
6.44452e-05
6.55042e-05
6.66484e-05
6.7872e-05
6.91697e-05
7.05361e-05
7.19666e-05
7.34568e-05
7.5003e-05
7.66e-05
7.82426e-05
7.99266e-05
8.16479e-05
8.34023e-05
8.51862e-05
8.69969e-05
8.88313e-05
9.06871e-05
9.25619e-05
9.44536e-05
9.63604e-05
9.82807e-05
0.000100213
0.000102156
0.000104111
5.34021e-05
5.3617e-05
5.39648e-05
5.4441e-05
5.50402e-05
5.57563e-05
5.65831e-05
5.75139e-05
5.85419e-05
5.96606e-05
6.08636e-05
6.21449e-05
6.34988e-05
6.49204e-05
6.64052e-05
6.79498e-05
6.95489e-05
7.11967e-05
7.28891e-05
7.46213e-05
7.63897e-05
7.81909e-05
8.00219e-05
8.188e-05
8.37626e-05
8.56674e-05
8.75925e-05
8.95358e-05
9.14958e-05
9.3471e-05
9.54601e-05
9.74619e-05
4.80133e-05
4.81487e-05
4.84275e-05
4.8844e-05
4.93913e-05
5.00623e-05
5.08494e-05
5.17449e-05
5.27413e-05
5.38314e-05
5.50083e-05
5.62653e-05
5.75966e-05
5.89969e-05
6.04615e-05
6.19875e-05
6.35697e-05
6.52022e-05
6.68807e-05
6.86006e-05
7.03584e-05
7.21508e-05
7.39749e-05
7.58279e-05
7.77074e-05
7.96111e-05
8.15369e-05
8.34829e-05
8.54475e-05
8.74291e-05
8.94263e-05
9.14381e-05
4.36708e-05
4.37389e-05
4.39594e-05
4.43251e-05
4.48279e-05
4.54592e-05
4.62102e-05
4.70724e-05
4.80374e-05
4.90974e-05
5.02451e-05
5.14736e-05
5.27767e-05
5.41489e-05
5.55857e-05
5.70839e-05
5.86392e-05
6.02457e-05
6.18992e-05
6.35954e-05
6.53308e-05
6.71024e-05
6.89074e-05
7.07433e-05
7.26076e-05
7.44983e-05
7.64133e-05
7.83508e-05
8.03093e-05
8.22873e-05
8.42835e-05
8.62968e-05
4.02298e-05
4.02357e-05
4.04024e-05
4.07215e-05
4.1183e-05
4.17772e-05
4.2494e-05
4.33239e-05
4.42578e-05
4.52873e-05
4.64046e-05
4.76027e-05
4.88752e-05
5.02167e-05
5.16224e-05
5.30892e-05
5.46133e-05
5.61893e-05
5.78128e-05
5.94803e-05
6.11881e-05
6.29335e-05
6.47138e-05
6.65266e-05
6.83698e-05
7.02414e-05
7.21394e-05
7.40621e-05
7.60082e-05
7.79761e-05
7.99646e-05
8.19727e-05
3.75082e-05
3.74502e-05
3.75621e-05
3.78336e-05
3.82535e-05
3.88103e-05
3.94929e-05
4.02905e-05
4.11932e-05
4.2192e-05
4.32788e-05
4.44462e-05
4.56878e-05
4.69979e-05
4.83719e-05
4.98066e-05
5.12985e-05
5.28426e-05
5.44347e-05
5.60716e-05
5.775e-05
5.9467e-05
6.12202e-05
6.30074e-05
6.48265e-05
6.66756e-05
6.8553e-05
7.0457e-05
7.23863e-05
7.43394e-05
7.63152e-05
7.83127e-05
3.53315e-05
3.52036e-05
3.52554e-05
3.54752e-05
3.58502e-05
3.63673e-05
3.7014e-05
3.77783e-05
3.86494e-05
3.96175e-05
4.06738e-05
4.18108e-05
4.30218e-05
4.4301e-05
4.56438e-05
4.7047e-05
4.85072e-05
5.00198e-05
5.15807e-05
5.31869e-05
5.48357e-05
5.65242e-05
5.82499e-05
6.00107e-05
6.18047e-05
6.36301e-05
6.54852e-05
6.73685e-05
6.92785e-05
7.12141e-05
7.31741e-05
7.51574e-05
3.35563e-05
3.33505e-05
3.33347e-05
3.34961e-05
3.38207e-05
3.42943e-05
3.49024e-05
3.56317e-05
3.64702e-05
3.74071e-05
3.84331e-05
3.954e-05
4.07209e-05
4.19699e-05
4.32822e-05
4.46546e-05
4.60841e-05
4.75659e-05
4.90964e-05
5.06726e-05
5.22921e-05
5.39523e-05
5.5651e-05
5.73858e-05
5.91548e-05
6.09563e-05
6.27888e-05
6.46507e-05
6.65406e-05
6.84573e-05
7.03998e-05
7.23668e-05
3.20744e-05
3.17821e-05
3.16907e-05
3.17868e-05
3.2055e-05
3.24796e-05
3.3045e-05
3.37367e-05
3.45409e-05
3.54456e-05
3.64406e-05
3.75172e-05
3.86679e-05
3.98868e-05
4.11689e-05
4.25111e-05
4.39102e-05
4.53618e-05
4.68625e-05
4.84094e-05
5.00001e-05
5.16322e-05
5.33038e-05
5.50127e-05
5.67572e-05
5.85354e-05
6.03454e-05
6.21859e-05
6.40555e-05
6.5953e-05
6.78772e-05
6.98271e-05
3.08148e-05
3.04262e-05
3.025e-05
3.02724e-05
3.04772e-05
3.08472e-05
3.13651e-05
3.20148e-05
3.27816e-05
3.36521e-05
3.46146e-05
3.56597e-05
3.67795e-05
3.79676e-05
3.9219e-05
4.05303e-05
4.18986e-05
4.33198e-05
4.47904e-05
4.63079e-05
4.78698e-05
4.94741e-05
5.11186e-05
5.28015e-05
5.45209e-05
5.62752e-05
5.80627e-05
5.9882e-05
6.17315e-05
6.36098e-05
6.55156e-05
6.7448e-05
2.92378e-05
2.89656e-05
2.89048e-05
2.90379e-05
2.93462e-05
2.98109e-05
3.0414e-05
3.11391e-05
3.1972e-05
3.28996e-05
3.39111e-05
3.4998e-05
3.61536e-05
3.73725e-05
3.86514e-05
3.99874e-05
4.13768e-05
4.28162e-05
4.43031e-05
4.58354e-05
4.74109e-05
4.90278e-05
5.06841e-05
5.23781e-05
5.41081e-05
5.58724e-05
5.76696e-05
5.94981e-05
6.13566e-05
6.32437e-05
6.51584e-05
2.81887e-05
2.78101e-05
2.76554e-05
2.77072e-05
2.79455e-05
2.83497e-05
2.89002e-05
2.95788e-05
3.03695e-05
3.12585e-05
3.22333e-05
3.32844e-05
3.44046e-05
3.55884e-05
3.68322e-05
3.81333e-05
3.94885e-05
4.08942e-05
4.23485e-05
4.38491e-05
4.53941e-05
4.69817e-05
4.86101e-05
5.02776e-05
5.19824e-05
5.37228e-05
5.54972e-05
5.73041e-05
5.9142e-05
6.10095e-05
6.29054e-05
2.72655e-05
2.67692e-05
2.65091e-05
2.64683e-05
2.66265e-05
2.69616e-05
2.74522e-05
2.80781e-05
2.88215e-05
2.96671e-05
3.06011e-05
3.16128e-05
3.26942e-05
3.38394e-05
3.50445e-05
3.63072e-05
3.76245e-05
3.89933e-05
4.04115e-05
4.18774e-05
4.33891e-05
4.4945e-05
4.65432e-05
4.81822e-05
4.986e-05
5.15751e-05
5.33256e-05
5.511e-05
5.69265e-05
5.87738e-05
6.06504e-05
2.64633e-05
2.58373e-05
2.5459e-05
2.53132e-05
2.53798e-05
2.56358e-05
2.60579e-05
2.66239e-05
2.73138e-05
2.81106e-05
2.89992e-05
2.99671e-05
3.10055e-05
3.21079e-05
3.32702e-05
3.44902e-05
3.57654e-05
3.70928e-05
3.84709e-05
3.9898e-05
4.13726e-05
4.28931e-05
4.4458e-05
4.60656e-05
4.77141e-05
4.94017e-05
5.11266e-05
5.2887e-05
5.46811e-05
5.65072e-05
5.83637e-05
2.42419e-05
2.42038e-05
2.43692e-05
2.47129e-05
2.52104e-05
2.58396e-05
2.65813e-05
2.74192e-05
2.83385e-05
2.93292e-05
3.03843e-05
3.14992e-05
3.26715e-05
3.38997e-05
3.51808e-05
3.65137e-05
3.78971e-05
3.93299e-05
4.08107e-05
4.23382e-05
4.39107e-05
4.55266e-05
4.71839e-05
4.88807e-05
5.06151e-05
5.23851e-05
5.41887e-05
5.60242e-05
2.32612e-05
2.31044e-05
2.31658e-05
2.34191e-05
2.38379e-05
2.43978e-05
2.50771e-05
2.58578e-05
2.67233e-05
2.76616e-05
2.86647e-05
2.97274e-05
3.08471e-05
3.20225e-05
3.32519e-05
3.4534e-05
3.58681e-05
3.72536e-05
3.86895e-05
4.01746e-05
4.17075e-05
4.32866e-05
4.491e-05
4.65757e-05
4.82815e-05
5.00252e-05
5.18046e-05
5.36177e-05
2.23788e-05
2.20892e-05
2.20323e-05
2.21819e-05
2.25104e-05
2.2991e-05
2.35998e-05
2.43162e-05
2.51222e-05
2.60031e-05
2.69495e-05
2.79554e-05
2.90175e-05
3.01349e-05
3.13067e-05
3.2532e-05
3.38107e-05
3.51427e-05
3.65275e-05
3.79645e-05
3.94524e-05
4.09899e-05
4.25749e-05
4.42055e-05
4.58794e-05
4.75941e-05
4.93472e-05
5.11362e-05
2.16068e-05
2.11704e-05
2.098e-05
2.10113e-05
2.12363e-05
2.16264e-05
2.21552e-05
2.27995e-05
2.35399e-05
2.43583e-05
2.52435e-05
2.6188e-05
2.71879e-05
2.82422e-05
2.93507e-05
3.05132e-05
3.173e-05
3.30018e-05
3.43289e-05
3.57111e-05
3.71478e-05
3.86377e-05
4.01791e-05
4.177e-05
4.34079e-05
4.50901e-05
4.6814e-05
4.85766e-05
2.09581e-05
2.03621e-05
2.00233e-05
1.99209e-05
2.0028e-05
2.0315e-05
2.07533e-05
2.1317e-05
2.19841e-05
2.27349e-05
2.35544e-05
2.44337e-05
2.53676e-05
2.63542e-05
2.7394e-05
2.84877e-05
2.96362e-05
3.0841e-05
3.21032e-05
3.34234e-05
3.48017e-05
3.62373e-05
3.77289e-05
3.92743e-05
4.08713e-05
4.25168e-05
4.42079e-05
4.59413e-05
2.04434e-05
1.96788e-05
1.91783e-05
1.89269e-05
1.89006e-05
1.90705e-05
1.94063e-05
1.98795e-05
2.04652e-05
2.11427e-05
2.18924e-05
2.27029e-05
2.35675e-05
2.44831e-05
2.54499e-05
2.64697e-05
2.75439e-05
2.86749e-05
2.98649e-05
3.11155e-05
3.24278e-05
3.38015e-05
3.5236e-05
3.67294e-05
3.82794e-05
3.98831e-05
4.15369e-05
4.32375e-05
2.00696e-05
1.91331e-05
1.84611e-05
1.80467e-05
1.78716e-05
1.79091e-05
1.81291e-05
1.85008e-05
1.89966e-05
1.95928e-05
2.02684e-05
2.10072e-05
2.18e-05
2.26423e-05
2.35332e-05
2.44749e-05
2.54698e-05
2.6521e-05
2.7632e-05
2.88054e-05
3.00436e-05
3.13474e-05
3.27168e-05
3.41507e-05
3.56469e-05
3.72025e-05
3.88139e-05
4.04772e-05
1.98367e-05
1.87327e-05
1.78851e-05
1.72974e-05
1.69592e-05
1.68491e-05
1.69385e-05
1.71961e-05
1.75918e-05
1.80986e-05
1.86945e-05
1.93584e-05
2.00775e-05
2.08451e-05
2.16588e-05
2.25199e-05
2.3432e-05
2.43986e-05
2.54244e-05
2.65136e-05
2.76697e-05
2.88952e-05
3.01911e-05
3.15572e-05
3.29918e-05
3.44922e-05
3.60549e-05
3.76756e-05
1.97354e-05
1.84778e-05
1.74588e-05
1.66933e-05
1.61814e-05
1.59093e-05
1.58532e-05
1.59829e-05
1.62669e-05
1.66757e-05
1.71836e-05
1.77689e-05
1.84127e-05
1.91051e-05
1.98414e-05
2.06215e-05
2.14485e-05
2.23274e-05
2.32632e-05
2.42619e-05
2.53286e-05
2.64673e-05
2.76808e-05
2.897e-05
3.03343e-05
3.17716e-05
3.32783e-05
3.485e-05
1.97457e-05
1.83586e-05
1.71825e-05
1.62432e-05
1.55527e-05
1.51078e-05
1.48921e-05
1.48794e-05
1.50391e-05
1.53394e-05
1.57519e-05
1.62524e-05
1.68189e-05
1.7436e-05
1.80959e-05
1.8796e-05
1.95383e-05
2.03278e-05
2.11708e-05
2.2074e-05
2.30446e-05
2.40884e-05
2.52103e-05
2.6413e-05
2.76972e-05
2.90619e-05
3.05041e-05
3.20193e-05
1.98372e-05
1.83538e-05
1.70453e-05
1.59467e-05
1.50815e-05
1.44588e-05
1.40727e-05
1.39043e-05
1.39262e-05
1.41069e-05
1.44155e-05
1.48241e-05
1.53105e-05
1.58524e-05
1.64375e-05
1.70602e-05
1.77203e-05
1.84215e-05
1.91708e-05
1.99757e-05
2.08449e-05
2.17867e-05
2.28079e-05
2.39137e-05
2.51071e-05
2.63885e-05
2.77559e-05
2.92055e-05
1.9971e-05
1.84314e-05
1.7025e-05
1.57923e-05
1.47668e-05
1.397e-05
1.34085e-05
1.3074e-05
1.29456e-05
1.29949e-05
1.31901e-05
1.35008e-05
1.39007e-05
1.4367e-05
1.48799e-05
1.54294e-05
1.60118e-05
1.6629e-05
1.72867e-05
1.79934e-05
1.87587e-05
1.95929e-05
2.05055e-05
2.15045e-05
2.25956e-05
2.37816e-05
2.50624e-05
2.64352e-05
2.01038e-05
1.85514e-05
1.70886e-05
1.57571e-05
1.4597e-05
1.36404e-05
1.29069e-05
1.24011e-05
1.21122e-05
1.20181e-05
1.20892e-05
1.22939e-05
1.26026e-05
1.29899e-05
1.34326e-05
1.39136e-05
1.44249e-05
1.49648e-05
1.5537e-05
1.61494e-05
1.68121e-05
1.75369e-05
1.83356e-05
1.92195e-05
2.01975e-05
2.12757e-05
2.24568e-05
2.374e-05
2.01957e-05
1.86701e-05
1.71956e-05
1.58081e-05
1.45495e-05
1.34588e-05
1.25673e-05
1.18928e-05
1.14377e-05
1.11896e-05
1.11248e-05
1.12134e-05
1.14238e-05
1.1727e-05
1.2099e-05
1.25156e-05
1.29627e-05
1.34341e-05
1.39301e-05
1.44563e-05
1.50224e-05
1.56406e-05
1.63247e-05
1.70886e-05
1.79451e-05
1.89043e-05
1.99727e-05
2.11526e-05
2.02239e-05
1.87471e-05
1.73022e-05
1.59048e-05
1.45914e-05
1.34034e-05
1.23795e-05
1.15495e-05
1.09297e-05
1.05207e-05
1.03087e-05
1.02687e-05
1.03704e-05
1.05829e-05
1.08778e-05
1.12309e-05
1.16195e-05
1.20314e-05
1.24621e-05
1.29137e-05
1.33937e-05
1.39137e-05
1.44879e-05
1.51325e-05
1.58635e-05
1.66954e-05
1.76395e-05
1.87027e-05
2.02031e-05
1.87583e-05
1.73679e-05
1.60034e-05
1.46825e-05
1.34419e-05
1.23228e-05
1.13628e-05
1.05906e-05
1.00209e-05
9.65285e-06
9.47116e-06
9.45047e-06
9.56042e-06
9.77046e-06
1.00533e-05
1.03848e-05
1.07439e-05
1.112e-05
1.15102e-05
1.19182e-05
1.2353e-05
1.28282e-05
1.33604e-05
1.39679e-05
1.46692e-05
1.54808e-05
1.64151e-05
2.01955e-05
1.87167e-05
1.73678e-05
1.6063e-05
1.47785e-05
1.35335e-05
1.23648e-05
1.13125e-05
1.04133e-05
9.69431e-06
9.16903e-06
8.8353e-06
8.67719e-06
8.66921e-06
8.78144e-06
8.98421e-06
9.25135e-06
9.55926e-06
9.88834e-06
1.02293e-05
1.05804e-05
1.09467e-05
1.13387e-05
1.17718e-05
1.22649e-05
1.28388e-05
1.35149e-05
1.43116e-05
2.00928e-05
1.86808e-05
1.73135e-05
1.60582e-05
1.48375e-05
1.36323e-05
1.24628e-05
1.13646e-05
1.03766e-05
9.53409e-06
8.86277e-06
8.37496e-06
8.06793e-06
7.92573e-06
7.92341e-06
8.03204e-06
8.2231e-06
8.47162e-06
8.75524e-06
9.05521e-06
9.36304e-06
9.67794e-06
1.00057e-05
1.03582e-05
1.07526e-05
1.12102e-05
1.17549e-05
1.24108e-05
1.96917e-05
1.85496e-05
1.72583e-05
1.59985e-05
1.48331e-05
1.36949e-05
1.25684e-05
1.14733e-05
1.04437e-05
9.51673e-06
8.72592e-06
8.09577e-06
7.63791e-06
7.3497e-06
7.21592e-06
7.21282e-06
7.31291e-06
7.48907e-06
7.71753e-06
7.97746e-06
8.25042e-06
8.52819e-06
8.81032e-06
9.10323e-06
9.41988e-06
9.77924e-06
1.02053e-05
1.07252e-05
1.89911e-05
1.81378e-05
1.71077e-05
1.59323e-05
1.47742e-05
1.36949e-05
1.26372e-05
1.15878e-05
1.05651e-05
9.60127e-06
8.73122e-06
7.98668e-06
7.39114e-06
6.95607e-06
6.67955e-06
6.54781e-06
6.53885e-06
6.62692e-06
6.78641e-06
6.99466e-06
7.23237e-06
7.48089e-06
7.73176e-06
7.98447e-06
8.2458e-06
8.52973e-06
8.85717e-06
9.25517e-06
1.74476e-05
1.66933e-05
1.57709e-05
1.47055e-05
1.36418e-05
1.26435e-05
1.16634e-05
1.06888e-05
9.73575e-06
8.83388e-06
8.01611e-06
7.31239e-06
6.74545e-06
6.32706e-06
6.05661e-06
5.9222e-06
5.90393e-06
5.97796e-06
6.12016e-06
6.30879e-06
6.52588e-06
6.75219e-06
6.97858e-06
7.20425e-06
7.4362e-06
7.68951e-06
7.98742e-06
1.65407e-05
1.6019e-05
1.53575e-05
1.45382e-05
1.35761e-05
1.25983e-05
1.16752e-05
1.07691e-05
9.86678e-06
8.98065e-06
8.13691e-06
7.36631e-06
6.6981e-06
6.1547e-06
5.74838e-06
5.48007e-06
5.34001e-06
5.31052e-06
5.36967e-06
5.49468e-06
5.6646e-06
5.86218e-06
6.06762e-06
6.27082e-06
6.4706e-06
6.67424e-06
6.8982e-06
1.47018e-05
1.41244e-05
1.34e-05
1.25346e-05
1.16365e-05
1.07825e-05
9.9455e-06
9.11155e-06
8.28929e-06
7.5012e-06
6.77473e-06
6.13794e-06
5.61416e-06
5.21676e-06
4.94829e-06
4.80117e-06
4.75986e-06
4.80423e-06
4.91273e-06
5.06499e-06
5.24372e-06
5.42875e-06
5.60907e-06
5.78312e-06
5.95869e-06
1.38696e-05
1.34902e-05
1.29889e-05
1.23505e-05
1.15746e-05
1.07506e-05
9.95943e-06
9.18587e-06
8.41522e-06
7.65232e-06
6.91609e-06
6.23122e-06
5.62362e-06
5.11716e-06
4.72723e-06
4.45799e-06
4.30392e-06
4.25148e-06
4.28208e-06
4.37514e-06
4.51067e-06
4.67123e-06
4.83575e-06
4.99263e-06
5.14025e-06
1.27041e-05
1.23825e-05
1.19472e-05
1.13847e-05
1.06903e-05
9.93449e-06
9.19959e-06
8.48291e-06
7.76958e-06
7.06098e-06
6.37255e-06
5.72638e-06
5.14668e-06
4.65678e-06
4.27418e-06
4.00505e-06
3.84555e-06
3.78375e-06
3.80229e-06
3.88132e-06
4.00107e-06
4.14337e-06
4.28649e-06
4.41855e-06
1.18244e-05
1.1643e-05
1.13704e-05
1.09915e-05
1.04946e-05
9.8741e-06
9.18154e-06
8.49586e-06
7.82909e-06
7.16686e-06
6.50737e-06
5.86268e-06
5.25263e-06
4.69991e-06
4.2272e-06
3.85324e-06
3.58631e-06
3.42384e-06
3.35508e-06
3.36352e-06
3.42975e-06
3.53399e-06
3.65694e-06
3.77681e-06
1.09001e-05
1.08247e-05
1.0678e-05
1.04453e-05
1.01137e-05
9.67335e-06
9.11895e-06
8.48385e-06
7.84087e-06
7.21729e-06
6.60017e-06
5.98492e-06
5.38043e-06
4.80449e-06
4.27853e-06
3.82454e-06
3.46172e-06
3.20004e-06
3.03767e-06
2.96451e-06
2.96447e-06
3.01825e-06
3.10593e-06
3.20754e-06
9.96913e-06
9.91707e-06
9.79698e-06
9.59631e-06
9.30434e-06
8.9126e-06
8.41639e-06
7.83346e-06
7.22819e-06
6.64156e-06
6.06413e-06
5.48899e-06
4.92197e-06
4.37893e-06
3.88021e-06
3.44703e-06
3.09844e-06
2.84525e-06
2.68596e-06
2.61051e-06
2.60289e-06
2.6438e-06
2.71336e-06
9.10361e-06
9.12123e-06
9.08583e-06
8.98585e-06
8.81089e-06
8.55198e-06
8.20196e-06
7.75681e-06
7.22264e-06
6.65217e-06
6.097e-06
5.55472e-06
5.01629e-06
4.48458e-06
3.97365e-06
3.50284e-06
3.0926e-06
2.76134e-06
2.51975e-06
2.36616e-06
2.29016e-06
2.27552e-06
2.30303e-06
8.31449e-06
8.34008e-06
8.31498e-06
8.2295e-06
8.07504e-06
7.8439e-06
7.53008e-06
7.12984e-06
6.64325e-06
6.10764e-06
5.57927e-06
5.06817e-06
4.56348e-06
4.06521e-06
3.58565e-06
3.14328e-06
2.75779e-06
2.44663e-06
2.21949e-06
2.07392e-06
1.99888e-06
1.97788e-06
7.50878e-06
7.57639e-06
7.6048e-06
7.58565e-06
7.51095e-06
7.37345e-06
7.16667e-06
6.88532e-06
6.52558e-06
6.08678e-06
5.5886e-06
5.08412e-06
4.60074e-06
4.1273e-06
3.66084e-06
3.21186e-06
2.79809e-06
2.43858e-06
2.14972e-06
1.93958e-06
1.80431e-06
1.73196e-06
6.71222e-06
6.80475e-06
6.86796e-06
6.89481e-06
6.8784e-06
6.81229e-06
6.6904e-06
6.50704e-06
6.25714e-06
5.93689e-06
5.54499e-06
5.08687e-06
4.60754e-06
4.14903e-06
3.7049e-06
3.26876e-06
2.84945e-06
2.46419e-06
2.13151e-06
1.86671e-06
1.67566e-06
1.5526e-06
6.02965e-06
6.11075e-06
6.16533e-06
6.18792e-06
6.17304e-06
6.11555e-06
6.01006e-06
5.85119e-06
5.63374e-06
5.35328e-06
5.00699e-06
4.5948e-06
4.14631e-06
3.71002e-06
3.29346e-06
2.88631e-06
2.49574e-06
2.1388e-06
1.83368e-06
1.59436e-06
1.42391e-06
5.25304e-06
5.33661e-06
5.40226e-06
5.44602e-06
5.46373e-06
5.45141e-06
5.40454e-06
5.31812e-06
5.18665e-06
5.00439e-06
4.76594e-06
4.46719e-06
4.10684e-06
3.69522e-06
3.28089e-06
2.89051e-06
2.51129e-06
2.14862e-06
1.82002e-06
1.54372e-06
1.33156e-06
4.48074e-06
4.55313e-06
4.61452e-06
4.66282e-06
4.6955e-06
4.70984e-06
4.70256e-06
4.66959e-06
4.60599e-06
4.50587e-06
4.3627e-06
4.16982e-06
3.92141e-06
3.61394e-06
3.24756e-06
2.86164e-06
2.49505e-06
2.14268e-06
1.80733e-06
1.50759e-06
1.26178e-06
3.77543e-06
3.82003e-06
3.85872e-06
3.8905e-06
3.91414e-06
3.9278e-06
3.92869e-06
3.91301e-06
3.87568e-06
3.8103e-06
3.70944e-06
3.565e-06
3.36902e-06
3.11537e-06
2.80239e-06
2.45104e-06
2.10554e-06
1.77928e-06
1.47139e-06
1.20222e-06
3.02783e-06
3.04808e-06
3.06757e-06
3.0867e-06
3.10572e-06
3.12411e-06
3.1405e-06
3.15231e-06
3.15583e-06
3.14588e-06
3.11586e-06
3.0577e-06
2.96201e-06
2.81888e-06
2.61956e-06
2.35954e-06
2.04416e-06
1.7209e-06
1.42026e-06
1.14149e-06
2.33775e-06
2.33377e-06
2.33187e-06
2.33356e-06
2.34021e-06
2.35244e-06
2.37002e-06
2.39188e-06
2.41533e-06
2.4368e-06
2.45131e-06
2.45246e-06
2.43221e-06
2.38068e-06
2.28569e-06
2.1348e-06
1.91899e-06
1.63919e-06
1.34217e-06
1.06727e-06
1.72666e-06
1.70534e-06
1.68707e-06
1.67375e-06
1.66721e-06
1.66868e-06
1.67855e-06
1.69679e-06
1.71873e-06
1.7329e-06
1.76428e-06
1.81929e-06
1.85057e-06
1.86195e-06
1.84665e-06
1.79024e-06
1.67652e-06
1.49268e-06
1.24105e-06
9.70334e-07
1.19819e-06
1.13319e-06
1.08037e-06
1.03747e-06
1.0016e-06
9.7178e-07
9.53358e-07
9.45172e-07
9.46382e-07
9.59081e-07
9.85875e-07
1.02367e-06
1.06917e-06
1.12314e-06
1.1876e-06
1.26481e-06
1.3473e-06
1.25517e-06
1.08186e-06
8.52393e-07
5.92952e-07
5.85442e-07
5.89222e-07
5.999e-07
6.13674e-07
6.28264e-07
6.41662e-07
6.50181e-07
6.63913e-07
6.70497e-07
6.77763e-07
6.88517e-07
7.02025e-07
7.19822e-07
7.42389e-07
7.68871e-07
7.9689e-07
8.2942e-07
8.67048e-07
7.06204e-07
3.93912e-07
3.78358e-07
3.6309e-07
3.48923e-07
3.37455e-07
3.29931e-07
3.2689e-07
3.29194e-07
3.37779e-07
3.53617e-07
3.77252e-07
4.08641e-07
4.47305e-07
4.66528e-07
4.72683e-07
4.8109e-07
4.91389e-07
5.02826e-07
5.18593e-07
5.3346e-07
1.49448e-07
1.44434e-07
1.39598e-07
1.351e-07
1.31412e-07
1.29103e-07
1.28048e-07
1.29047e-07
1.33191e-07
1.41479e-07
1.54837e-07
1.74095e-07
1.99903e-07
2.32728e-07
2.65327e-07
2.74332e-07
2.81381e-07
2.84911e-07
2.85882e-07
2.92307e-07
4.0601e-08
3.93444e-08
3.79101e-08
3.64976e-08
3.53018e-08
3.44866e-08
3.44525e-08
3.53122e-08
3.72649e-08
4.06713e-08
4.60332e-08
5.39974e-08
6.53482e-08
8.09768e-08
1.01825e-07
1.2862e-07
1.61347e-07
1.73011e-07
1.81031e-07
2.03056e-07
5.17417e-09
5.0664e-09
5.00304e-09
4.95184e-09
4.92984e-09
4.96074e-09
5.06838e-09
5.32681e-09
5.81667e-09
6.63141e-09
7.89707e-09
9.80997e-09
1.26457e-08
1.67877e-08
2.27465e-08
3.11821e-08
4.28559e-08
5.81268e-08
7.40525e-08
7.56781e-08
2.50358e-10
2.37412e-10
2.26486e-10
2.18009e-10
2.12431e-10
2.12753e-10
2.24853e-10
2.50217e-10
2.96146e-10
3.70556e-10
4.78621e-10
6.47139e-10
9.12955e-10
1.3305e-09
1.97807e-09
2.97594e-09
4.5095e-09
6.86929e-09
1.03205e-08
1.26659e-08
1.70434e-12
1.62608e-12
1.5494e-12
1.47983e-12
1.42483e-12
1.40142e-12
1.44127e-12
1.55863e-12
1.79057e-12
2.23939e-12
3.15052e-12
4.73884e-12
7.54162e-12
1.25374e-11
2.14666e-11
3.77931e-11
6.75681e-11
1.28205e-10
2.74283e-10
9.87939e-10
0.000357319
0.000358588
0.000359155
0.000358993
0.000358174
0.000356741
0.000354734
0.0003522
0.000349196
0.0003458
0.000342109
0.000338231
0.000334251
0.000330229
0.000326273
0.000322589
0.000318963
0.000312549
0.000300863
0.000289044
0.000277138
0.00026519
0.000253244
0.000241344
0.000229541
0.000217873
0.000206329
0.000194886
0.000183538
0.00017228
0.000161114
0.000150052
0.000139112
0.000128316
0.000117686
0.000107243
9.70112e-05
8.70134e-05
7.72733e-05
6.78154e-05
5.86698e-05
4.9881e-05
4.14786e-05
3.3503e-05
2.60102e-05
1.90826e-05
1.28464e-05
7.5089e-06
3.54781e-06
1.1929e-06
3.80321e-07
1.27153e-07
5.83208e-08
3.38045e-08
4.66177e-09
0.00034581
0.00034571
0.000344835
0.000343143
0.000340758
0.000337757
0.000334213
0.0003302
0.000325802
0.000321116
0.000316259
0.000311362
0.000306519
0.00030174
0.000297106
0.000292779
0.000288553
0.000283555
0.000277164
0.000269703
0.000261504
0.000252702
0.000243496
0.000234192
0.00022521
0.000216018
0.000204377
0.000192803
0.000181307
0.000169895
0.000158575
0.000147358
0.000136258
0.000125294
0.000114482
0.000103842
9.33906e-05
8.31475e-05
7.31304e-05
6.33679e-05
5.39042e-05
4.47709e-05
3.60118e-05
2.76973e-05
1.99521e-05
1.30052e-05
7.28129e-06
3.40337e-06
1.22947e-06
4.23598e-07
1.70674e-07
7.72357e-08
4.5016e-08
2.9993e-08
9.15395e-09
0.000352625
0.000353249
0.000353121
0.000352215
0.000350662
0.000348558
0.000345988
0.000343039
0.000339802
0.000336378
0.00033289
0.000329487
0.000326305
0.000323295
0.000320423
0.000317379
0.000314135
0.000308909
0.000297284
0.00028551
0.000273636
0.000261702
0.000249743