/*--------------------------------*- C++ -*----------------------------------*\
  =========                 |
  \\      /  F ield         | OpenFOAM: The Open Source CFD Toolbox
   \\    /   O peration     | Website:  https://openfoam.org
    \\  /    A nd           | Version:  10
     \\/     M anipulation  |
\*---------------------------------------------------------------------------*/
FoamFile
{
    format      ascii;
    class       volScalarField;
    location    "6000";
    object      omega;
}
// * * * * * * * * * * * * * * * * * * * * * * * * * * * * * * * * * * * * * //

dimensions      [0 0 -1 0 0 0 0];

internalField   nonuniform List<scalar> 
17981
(
3.85374
3.73897
3.64165
3.56166
3.49774
3.44833
3.41174
3.38624
3.3702
3.36214
3.36077
3.365
3.37391
3.38677
3.40293
3.4217
3.44261
3.46548
3.49008
3.51623
3.54374
3.57245
3.60221
3.63289
3.66436
3.69651
3.72925
3.76246
3.79607
3.83
3.86417
3.89851
3.93297
3.96749
4.00202
4.03651
4.07093
4.10523
4.13939
4.17337
4.20715
4.2407
4.27399
4.30702
4.33975
4.37217
4.40427
4.43603
3.55601
3.48309
3.42508
3.3808
3.34877
3.32738
3.31511
3.31053
3.31241
3.31968
3.33145
3.34699
3.36567
3.38676
3.40977
3.43454
3.46088
3.48862
3.51758
3.54764
3.57865
3.61049
3.64306
3.67625
3.70997
3.74414
3.77867
3.8135
3.84855
3.88377
3.91908
3.95445
3.98983
4.02516
4.06041
4.09553
4.13051
4.16529
4.19986
4.23419
4.26825
4.30201
4.33547
4.36859
4.40136
4.43377
4.46579
4.49742
3.35826
3.31938
3.29196
3.2746
3.26595
3.26469
3.26964
3.27978
3.29423
3.31227
3.33328
3.35651
3.38144
3.40793
3.43582
3.46495
3.49518
3.52636
3.55838
3.59114
3.62454
3.65849
3.69292
3.72774
3.76288
3.79829
3.83391
3.86966
3.90551
3.94139
3.97727
4.0131
4.04884
4.08446
4.11992
4.15519
4.19024
4.22504
4.25956
4.29379
4.3277
4.36126
4.39446
4.42728
4.4597
4.4917
4.52328
4.55441
3.2365
3.24941
3.26637
3.28668
3.30977
3.33486
3.36142
3.38935
3.41849
3.4487
3.47985
3.51181
3.54448
3.57778
3.61161
3.64591
3.68059
3.71561
3.7509
3.78641
3.82208
3.85787
3.89374
3.92964
3.96552
4.00136
4.03711
4.07275
4.10823
4.14354
4.17862
4.21347
4.24805
4.28234
4.31631
4.34993
4.38318
4.41605
4.44851
4.48055
4.51216
4.54331
4.57399
4.60419
3.24586
3.2684
3.29354
3.3205
3.34871
3.37807
3.40844
3.43969
3.4717
3.50437
3.53759
3.5713
3.60541
3.63987
3.6746
3.70958
3.74473
3.78004
3.81544
3.85091
3.88641
3.9219
3.95736
3.99275
4.02804
4.06321
4.09823
4.13306
4.16769
4.20209
4.23623
4.27009
4.30365
4.33688
4.36976
4.40228
4.4344
4.46612
4.49741
4.52825
4.55863
4.58853
4.61793
4.64775
3.27945
3.30847
3.33861
3.36966
3.4015
3.43404
3.46715
3.50074
3.53471
3.569
3.60354
3.63828
3.67315
3.70813
3.74317
3.77824
3.8133
3.84834
3.88332
3.91823
3.95304
3.98772
4.02227
4.05665
4.09085
4.12485
4.15863
4.19217
4.22545
4.25846
4.29117
4.32357
4.35563
4.38735
4.41869
4.44965
4.48021
4.51035
4.54005
4.5693
4.59808
4.62702
4.6575
4.69033
3.35791
3.39168
3.42596
3.46062
3.49558
3.53078
3.56612
3.60155
3.63701
3.67245
3.70783
3.74313
3.77831
3.81335
3.84823
3.88293
3.91744
3.95174
3.98582
4.01967
4.05327
4.08663
4.11972
4.15254
4.18508
4.21732
4.24925
4.28086
4.31215
4.34309
4.37368
4.4039
4.43374
4.46318
4.49222
4.52083
4.54901
4.57673
4.60476
4.63421
4.66536
4.69769
4.73024
3.4827
3.51974
3.55675
3.59369
3.63049
3.66711
3.70352
3.73968
3.77557
3.81116
3.84644
3.88139
3.916
3.95026
3.98417
4.01772
4.05091
4.08373
4.11618
4.14826
4.17997
4.2113
4.24225
4.27281
4.30299
4.33278
4.36216
4.39115
4.41973
4.44789
4.47562
4.50293
4.52979
4.55645
4.58367
4.612
4.64128
4.67102
4.70058
4.72938
4.75692
3.57427
3.613
3.65143
3.68952
3.72722
3.7645
3.80135
3.83774
3.87365
3.90907
3.94399
3.97841
4.01232
4.04573
4.07862
4.11101
4.1429
4.17429
4.20518
4.23558
4.26549
4.29492
4.32386
4.35233
4.38031
4.40783
4.43486
4.46143
4.48751
4.51318
4.53898
4.56543
4.59246
4.61976
4.64693
4.67359
4.69941
4.72419
4.7478
4.77015
3.70063
3.73997
3.77875
3.81695
3.85455
3.89154
3.92789
3.9636
3.99866
4.03306
4.0668
4.09989
4.13234
4.16413
4.19529
4.22582
4.25572
4.28502
4.3137
4.3418
4.36931
4.39624
4.42259
4.44839
4.47362
4.49864
4.52391
4.54947
4.57513
4.60059
4.62557
4.64985
4.67328
4.69578
4.71733
4.73792
4.75756
4.77619
3.89779
3.93561
3.97265
4.00888
4.04432
4.07896
4.1128
4.14584
4.17809
4.20957
4.24027
4.27022
4.29942
4.32788
4.35562
4.38266
4.409
4.43467
4.45971
4.4845
4.50935
4.53417
4.55877
4.58291
4.6064
4.62912
4.651
4.67204
4.69225
4.71164
4.73024
4.74803
4.765
4.78109
3.93169
3.9706
4.00859
4.04567
4.08182
4.11703
4.15131
4.18466
4.21709
4.2486
4.27921
4.30893
4.33778
4.36577
4.39292
4.41925
4.44477
4.46975
4.49452
4.51902
4.54311
4.56666
4.58952
4.61161
4.63289
4.65336
4.67305
4.69196
4.71014
4.72759
4.74431
4.7603
4.77555
4.79002
3.95798
3.99853
4.03804
4.07651
4.11391
4.15023
4.18548
4.21966
4.25276
4.28479
4.31576
4.34571
4.37465
4.4026
4.42958
4.45562
4.48092
4.50576
4.53017
4.554
4.57714
4.59948
4.62101
4.64171
4.66161
4.68072
4.69908
4.71671
4.73363
4.74986
4.76541
4.78029
4.79448
4.80798
3.98025
4.02331
4.06519
4.10587
4.14534
4.18358
4.22056
4.25629
4.29077
4.32401
4.35603
4.38684
4.41648
4.44497
4.47234
4.49862
4.52405
4.54886
4.57296
4.59627
4.61872
4.64031
4.66104
4.68094
4.70003
4.71836
4.73595
4.75283
4.76904
4.78459
4.79951
4.81382
4.8275
4.84056
4.04986
4.09545
4.13966
4.18243
4.22373
4.26355
4.30186
4.33868
4.37401
4.40788
4.44032
4.47135
4.50102
4.52938
4.55647
4.58237
4.60728
4.63132
4.65444
4.6766
4.69785
4.71821
4.73772
4.75642
4.77434
4.79153
4.80803
4.82387
4.8391
4.85373
4.86779
4.8813
4.89423
4.08416
4.13517
4.18453
4.23218
4.27804
4.32208
4.36427
4.40461
4.44312
4.47982
4.51474
4.54795
4.5795
4.60946
4.63789
4.66486
4.69045
4.71473
4.73786
4.76001
4.78119
4.80141
4.8207
4.83913
4.85677
4.87367
4.88987
4.90544
4.9204
4.9348
4.94866
4.96201
4.97485
4.1312
4.18988
4.24659
4.30118
4.35353
4.40358
4.45128
4.4966
4.53958
4.58023
4.61863
4.65485
4.68896
4.72108
4.7513
4.77973
4.80648
4.83166
4.85538
4.87773
4.89881
4.91872
4.93762
4.95569
4.97293
4.98939
5.00511
5.02016
5.03461
5.04851
5.06192
5.07486
5.08733
4.26365
4.33055
4.39473
4.45601
4.51428
4.56945
4.62151
4.67047
4.71638
4.75934
4.79945
4.83685
4.87168
4.90411
4.93428
4.96236
4.98851
5.01289
5.03562
5.05684
5.07666
5.09519
5.11256
5.12889
5.14428
5.15892
5.17296
5.18642
5.19933
5.21172
5.22364
5.23515
4.35917
4.43929
4.51595
4.58887
4.65782
4.72268
4.7834
4.84001
4.89258
4.94124
4.98617
5.02756
5.06563
5.10062
5.13277
5.16231
5.18944
5.21427
5.23699
5.2578
5.2769
5.29448
5.3107
5.32573
5.33972
5.35281
5.3651
5.37671
5.38772
5.39833
5.40868
5.41878
4.47484
4.57151
4.66381
4.75125
4.8335
4.91037
4.98177
5.04772
5.10834
5.16382
5.2144
5.26037
5.30204
5.33977
5.37388
5.40471
5.43244
5.45726
5.47948
5.49938
5.51723
5.53326
5.54772
5.5608
5.5727
5.58358
5.5936
5.60289
5.61157
5.61975
5.6275
5.6349
4.60595
4.7224
4.83337
4.93814
5.03623
5.12735
5.21136
5.28829
5.35831
5.42166
5.4787
5.52981
5.57544
5.61605
5.6521
5.68405
5.71215
5.73669
5.75807
5.77665
5.79278
5.80677
5.81892
5.82948
5.83869
5.84674
5.85384
5.86013
5.86577
5.87088
5.87557
5.87994
4.74537
4.88447
5.01685
5.14154
5.25783
5.3653
5.46378
5.55328
5.63403
5.70636
5.77073
5.82767
5.87775
5.92157
5.95975
5.99289
6.02137
6.04555
6.06595
6.08303
6.09721
6.10889
6.11842
6.12613
6.13229
6.13716
6.14097
6.14389
6.14612
6.1478
6.14906
6.15002
4.8853
5.04953
5.2058
5.35277
5.4895
5.6154
5.7302
5.83393
5.92684
6.00938
6.08213
6.14575
6.20097
6.24856
6.28927
6.32388
6.35292
6.37687
6.39634
6.41189
6.42405
6.43329
6.44004
6.44469
6.44758
6.449
6.44922
6.44847
6.44696
6.44485
6.44231
6.43946
5.01895
5.21048
5.39293
5.56453
5.72398
5.87047
6.00362
6.1234
6.23013
6.32432
6.40669
6.47806
6.53933
6.59142
6.63526
6.6718
6.70174
6.72569
6.74436
6.75844
6.76855
6.77527
6.7791
6.7805
6.77987
6.77757
6.7739
6.76914
6.76352
6.75724
6.75049
6.74342
5.14103
5.36187
5.57282
5.7715
5.95617
6.12569
6.27949
6.41747
6.53994
6.64751
6.74102
6.82144
6.88984
6.94735
6.99507
7.03413
7.06541
7.08966
7.10773
7.12044
7.12852
7.13264
7.13342
7.13139
7.12702
7.12072
7.11286
7.10375
7.09367
7.08286
7.07152
7.05982
5.24735
5.49959
5.74147
5.96992
6.18262
6.37799
6.55516
6.71387
6.8544
6.97741
7.08386
7.17489
7.25175
7.31575
7.36823
7.41051
7.44365
7.46857
7.48626
7.4977
7.50376
7.50523
7.50281
7.49714
7.48877
7.47818
7.4658
7.452
7.4371
7.42137
7.40505
7.38834
5.33558
5.62038
5.89534
6.15641
6.40041
6.62502
6.8288
7.0113
7.17268
7.31363
7.4352
7.53871
7.6256
7.69742
7.7557
7.80202
7.83763
7.86363
7.88121
7.89151
7.89554
7.89425
7.88845
7.87889
7.86621
7.85098
7.83371
7.81481
7.79466
7.77359
7.75185
7.72969
5.40421
5.72293
6.03302
6.32928
6.60751
6.86462
7.09862
7.30856
7.49415
7.65605
7.79541
7.91368
8.01255
8.09377
8.15915
8.2105
8.24933
8.27694
8.29472
8.30401
8.30602
8.30183
8.29243
8.27867
8.26131
8.24102
8.21839
8.19391
8.16801
8.14108
8.11342
8.08531
5.45053
5.8041
6.15127
6.48558
6.80156
7.095
7.36308
7.60419
7.81786
8.00436
8.16473
8.30059
8.41382
8.50644
8.58053
8.63819
8.68119
8.71108
8.72949
8.73799
8.73799
8.73078
8.71751
8.69919
8.67671
8.65086
8.62232
8.59167
8.55943
8.52603
8.49184
8.45717
5.86
6.24614
6.62131
6.97864
7.31261
7.61926
7.89615
8.14223
8.35755
8.54287
8.69978
8.83037
8.93691
9.02179
9.08742
9.13587
9.16898
9.18863
9.19667
9.19476
9.18443
9.16702
9.14373
9.11562
9.08362
9.04852
9.01104
8.97175
8.93117
8.88972
8.84777
5.88933
6.31443
6.7322
7.13405
7.51276
7.86288
8.18077
8.46449
8.71358
8.92862
9.11087
9.26258
9.38628
9.48464
9.56042
9.61607
9.6537
9.67551
9.68364
9.68007
9.66659
9.6448
9.61612
9.58182
9.543
9.50061
9.45547
9.4083
9.35969
9.31014
9.26009
5.88723
6.35079
6.81237
7.26161
7.68932
8.08814
8.45284
8.78026
9.0691
9.31951
9.53241
9.70997
9.85496
9.97032
10.0592
10.1244
10.1684
10.1936
10.2028
10.198
10.1815
10.1552
10.1207
10.0797
10.0333
9.98275
9.92904
9.873
9.81535
9.7567
9.69754
5.85103
6.35051
6.85551
7.35422
7.83483
8.28769
8.70549
9.08342
9.41898
9.71152
9.96158
10.1709
10.3424
10.4793
10.5851
10.663
10.7159
10.7466
10.758
10.753
10.7339
10.703
10.6625
10.6141
10.5594
10.4997
10.4364
10.3704
10.3025
10.2336
10.1641
7.404
7.94097
8.45294
8.93026
9.36607
9.75618
10.0988
10.3938
10.6422
10.8468
11.0111
11.1388
11.2337
11.299
11.3378
11.3536
11.3496
11.3287
11.2936
11.2468
11.1905
11.1267
11.057
10.9828
10.9055
10.8261
10.7455
10.6643
7.40739
8.00061
8.5748
9.11728
9.61836
10.0716
10.4733
10.8224
11.1186
11.3646
11.5636
11.7198
11.8372
11.9195
11.9704
11.9935
11.9926
11.9713
11.9326
11.8798
11.8153
11.7415
11.6606
11.5744
11.4843
11.3918
11.2978
11.2033
7.35587
8.00397
8.64219
9.25461
9.82819
10.3534
10.8243
11.2377
11.5926
11.8899
12.133
12.326
12.4731
12.5788
12.6468
12.6814
12.6869
12.6673
12.6264
12.568
12.4951
12.4109
12.3177
12.218
12.1135
12.006
11.8968
11.7871
7.24541
7.94364
8.6448
9.32984
9.98196
10.5879
11.1384
11.6278
12.0537
12.4143
12.7128
12.953
13.1393
13.2765
13.3689
13.4207
13.437
13.4225
13.3816
13.3188
13.238
13.1428
13.0364
12.9217
12.801
12.6765
12.5498
12.4224
7.0752
7.81475
8.57385
9.3309
10.0653
10.7594
11.3998
11.9775
12.4874
12.9258
13.2935
13.5938
13.8311
14.0104
14.1362
14.2134
14.247
14.2425
14.2052
14.1403
14.0525
13.9464
13.8259
13.6947
13.5558
13.4119
13.2653
13.1176
6.84834
7.61632
8.42357
9.24741
10.0639
10.851
11.5904
12.2684
12.8762
13.4085
13.8615
14.2376
14.5407
14.7753
14.9468
15.0597
15.1196
15.1323
15.104
15.0406
14.948
14.8318
14.6969
14.5478
14.3887
14.2229
14.0532
13.882
6.5725
7.35237
8.19297
9.0727
9.96596
10.8465
11.6908
12.4798
13.1997
13.8417
14.3987
14.8691
15.2558
15.5627
15.795
15.9576
16.0557
16.0957
16.0842
16.0283
15.9347
15.8103
15.6613
15.4935
15.312
15.1214
14.9253
14.727
6.2595
7.03247
7.88718
8.80589
9.76376
10.7322
11.6826
12.5899
13.4343
14.2016
14.8829
15.4686
15.9598
16.3595
16.6716
16.9015
17.0538
17.1348
17.1514
17.1116
17.0232
16.8944
16.7328
16.5459
16.3404
16.122
15.8957
15.6658
5.92409
6.67123
7.51814
8.45362
9.45692
10.4998
11.5505
12.5782
13.5561
14.4636
15.2857
16.0108
16.6309
17.1473
17.5629
17.8817
18.1086
18.2488
18.3093
18.2983
18.2246
18.0978
17.9272
17.7222
17.4912
17.242
16.9813
16.7148
5.5821
6.28658
7.10368
8.03056
9.05381
10.1495
11.2858
12.4278
13.542
14.6001
15.5799
16.4657
17.2417
17.9025
18.449
18.8836
19.2103
19.4335
19.5588
19.5944
19.5497
19.4352
19.2622
19.042
18.7855
18.5029
18.2033
17.8941
5.24832
5.89727
6.66519
7.55799
8.57194
9.69137
10.8889
12.1291
13.3734
14.5857
15.7355
16.799
17.7588
18.5941
19.3027
19.8847
20.3417
20.677
20.8948
21.0015
21.0063
20.9203
20.7562
20.5274
20.2477
19.9303
19.5872
19.229
4.93474
5.52015
6.2243
7.06072
8.03592
9.14535
10.3709
11.6818
13.0383
14.3983
15.7226
16.9779
18.1386
19.1809
20.086
20.8508
21.4743
21.9572
22.3018
22.512
22.595
22.5614
22.4245
22.1996
21.9033
21.5523
21.1626
20.7487
4.64954
5.16829
5.79981
6.56315
7.4737
8.5388
9.75316
11.0962
12.5331
14.02
15.5105
16.9618
18.338
19.6105
20.7476
21.7334
22.5636
23.2355
23.7484
24.1027
24.3023
24.3553
24.2738
24.0741
23.7749
23.3968
22.9606
22.4856
4.3967
4.85023
5.40584
6.08607
6.91255
7.90285
9.06541
10.3943
11.8662
13.4424
15.0742
16.7107
18.3053
19.8187
21.2195
22.4652
23.545
24.4522
25.1814
25.7294
26.0946
26.2803
26.2955
26.1547
25.8777
25.4879
25.0113
24.4735
4.17458
4.56976
5.05128
5.64485
6.37572
7.26839
8.34297
9.60927
11.0609
12.672
14.3996
16.1903
17.9888
19.7443
21.4141
22.9584
24.3321
25.524
26.5238
27.3224
27.913
28.2914
28.46
28.4284
28.2143
27.8423
27.3423
26.7471
3.97354
4.32473
4.73988
5.24919
5.88075
6.66264
7.62253
8.78339
10.1568
11.7364
13.4941
15.3833
17.346
19.3226
21.2586
23.1073
24.8185
26.3456
27.6737
28.7874
29.6724
30.3166
30.7123
30.86
30.7706
30.4656
29.9764
29.3419
3.7766
4.10456
4.46913
4.90317
5.43889
6.10672
6.93766
7.96274
9.20821
10.6881
12.3969
14.3054
16.3643
18.5121
20.6854
22.8258
24.8822
26.7938
28.5082
30.0047
31.2607
32.2545
32.9671
33.3852
33.507
33.3446
32.9255
32.2908
3.60225
3.89105
4.22759
4.60403
5.05492
5.61415
6.31442
7.18968
8.2745
9.59897
11.1806
13.0162
15.0775
17.3141
19.6623
22.0554
24.4307
26.7318
28.888
30.8335
32.5392
33.9733
35.1036
35.9016
36.3468
36.434
36.1776
35.6132
3.48375
3.70339
3.99613
4.33926
4.72549
5.19011
5.76847
6.49545
7.40791
8.54421
9.93901
11.6148
13.573
15.7886
18.2126
20.7804
23.4224
26.0709
28.6623
31.1177
33.3473
35.3113
36.9653
38.264
39.1658
39.6405
39.6785
39.2976
3.41775
3.57501
3.79432
4.08877
4.43638
4.82975
5.30419
5.8963
6.64304
7.58424
8.76235
10.2176
11.9792
14.0557
16.4285
19.0523
21.8634
24.7894
27.7566
30.6925
33.5112
36.0867
38.3658
40.2882
41.7909
42.8152
43.3173
43.2821
3.50196
3.65578
3.87253
4.16609
4.51602
4.91363
5.39351
5.99351
6.75298
7.71487
8.92562
10.4321
12.2723
14.4645
16.9994
19.8389
22.9215
26.1725
29.5117
32.8554
36.1116
39.1045
41.7648
44.0111
45.7572
46.9208
47.44
3.47262
3.57567
3.72461
3.93624
4.22628
4.57718
4.97742
5.45943
6.06178
6.82623
7.80036
9.0367
10.5884
12.5025
14.8105
17.5161
20.5911
23.9791
27.6041
31.3786
35.2066
38.9832
42.4772
45.5952
48.2285
50.2592
51.5731
3.63926
3.78261
3.98834
4.27413
4.62572
5.0284
5.51133
6.11367
6.87914
7.85802
9.11064
10.7019
12.6888
15.1167
18.0059
21.3423
25.0773
29.1352
33.4208
37.8234
42.2153
46.3072
49.9697
53.0584
55.4125
3.60083
3.69324
3.83148
4.03123
4.31176
4.66318
5.06825
5.55181
6.15334
6.91864
7.9013
9.16678
10.7934
12.8561
15.4129
18.5046
22.1348
26.2663
30.8254
35.7093
40.7907
45.9158
50.7086
55.01
58.6261
3.65066
3.73866
3.87208
4.06594
4.34045
4.69109
5.09945
5.58464
6.1862
6.95229
7.94027
9.22159
10.8843
13.0272
15.7277
19.0462
23.0082
27.5915
32.7271
38.3063
44.185
50.1613
55.777
60.8302
3.64144
3.69151
3.77599
3.90541
4.09402
4.36215
4.71167
5.125
5.61399
6.21801
6.98777
7.98493
9.2875
10.9945
13.2246
16.0856
19.6561
23.9876
29.0772
34.8653
41.2408
48.0451
55.0157
61.6128
3.65704
3.67748
3.72502
3.80695
3.93308
4.11733
4.37928
4.72774
5.14824
5.64432
6.25451
7.0323
8.04443
9.37612
11.1377
13.4655
16.5026
20.3486
25.0854
30.7353
37.2555
44.5414
52.4282
60.5907
3.68838
3.7073
3.75345
3.8337
3.95763
4.13833
4.39463
4.74261
5.17265
5.67996
6.30093
7.09209
8.12592
9.49535
11.3223
13.7613
16.9915
21.1433
26.3292
32.6065
39.9619
48.3117
57.4974
3.71919
3.71554
3.73416
3.78004
3.85982
3.98257
4.16071
4.4125
4.76012
5.20137
5.72504
6.36259
7.17378
8.23779
9.65663
11.5657
14.1408
17.5934
22.0966
27.8008
34.8106
43.1579
52.7966
3.74669
3.74362
3.76309
3.80978
3.89021
4.01276
4.18967
4.43864
4.78525
5.23805
5.78441
6.44582
7.28579
8.39185
9.87772
11.8954
14.6459
18.3771
23.3099
29.6479
37.5571
47.1334
3.80034
3.78016
3.77916
3.80096
3.84983
3.93174
4.05506
4.232
4.48001
4.82482
5.28841
5.86415
6.55887
7.43918
8.60377
10.182
12.3479
15.3349
19.438
24.9323
32.0954
41.1754
3.88071
3.84705
3.83033
3.83324
3.85851
3.91028
3.99441
4.1193
4.29689
4.54458
4.88804
5.36219
5.97217
6.71278
7.64877
8.89462
10.6018
12.9751
16.294
20.9191
27.1933
35.5014
3.95225
3.9246
3.91393
3.92227
3.9519
4.00714
4.09373
4.2201
4.39838
4.64636
4.99076
5.47302
6.11856
6.92211
7.93501
9.2946
11.1849
13.8566
17.6561
23.0385
30.4604
4.11144
4.07724
4.05857
4.05637
4.07136
4.1063
4.16506
4.25355
4.38045
4.55846
4.80629
5.15212
5.63933
6.32256
7.20957
8.33047
9.85252
12.0113
15.1301
19.6639
26.1974
4.34745
4.31422
4.29527
4.29017
4.29894
4.32251
4.36297
4.42416
4.51241
4.63701
4.81172
5.05693
5.4033
5.8984
6.61987
7.60617
8.88603
10.6488
13.2173
17.0361
22.7443
4.67945
4.66986
4.67268
4.6863
4.70962
4.74269
4.7872
4.84747
4.93049
5.04661
5.21161
5.44875
5.79317
6.30006
7.05959
8.17019
9.6943
11.8319
15.0643
20.0555
5.23434
5.25089
5.2784
5.31355
5.35307
5.39418
5.43603
5.48019
5.53175
5.59904
5.69481
5.8381
6.05656
6.3922
6.91204
7.72738
9.02445
10.938
13.7261
18.1727
6.08471
6.14896
6.22349
6.30311
6.38133
6.45139
6.50819
6.55103
6.58222
6.60914
6.64209
6.69757
6.79951
6.9827
7.30257
7.85016
8.78448
10.4019
12.9933
17.0654
7.4029
7.5358
7.6796
7.82648
7.966
8.08786
8.18167
8.24291
8.2692
8.26433
8.2385
8.2062
8.1891
8.21968
8.34819
8.65533
9.28037
10.4835
12.7721
16.8222
9.53025
9.75231
9.9746
10.1914
10.3922
10.5629
10.6922
10.7693
10.793
10.7587
10.6721
10.5462
10.4021
10.2717
10.2018
10.2698
10.6116
11.4884
13.4569
17.4275
13.0051
13.2514
13.4803
13.6922
13.8785
14.022
14.1157
14.148
14.1162
14.0201
13.8621
13.6503
13.3999
13.1349
12.8926
12.7396
12.8102
13.3856
15.0629
19.1597
18.671
18.8976
19.0861
19.2296
19.307
19.2997
19.2138
19.0629
18.8433
18.5563
18.2058
17.8029
17.3651
16.9152
16.4858
16.1297
15.965
16.2855
17.852
22.5344
29.5904
29.4141
29.1711
28.879
28.5223
28.0761
27.6145
27.1091
26.5249
25.8526
25.0999
24.2873
23.4447
22.6059
21.812
21.1221
20.6565
20.7389
22.3563
28.3707
49.0692
48.4031
47.8559
47.295
46.601
45.7413
44.6782
43.4618
42.1286
40.6905
39.158
37.5446
35.8747
34.1897
32.5483
31.0359
29.7991
29.2089
30.5974
38.8422
108.263
105.872
103.046
100.159
97.1078
94.0279
91.2971
88.5982
85.7421
82.7512
79.7401
76.6041
73.2704
69.7237
66.0188
62.2673
58.7095
56.0238
57.1233
75.3954
293.276
294.169
294.223
292.817
290.081
285.558
278.933
270.655
260.41
249.908
243.868
238.671
233.109
226.754
219.533
211.456
202.866
194.892
196.44
253.283
1530.04
1523.65
1517.47
1511.5
1505.74
1500.16
1494.78
1489.57
1484.54
1479.67
1474.96
1470.4
1466
1461.73
1457.61
1453.61
1449.74
1446
1442.38
1438.87
5.41968
5.41351
5.4127
5.41754
5.4284
5.4456
5.46953
5.50056
5.53912
5.58564
5.64061
5.70451
5.77789
5.8613
5.95532
6.0605
6.17732
6.30651
6.44966
6.60834
6.78358
6.97655
7.18857
7.42104
7.67544
7.95358
8.25893
8.59606
8.97002
9.38708
9.85466
10.3815
10.9783
11.6583
12.4384
13.3406
14.3939
15.6376
17.1261
18.9374
21.1854
24.04
27.78
32.8779
40.1886
51.393
70.1709
105.738
179.127
355.776
669.031
1055.43
1530.4
2086.32
2479.74
5.42461
5.4192
5.41922
5.42499
5.43686
5.45517
5.4803
5.51262
5.55254
5.60051
5.65698
5.72244
5.7974
5.8824
5.97798
6.08473
6.20324
6.33439
6.47963
6.64055
6.81842
7.01458
7.23057
7.46811
7.72894
8.01523
8.33105
8.68166
9.07235
9.5098
10.0023
10.5599
11.1954
11.9248
12.7693
13.7569
14.9258
16.3296
18.0461
20.1896
22.9334
26.5663
31.5904
38.9439
50.5356
70.6298
109.103
182.408
334.179
547.429
750.388
955.36
1160.22
1273.7
900.175
5.42993
5.42532
5.42624
5.43301
5.44598
5.46549
5.4919
5.5256
5.56698
5.61646
5.6745
5.74155
5.81808
5.90459
6.0016
6.10975
6.22974
6.36244
6.50957
6.67301
6.85391
7.05373
7.27419
7.51727
7.78534
8.08144
8.40975
8.77539
9.18452
9.64468
10.1653
10.7583
11.4387
12.2264
13.1476
14.2383
15.5489
17.1525
19.1579
21.7257
25.1234
29.8105
36.6304
47.2493
65.2199
97.9048
156.211
267.55
422.536
557.966
670.052
768.766
816.01
631.15
177.949
5.43549
5.43169
5.43354
5.44133
5.45541
5.47612
5.50381
5.53884
5.5816
5.63249
5.69191
5.76031
5.8381
5.92572
6.02365
6.13276
6.25432
6.38956
6.53981
6.70652
6.89117
7.09545
7.32132
7.57112
7.84768
8.15457
8.49627
8.87839
9.30785
9.79325
10.3455
10.9785
11.7103
12.5651
13.5756
14.7873
16.266
18.11
20.4621
23.5521
27.769
33.8053
42.9746
57.9267
83.8394
127.003
204.329
320.175
426.783
505.336
567.485
600.622
521.522
210.178
73.621
5.4413
5.43836
5.44115
5.44998
5.46518
5.48707
5.516
5.5523
5.59634
5.64847
5.70907
5.77855
5.85727
5.94569
6.04484
6.15599
6.28008
6.41822
6.57175
6.74215
6.93108
7.14042
7.37243
7.62976
7.91568
8.23419
8.59029
8.99021
9.44173
9.95467
10.5416
11.2187
12.0076
12.9371
14.0474
15.3953
17.0644
19.1807
21.9294
25.6223
30.795
38.4203
50.3615
70.1865
101.675
153.776
237.732
328.729
395.62
444.575
477.318
452.674
294.922
109.514
47.7494
5.44737
5.44531
5.44906
5.45894
5.47525
5.4983
5.5284
5.56588
5.61105
5.66426
5.72584
5.79611
5.87575
5.9657
6.06698
6.18048
6.30725
6.44846
6.6055
6.77993
6.97357
7.18852
7.42727
7.69283
7.98884
8.31977
8.6912
9.11007
9.58512
10.1275
10.7515
11.476
12.3262
13.3361
14.5539
16.0485
17.9228
20.3309
23.5074
27.8502
34.0495
43.3619
58.1325
81.0972
115.974
172.549
248.337
313.08
357.68
391.619
396.431
316.871
159.876
69.265
35.1228
5.4537
5.45253
5.45727
5.46818
5.48557
5.50972
5.54093
5.57948
5.62568
5.67981
5.74217
5.8135
5.89476
5.98672
6.09022
6.20623
6.33584
6.48031
6.64108
6.81985
7.01857
7.23956
7.48557
7.75991
8.06661
8.41064
8.79815
9.23686
9.73651
10.3096
10.9724
11.7462
12.66
13.7533
15.0821
16.7275
18.8115
21.5165
25.1253
30.1168
37.3201
48.217
64.9795
89.0325
125.366
180.531
242.586
289.287
323.313
346.763
320.884
214.37
104.558
51.163
28.7074
5.4603
5.46005
5.46575
5.47769
5.49613
5.52133
5.55356
5.59311
5.64022
5.69516
5.75864
5.83161
5.91473
6.00876
6.1146
6.23324
6.36583
6.51372
6.67844
6.8618
7.06593
7.29331
7.54696
7.8305
8.14834
8.50592
8.91
9.36905
9.89384
10.4982
11.2003
12.0239
13.0016
14.178
15.6164
17.4093
19.6959
22.6853
26.7005
32.2861
40.3703
52.4944
69.7479
93.6318
129.348
179.268
229.116
265.253
295.271
306.396
254.558
153.471
79.4383
42.4444
25.3595
5.4672
5.46786
5.47454
5.48748
5.50692
5.53313
5.56634
5.6068
5.65474
5.71079
5.77586
5.85057
5.93563
6.03183
6.14009
6.26147
6.39718
6.54864
6.71749
6.90565
7.1154
7.34943
7.61099
7.90398
8.2332
8.60454
9.02533
9.50479
10.0547
10.6901
11.4307
12.303
13.3424
14.5981
16.1399
18.0694
20.5398
23.783
28.1494
34.2245
42.9776
55.5575
72.2579
95.0955
128.33
171.581
212.299
243.501
271.843
269.328
204.34
121.322
67.2025
38.4952
24.0764
5.47442
5.47601
5.48365
5.49756
5.51799
5.54515
5.57928
5.62059
5.66961
5.72716
5.79387
5.87039
5.95745
6.05588
6.16665
6.29087
6.42981
6.58496
6.75806
6.95116
7.16668
7.4075
7.67708
7.97961
8.32023
8.70525
9.14253
9.64197
10.2162
10.8814
11.6588
12.5768
13.6734
15.0014
16.6355
18.684
21.3087
24.7591
29.397
35.8185
44.9246
57.1626
72.7431
93.8722
123.535
160.44
194.797
224.494
251.232
237.241
171.394
104.728
61.7402
37.4554
24.2349
5.482
5.48451
5.49309
5.50797
5.52935
5.55743
5.59243
5.63476
5.68514
5.74424
5.81265
5.89104
5.98016
6.08089
6.19424
6.32136
6.46359
6.62252
6.79995
6.99806
7.2194
7.46702
7.74459
8.05656
8.40835
8.80666
9.25981
9.7783
10.3754
11.0684
11.8795
12.8387
13.9859
15.3764
17.0877
19.2319
21.9746
25.5689
30.3831
36.9849
46.0182
57.4113
71.5927
90.5458
116.225
147.411
177.455
207.25
232.359
211.598
151.548
96.7121
60.3044
38.3994
25.604
5.48995
5.49338
5.5029
5.51872
5.54102
5.56999
5.60594
5.6495
5.70135
5.76205
5.83219
5.91248
6.00371
6.10679
6.22275
6.35283
6.4984
6.66112
6.8429
7.046
7.27311
7.52742
7.81279
8.13388
8.49637
8.90727
9.37529
9.91136
10.5294
11.2471
12.0879
13.0824
14.2717
15.7123
17.4828
19.6953
22.5135
26.1824
31.0675
37.6616
46.2317
56.5397
69.1974
85.7553
107.488
133.63
160.459
190.762
214.808
192.438
140.33
93.875
61.5833
40.8999
28.0107
5.49829
5.50263
5.51308
5.52982
5.55302
5.58288
5.61992
5.66487
5.71822
5.78054
5.85245
5.93468
6.02805
6.13349
6.2521
6.38513
6.53404
6.70053
6.8866
7.0946
7.32732
7.58808
7.88089
8.21059
8.58306
9.00554
9.48704
10.0388
10.675
11.414
12.2793
13.3021
14.5237
16.0004
17.8099
20.0612
22.911
26.5877
31.4283
37.8128
45.6732
54.8276
65.9296
80.0963
98.1789
119.893
143.836
174.262
198.129
178.383
134.359
94.2019
64.7324
44.6657
31.3915
5.50703
5.51227
5.52363
5.54127
5.56533
5.5962
5.63453
5.68088
5.73574
5.7997
5.8734
5.95758
6.05309
6.16091
6.28215
6.41811
6.5703
6.74048
6.93071
7.14341
7.38147
7.64832
7.94805
8.28565
8.66714
9.09993
9.59316
10.1583
10.8096
11.5656
12.4497
13.493
14.7361
16.234
18.0613
20.3215
23.1597
26.782
31.4744
37.4598
44.5031
52.5311
62.1261
74.0644
88.9402
106.838
128.205
157.532
180.556
167.26
131.905
96.5383
69.1769
49.4502
35.6556
5.51615
5.52229
5.53455
5.55306
5.57804
5.61005
5.64971
5.69748
5.75387
5.81948
5.89497
5.98111
6.07875
6.18891
6.31274
6.45156
6.60693
6.78065
6.97484
7.19197
7.435
7.70742
8.01341
8.35802
8.74736
9.1889
9.69185
10.2676
10.9306
11.6988
12.5956
13.651
14.9045
16.4083
18.2326
20.473
23.2601
26.7735
31.2345
36.6915
42.8911
49.8715
58.0773
68.0533
80.2778
95.1585
113.717
140.248
162.575
156.566
130.435
100.064
74.4776
55.0432
40.7448
5.52566
5.53269
5.54583
5.56519
5.59119
5.62446
5.66545
5.71465
5.77257
5.83983
5.9171
6.00516
6.1049
6.21735
6.34368
6.48526
6.64366
6.82071
7.01858
7.23978
7.48729
7.76465
8.07609
8.42666
8.8225
9.27105
9.78144
10.365
11.0357
11.8113
12.7142
13.7734
15.0259
16.5208
18.3225
20.5168
23.2183
26.5774
30.7394
35.6291
41.0337
47.0511
54.0319
62.3669
72.434
84.7017
100.471
123.289
144.528
145.108
127.571
103.537
80.0024
61.1189
46.5127
5.53554
5.54345
5.55744
5.57773
5.60486
5.63938
5.68171
5.73234
5.79178
5.86067
5.93969
6.02964
6.13142
6.24607
6.37479
6.51896
6.68018
6.8603
7.0615
7.28631
7.53773
7.81931
8.13525
8.4906
8.89141
9.34503
9.86042
10.4486
11.1231
11.901
12.8036
13.858
15.0989
16.571
18.3321
20.4575
23.0448
26.2129
30.0295
34.3561
39.0462
44.2177
50.1351
57.0863
65.3816
75.4911
88.6431
107.505
126.934
132.463
122.557
104.76
85.1765
67.2481
52.6779
5.54579
5.55456
5.56941
5.5907
5.61902
5.6548
5.69846
5.75049
5.81144
5.88193
5.96265
6.05442
6.15815
6.27488
6.40584
6.5524
6.71618
6.89904
7.10315
7.33106
7.58573
7.87068
8.19009
8.5489
8.95305
9.4097
9.92752
10.5171
11.1914
11.9665
12.8624
13.9041
15.1233
16.5599
18.2649
20.3025
22.7533
25.7026
29.1519
32.9487
37.008
41.4438
46.4547
52.2591
59.1167
67.4567
78.2862
93.4671
110.402
118.933
115.278
103.416
88.223
72.6898
58.7139
5.55637
5.566
5.58175
5.60412
5.63363
5.67066
5.71563
5.76905
5.83147
5.9035
5.98586
6.07936
6.18492
6.30359
6.43659
6.5853
6.75134
6.93656
7.1431
7.3735
7.63068
7.91811
8.23984
8.60072
9.00649
9.46405
9.98168
10.5694
11.2395
12.0069
12.8901
13.9117
15.1001
16.4904
18.1263
20.0615
22.3598
25.0726
28.1551
31.471
34.9807
38.7839
43.0316
47.8941
53.5887
60.4803
69.3289
81.3701
95.4859
105.22
106.139
99.4947
88.6428
76.276
63.9007
5.56728
5.57776
5.59447
5.61797
5.64865
5.68691
5.73317
5.78794
5.85177
5.92528
6.00919
6.10431
6.21155
6.33198
6.4668
6.61738
6.78532
6.97246
7.18092
7.41315
7.67205
7.96096
8.28384
8.64533
9.05096
9.50727
10.0221
10.6049
11.2669
12.022
12.8868
13.8816
15.0314
16.3665
17.9233
19.7458
21.8813
24.3503
27.0836
29.9732
33.0083
36.2727
39.8829
43.9741
48.7256
54.431
61.635
71.13
82.5305
92.0945
95.8796
93.4008
86.5259
77.3643
67.3934
5.57849
5.58984
5.60757
5.63218
5.66402
5.70348
5.75101
5.80708
5.87225
5.94716
6.03251
6.1291
6.23787
6.35984
6.49621
6.64834
6.8178
7.00639
7.21617
7.44955
7.70931
7.9987
8.32149
8.68212
9.08583
9.53877
10.0483
10.623
11.2734
12.0119
12.8534
13.8157
14.9205
16.1931
17.6639
19.3672
21.3351
23.563
25.9746
28.4918
31.1202
33.9282
37.0073
40.4656
44.4481
49.1815
55.0442
62.5359
71.5747
80.1559
85.3362
85.8233
82.285
76.1232
68.5924
5.58998
5.60223
5.62101
5.64672
5.67969
5.72032
5.76905
5.82635
5.89279
5.96899
6.05565
6.15357
6.26366
6.38693
6.52457
6.6779
6.84846
7.03798
7.24848
7.48228
7.74203
8.03084
8.35231
8.71062
9.11066
9.55817
10.0599
10.6238
11.2593
11.9774
12.7912
13.7164
14.771
15.9762
17.3565
18.9378
20.7379
22.7348
24.8571
27.052
29.3327
31.7552
34.3916
37.3284
40.6801
44.617
49.397
55.3337
62.4476
69.725
75.2289
77.5388
76.5373
72.9578
67.7184
5.60171
5.6149
5.63473
5.66151
5.69559
5.73734
5.7872
5.84567
5.91328
5.99065
6.07847
6.17753
6.28872
6.41304
6.55163
6.70578
6.87698
7.06691
7.2775
7.51095
7.76982
8.05702
8.37593
8.73048
9.12518
9.56533
10.0571
10.6075
11.2251
11.9196
12.7023
13.5865
14.5873
15.7219
17.0096
18.4687
20.1048
21.8862
23.7522
25.6691
27.6533
29.7499
32.0163
34.521
37.3529
40.6367
44.5467
49.28
54.8798
60.8498
66.0266
69.2243
69.9449
68.4048
65.162
5.61368
5.62785
5.64869
5.67651
5.71163
5.75445
5.80538
5.86491
5.93358
6.01198
6.1008
6.20081
6.31287
6.43794
6.57715
6.73173
6.9031
7.09288
7.3029
7.53527
7.79236
8.07692
8.3921
8.74151
9.12932
9.5603
10.04
10.5748
11.172
11.8402
12.5889
13.4294
14.374
15.4365
16.6315
17.9707
19.4498
21.0338
22.6746
24.352
26.0828
27.9033
29.8589
32.0034
34.4047
37.1528
40.3642
44.1633
48.5897
53.4028
57.945
61.3704
63.0994
63.0273
61.4016
5.62586
5.64099
5.66282
5.69162
5.72774
5.77155
5.82347
5.88396
5.95356
6.03284
6.12248
6.22322
6.33589
6.46142
6.60089
6.75548
6.92655
7.11563
7.32444
7.55496
7.80943
8.09037
8.40069
8.74369
9.12315
9.54336
10.0092
10.5264
11.1012
11.741
12.4538
13.2487
14.136
15.1262
16.2301
17.4531
18.7845
20.1902
21.634
23.1048
24.6182
26.2035
27.8966
29.7393
31.7825
34.0903
36.7405
39.8113
43.3327
47.1869
51.0145
54.2706
56.4569
57.3271
56.9092
5.63819
5.65426
5.67703
5.70678
5.74383
5.78855
5.84135
5.90269
5.97308
6.05309
6.14335
6.24458
6.35759
6.48328