/*--------------------------------*- C++ -*----------------------------------*\
  =========                 |
  \\      /  F ield         | OpenFOAM: The Open Source CFD Toolbox
   \\    /   O peration     | Website:  https://openfoam.org
    \\  /    A nd           | Version:  10
     \\/     M anipulation  |
\*---------------------------------------------------------------------------*/
FoamFile
{
    format      ascii;
    class       volScalarField;
    location    "73000";
    object      Co;
}
// * * * * * * * * * * * * * * * * * * * * * * * * * * * * * * * * * * * * * //

dimensions      [0 0 0 0 0 0 0];

internalField   nonuniform List<scalar> 
17969
(
81.4176
64.3449
52.3979
45.9392
50.9121
93.613
159.409
267.966
394.961
530.902
665.02
787.874
893.033
977.283
1040.35
1084.2
1111.81
1126.51
1131.43
1129.19
1121.87
1111.03
1097.81
1082.97
1067.05
1050.4
1033.24
1015.71
997.909
979.905
961.742
943.453
925.065
906.598
888.068
869.49
850.873
832.226
813.559
794.877
776.188
757.496
738.807
720.127
701.461
682.813
664.189
645.592
627.028
608.5
590.013
571.571
553.177
534.836
516.549
498.322
480.156
462.054
444.019
426.053
408.159
390.339
372.594
354.927
337.339
319.833
302.409
285.071
267.819
250.657
233.586
216.609
199.729
182.951
170.876
163.56
162.778
171.392
179.595
187.429
194.936
202.142
209.063
215.713
222.104
228.247
234.149
239.822
245.275
250.521
255.565
260.404
265.042
269.488
273.75
277.837
281.758
285.522
289.137
292.612
81.5646
63.4603
59.6533
51.678
49.5129
54.4987
64.6077
106.891
164.516
259.049
371.078
494.338
620.707
741.77
850.544
942.569
1015.85
1070.6
1108.6
1132.36
1144.61
1147.94
1144.55
1136.24
1124.4
1110.07
1094.01
1076.77
1058.72
1040.11
1021.13
1001.88
982.436
962.867
943.206
923.484
903.721
883.935
864.138
844.339
824.547
804.768
785.008
765.271
745.563
725.887
706.248
686.65
667.096
647.591
628.138
608.739
589.4
570.121
550.908
531.762
512.685
493.681
474.751
455.897
437.121
418.424
399.809
381.276
362.827
344.463
326.185
307.994
289.892
271.88
253.96
236.134
218.405
200.776
188.298
181.01
177.22
186.014
194.381
202.364
210.008
217.336
224.364
231.107
237.576
243.783
249.735
255.44
260.904
266.137
271.15
275.949
280.534
284.911
289.09
293.081
296.893
300.538
304.024
307.36
82.2392
61.2197
64.5501
61.1569
53.3423
48.7113
51.2757
57.4319
66.9823
103.922
153.493
233.039
331.101
442
559.71
677.121
787.538
885.682
968.295
1034
1083.1
1117.14
1138.24
1148.74
1150.86
1146.51
1137.31
1124.55
1109.24
1092.13
1073.79
1054.6
1034.86
1014.75
994.396
973.88
953.262
932.582
911.868
891.141
870.414
849.7
829.006
808.34
787.708
767.115
746.565
726.063
705.612
685.217
664.881
644.608
624.4
604.261
584.194
564.201
544.284
524.445
504.687
485.01
465.417
445.908
426.484
407.147
387.897
368.734
349.659
330.673
311.775
292.967
274.25
255.624
237.092
218.657
205.814
198.589
192.482
200.392
208.91
217.03
224.793
232.225
239.339
246.151
252.672
258.915
264.888
270.597
276.047
281.243
286.191
290.899
295.376
299.628
303.668
307.507
311.157
314.628
317.929
321.072
82.6073
57.448
63.8602
65.0393
62.9636
58.1759
50.6348
47.7691
51.8032
58.2583
67.7302
98.3532
141.131
206.321
291.289
389.331
496.454
607.175
715.637
816.471
905.465
980.014
1039.06
1082.99
1113.22
1131.62
1140.27
1141.07
1135.73
1125.72
1112.23
1096.22
1078.42
1059.38
1039.49
1019.05
998.229
977.166
955.946
934.628
913.25
891.843
870.427
849.016
827.625
806.261
784.934
763.65
742.416
721.236
700.116
679.061
658.074
637.159
616.319
595.558
574.876
554.278
533.763
513.335
492.993
472.74
452.575
432.499
412.511
392.613
372.802
353.08
333.446
313.9
294.44
275.068
255.785
236.592
223.428
216.304
209.527
214.538
223.195
231.432
239.295
246.806
253.982
260.835
267.379
273.624
279.579
285.251
290.647
295.768
300.618
305.2
309.52
313.59
317.427
321.054
324.484
327.727
330.791
333.684
336.419
339.005
341.457
343.788
83.2355
54.0301
60.5903
63.1166
63.3634
62.0198
58.9547
53.6023
49.9308
51.3353
55.8822
62.6484
72.044
95.9315
132.663
183.844
256.219
340.914
435.783
537.083
639.994
739.545
831.208
911.478
978.272
1030.85
1069.75
1096.32
1112.21
1119.23
1119.02
1113.07
1102.69
1088.96
1072.76
1054.77
1035.5
1015.36
994.61
973.444
951.996
930.359
908.595
886.751
864.861
842.95
821.039
799.142
777.274
755.445
733.664
711.94
690.278
668.685
647.165
625.723
604.363
583.085
561.894
540.791
519.776
498.851
478.016
457.271
436.615
416.049
395.569
375.177
354.87
334.646
314.505
294.445
274.465
254.567
241.13
234.149
227.491
228.455
237.233
245.566
253.502
261.066
268.272
275.134
281.663
287.87
293.764
299.351
304.639
309.631
314.331
318.741
322.865
326.708
330.29
333.647
336.804
339.764
342.534
345.119
347.531
349.779
351.879
353.848
84.527
52.4725
58.92
61.8682
63.0945
63.3552
62.6889
60.8864
57.5255
51.9929
49.7542
52.7573
57.5288
64.2854
73.27
90.1243
121.723
160.561
221.877
294.393
377.168
467.936
563.144
658.447
749.494
832.442
904.448
963.974
1010.63
1045.06
1068.49
1082.38
1088.23
1087.45
1081.32
1070.99
1057.42
1041.39
1023.54
1004.36
984.214
963.388
942.077
920.423
898.528
876.469
854.299
832.062
809.789
787.508
765.237
742.994
720.794
698.645
676.56
654.543
632.601
610.739
588.961
567.268
545.663
524.147
502.72
481.383
460.134
438.972
417.895
396.902
375.991
355.158
334.4
313.716
293.102
272.558
258.9
252.108
245.61
242.132
251.007
259.411
267.391
274.974
282.175
289.006
295.477
301.599
307.379
312.825
317.943
322.742
327.227
331.406
335.284
338.868
342.166
345.218
348.055
350.682
353.097
355.305
357.315
359.142
360.803
362.318
86.1364
51.9773
58.5329
61.809
63.5884
64.7044
65.2878
65.2928
64.5595
62.8155
59.6421
54.5039
49.6606
49.7558
54.1639
60.3532
68.5152
78.8513
106.333
139.623
187.983
250.319
322.279
402.686
489.115
578.143
665.868
748.567
823.129
887.377
940.241
981.618
1012.17
1032.96
1045.24
1050.26
1049.18
1043.12
1033.04
1019.79
1004.07
986.477
967.475
947.43
926.62
905.252
883.482
861.424
839.165
816.772
794.295
771.774
749.238
726.713
704.217
681.766
659.372
637.042
614.785
592.606
570.508
548.493
526.563
504.718
482.959
461.283
439.688
418.173
396.732
375.364
354.064
332.826
311.647
290.524
276.706
270.157
263.865
257.976
264.485
272.931
280.921
288.485
295.637
302.388
308.749
314.727
320.331
325.569
330.451
334.988
339.195
343.086
346.672
349.963
352.961
355.688
358.164
360.389
362.366
364.099
365.603
366.896
368.004
368.954
369.778
87.8067
51.709
58.4243
61.9066
63.9273
65.3882
66.4927
67.2735
67.6852
67.6376
66.9639
65.398
62.5723
58.0195
51.1705
46.8939
48.8906
54.2362
61.3939
70.4777
90.3362
119.462
157.736
211.866
274.396
344.971
422.12
503.361
585.544
665.331
739.667
806.124
863.091
909.848
946.461
973.551
992.031
1002.94
1007.26
1005.97
999.988
990.156
977.211
961.8
944.468
925.666
905.752
885.006
863.647
841.839
819.711
797.357
774.853
752.255
729.606
706.941
684.284
661.656
639.072
616.542
594.076
571.679
549.354
527.106
504.934
482.838
460.817
438.866
416.984
395.165
373.404
351.695
330.031
308.405
294.499
288.255
282.223
276.396
277.617
286.068
294.027
301.521
308.568
315.18
321.365
327.131
332.487
337.446
342.027
346.249
350.136
353.708
356.978
359.948
362.607
364.947
366.969
368.679
370.087
371.209
372.067
372.691
373.114
373.376
373.515
373.572
373.585
89.4538
51.3396
58.1602
61.7062
63.7277
65.1997
66.3732
67.3192
68.0507
68.5483
68.7627
68.6027
67.9142
66.4587
63.9066
59.8398
53.738
46.5544
44.9479
49.4849
55.6929
63.7118
77.5144
103.449
133.773
181.087
235.471
296.926
364.722
437.267
512.217
586.832
658.378
724.428
783.1
833.205
874.277
906.485
930.39
946.747
956.339
959.955
958.399
952.432
942.772
930.08
914.945
897.879
879.308
859.585
838.99
817.744
796.02
773.951
751.639
729.162
706.579
683.937
661.269
638.602
615.955
593.342
570.773
548.258
525.803
503.408
481.072
458.794
436.573
414.404
392.28
370.195
348.139
326.104
312.192
306.33
300.629
295.076
291.625
298.719
306.579
313.937
320.816
327.222
333.16
338.642
343.686
348.315
352.561
356.449
360.002
363.234
366.143
368.707
370.892
372.675
374.069
375.09
375.761
376.11
376.171
375.985
375.598
375.059
374.418
373.72
373.011
372.33
91.0983
50.8946
57.7514
61.2328
63.0864
64.3603
65.3441
66.1336
66.7645
67.2463
67.5714
67.715
67.6281
67.2252
66.3712
64.8631
62.4155
58.6533
53.1083
46.0468
43.9295
47.8116
53.2438
60.3852
69.3187
92.5441
119.536
157.836
205.327
258.618
317.523
381.13
447.893
515.748
582.399
645.647
703.598
754.781
798.354
834.085
862.179
883.098
897.403
905.666
908.517
906.594
900.542
890.986
878.52
863.68
846.939
828.698
809.293
788.994
768.02
746.543
724.696
702.583
680.283
657.857
635.351
612.798
590.222
567.652
545.104
522.582
500.087
477.626
455.202
432.812
410.45
388.106
365.774
343.44
329.623
324.231
318.947
313.749
308.626
310.747
318.418
325.553
332.172
338.285
343.909
349.066
353.781
358.081
361.991
365.521
368.672
371.438
373.798
375.724
377.187
378.187
378.75
378.902
378.674
378.106
377.243
376.138
374.849
373.435
371.953
370.458
368.997
367.612
366.335
365.194
92.7973
50.5519
57.4329
60.7739
62.3872
63.3809
64.0734
64.5755
64.9346
65.1718
65.294
65.2991
65.1753
64.8983
64.4229
63.6713
62.5224
60.8034
58.2756
54.6192
49.4306
45.5499
46.0228
49.3428
54.0831
60.4252
68.471
85.806
109.985
140.339
182.11
228.501
279.465
334.627
393.05
453.331
513.73
572.34
627.407
677.474
721.473
758.871
789.589
813.825
831.896
844.152
851.016
852.978
850.579
844.374
834.913
822.718
808.265
791.978
774.223
755.307
735.485
714.963
693.907
672.448
650.688
628.705
606.545
584.301
561.983
539.603
517.187
494.757
472.328
449.902
427.47
405.028
382.568
360.08
346.48
341.661
336.898
332.162
327.434
324.402
329.399
336.213
342.463
348.192
353.433
358.21
362.543
366.439
369.892
372.888
375.412
377.452
378.997
380.038
380.572
380.615
380.198
379.35
378.109
376.525
374.657
372.569
370.331
368.013
365.679
363.388
361.191
359.127
357.23
355.52
354.014
352.721
351.645
350.785
94.5896
50.4604
57.4226
60.589
61.9521
62.6624
63.0579
63.2594
63.3201
63.2659
63.1095
62.8558
62.5042
62.048
61.474
60.7578
59.8578
58.7054
57.1968
55.1851
52.4739
49.0535
47.551
48.5472
50.3485
53.1843
57.2799
62.8255
69.9535
81.7294
103.365
127.765
163.552
204.28
248.654
296.435
347.129
399.848
453.359
506.214
556.874
603.968
646.42
683.596
715.246
741.332
761.895
777.089
787.175
792.501
793.48
790.562
784.215
774.903
763.071
749.127
733.438
716.326
698.066
678.893
658.999
638.547
617.625
596.347
574.771
553.01
531.091
509.068
486.973
464.799
442.551
420.237
397.86
375.415
362.186
358.058
353.931
349.774
345.564
341.282
340.447
345.616
351.47
356.744
361.471
365.673
369.364
372.548
375.224
377.394
379.048
380.172
380.755
380.796
380.304
379.294
377.798
375.856
373.522
370.858
367.938
364.842
361.652
358.445
355.291
352.251
349.374
346.698
344.249
342.045
340.096
338.405
336.97
335.786
96.4934
50.7022
57.8427
60.8401
61.9744
62.4347
62.5728
62.514
62.3136
61.9987
61.5828
61.074
60.4745
59.7833
58.9961
58.1047
57.0954
55.9451
54.8294
54.1284
53.7515
53.4518
53.289
53.3456
53.7299
54.5897
56.1064
58.4871
61.9459
66.6748
72.8184
80.462
98.4832
120.168
148.013
184.075
223.095
264.84
308.918
354.74
401.501
448.147
493.463
536.293
575.694
611.048
641.986
668.299
689.881
706.744
719.004
726.868
730.618
730.586
727.141
720.663
711.533
700.115
686.747
671.74
655.362
637.843
619.411
600.27
580.496
560.252
539.615
518.65
497.388
475.893
454.223
432.397
410.44
388.354
375.722
372.436
369.082
365.631
362.056
358.333
354.447
354.4
358.149
362.864
366.949
370.425
373.306
375.601
377.317
378.462
379.042
379.058
378.518
377.431
375.802
373.641
370.984
367.884
364.413
360.651
356.689
352.619
348.531
344.509
340.624
336.935
333.486
330.309
327.422
324.836
322.553
320.57
318.878
317.468
98.5165
51.3105
58.7109
61.5715
62.5263
62.7977
62.7453
62.4961
62.1055
61.8079
61.7467
61.7568
61.7393
61.6946
61.6226
61.5224
61.3933
61.2352
61.0489
60.8379
60.6098
60.3794
60.1717
60.0219
59.9772
60.1022
60.483
61.2348
62.5049
64.4687
67.3171
71.2369
76.3824
82.8551
94.6066
113.801
135.051
166.527
201.041
237.764
276.354
316.342
357.082
397.772
437.521
475.459
510.885
543.264
572.191
597.37
618.617
635.854
649.098
658.448
664.077
666.212
665.12
661.094
654.434
645.444
634.41
621.606
607.292
591.69
574.957
557.275
538.802
519.746
500.192
480.211
459.878
439.233
418.305
397.097
385.411
383.196
380.823
378.256
375.469
372.439
369.149
365.582
364.709
365.202
368.531
371.171
373.139
374.451
375.121
375.162
374.586
373.409
371.647
369.321
366.45
363.064
359.207
354.946
350.367
345.566
340.646
335.709
330.852
326.157
321.692
317.51
313.645
310.119
306.944
304.12
301.641
299.496
297.671
296.151
100.661
52.3003
60.0098
62.7668
63.6396
64.1636
64.6871
65.0775
65.391
65.6545
65.884
66.0865
66.2662
66.425
66.5632
66.6804
66.7751
66.8459
66.8912
66.9096
66.901
66.8671
66.8131
66.7503
66.6984
66.6862
66.7508
66.9415
67.3232
67.9837
69.0381
70.6291
72.92
76.0811
80.2682
85.6018
92.1452
108.428
127.137
151.291
181.79
214.135
247.985
282.905
318.347
353.653
388.165
421.282
452.478
481.3
507.381
530.435
550.267
566.759
579.876
589.651
596.178
599.602
600.107
597.905
593.222
586.295
577.362
566.654
554.374
540.729
525.859
509.943
493.114
475.503
457.213
438.35
419.038
399.344
389.115
388.284
387.133
385.662
383.859
381.705
379.183
376.276
372.969
369.483
369.031
367.972
367.545
367.837
367.431
366.351
364.618
362.256
359.292
355.754
351.678
347.114
342.126
336.798
331.23
325.533
319.82
314.2
308.767
303.6
298.756
294.278
290.19
286.501
283.212
280.314
277.793
275.63
273.808
272.303
271.095
102.915
53.6668
61.6815
64.7369
66.2712
67.1855
67.8271
68.3322
68.7614
69.145
69.5001
69.8346
70.1546
70.4633
70.7619
71.0505
71.328
71.5926
71.8416
72.0722
72.2812
72.4659
72.624
72.7551
72.8617
72.9511
73.0376
73.1436
73.2988
73.5407
73.9185
74.4979
75.3675
76.6402
78.4513
80.9509
84.2868
88.5855
93.9404
104.235
120.556
138.41
165.136
193.607
223.261
253.659
284.319
314.75
344.476
373.046
400.05
425.129
447.98
468.361
486.094
501.064
513.215
522.546
529.107
532.986
534.307
533.216
529.881
524.471
517.171
508.187
497.676
485.79
472.673
458.474
443.326
427.329
410.573
393.12
384.737
385.477
385.792
385.667
385.092
384.053
382.534
380.519
377.994
374.949
371.373
367.265
363.886
361.322
358.112
354.28
349.853
344.982
340.935
336.32
331.19
325.611
319.668
313.466
307.122
300.759
294.496
288.442
282.684
277.29
272.306
267.76
263.661
260.008
256.791
253.992
251.588
249.557
247.874
246.512
245.448
105.261
55.4282
63.983
67.3545
68.9692
69.9225
70.6027
71.1501
71.6279
72.0682
72.4889
72.9008
73.3101
73.7209
74.1348
74.5525
74.9729
75.3942
75.8135
76.227
76.6302
77.0182
77.3859
77.7283
78.0411
78.3213
78.5685
78.7867
78.9855
79.1823
79.4013
79.6726
80.0346
80.5374
81.2493
82.2593
83.6775
85.6319
88.2591
91.6868
96.0153
101.306
115.312
130.877
150.874
175.749
201.51
227.764
254.115
280.171
305.56
329.93
352.963
374.378
393.935
411.442
426.753
439.769
450.435
458.738
464.702
468.385
469.867
469.251
466.66
462.242
456.135
448.47
439.375
428.979
417.412
404.79
391.213
376.764
370.784
373.361
375.38
376.842
377.744
378.075
377.822
376.972
375.509
373.422
370.702
367.345
363.35
358.723
353.478
347.631
341.208
334.363
328.402
321.893
314.882
307.427
299.59
291.44
283.052
274.502
265.864
259.081
253.279
247.925
243.05
238.667
234.772
231.352
228.388
225.853
223.72
221.96
220.545
219.447
218.639
107.666
57.5292
66.3713
69.7392
71.3099
72.2299
72.8855
73.4176
73.8904
74.3373
74.7773
75.222
75.6788
76.1519
76.6438
77.1552
77.6851
78.2316
78.7911
79.3593
79.9306
80.4987
81.0566
81.5968
82.112
82.5949
83.0392
83.4402
83.7956
84.1069
84.3814
84.6327
84.8819
85.1556
85.486
85.9139
86.4936
87.2964
88.412
89.9472
92.0198
94.7487
98.2383
102.569
111.126
124.589
139.058
159.842
182.016
204.509
226.982
249.112
270.597
291.156
310.541
328.531
344.943
359.627
372.469
383.391
392.347
399.325
404.338
407.424
408.645
408.087
405.844
402.015
396.702
390.009
382.048
372.924
362.738
351.577
348.148
352.578
356.363
359.511
362.023
363.89
365.098
365.632
365.474
364.609
363.025
360.713
357.668
353.891
349.392
344.185
338.29
331.736
324.556
316.785
308.459
299.614
290.28
280.486
270.259
259.628
248.621
239.206
230.454
221.806
213.292
207.85
204.353
201.343
198.792
196.668
194.94
193.575
192.542
191.813
191.359
191.155
110.106
59.8123
68.7155
71.7878
73.234
74.056
74.6296
75.0937
75.5128
75.9209
76.3379
76.7762
77.2437
77.7454
78.2838
78.8597
79.4719
80.118
80.7937
81.4936
82.2109
82.9376
83.665
84.3838
85.0841
85.7563
86.3912
86.9803
87.5166
87.9948
88.4126
88.7711
89.077
89.3428
89.588
89.8383
90.1237
90.4802
90.9527
91.5999
92.4949
93.7255
95.3908
97.5959
100.439
103.998
108.321
119.098
131.456
145.338
164.225
183.306
202.291
220.909
238.908
256.063
272.176
287.075
300.618
312.692
323.209
332.112
339.369
344.969
348.928
351.281
352.079
351.386
349.273
345.82
341.112
335.24
328.291
320.349
319.339
325.423
330.837
335.59
339.68
343.096
345.82
347.831
349.108
349.626
349.366
348.313
346.447
343.771
340.283
335.99
330.908
325.059
318.471
311.18
303.22
294.629
285.442
275.699
265.436
254.693
243.513
231.937
220.009
207.77
195.26
185.523
177.421
170.797
168.792
167.2
165.988
165.12
164.565
164.293
164.277
164.49
112.548
62.107
71.2136
74.134
75.3937
76.0829
76.4879
76.7072
76.7811
76.882
77.1648
77.5609
78.007
78.5083
79.0672
79.6841
80.3573
81.0834
81.8571
82.6715
83.5179
84.3866
85.2668
86.1469
87.015
87.8593
88.6684
89.4315
90.1393
90.7838
91.359
91.8613
92.2899
92.6477
92.9421
93.1867
93.4007
93.6098
93.8438
94.1366
94.5271
95.0644
95.8089
96.8319
98.2136
100.038
102.387
105.325
108.897
114.012
124.442
135.391
147.728
163.732
179.596
195.091
210.009
224.167
237.405
249.589
260.609
270.379
278.836
285.94
291.67
296.029
299.032
300.713
301.116
300.295
298.316
295.249
291.167
286.145
287.261
294.693
301.481
307.631
313.137
317.983
322.145
325.594
328.303
330.237
331.364
331.67
331.099
329.673
327.365
324.173
320.102
315.168
309.391
302.799
295.426
287.307
278.483
268.999
258.902
248.244
237.078
225.456
213.428
201.044
188.35
175.387
162.196
150.168
142.57
138.162
137.552
137.263
137.262
137.519
138.007
138.702
114.974
64.4029
73.6973
76.8351
78.3889
79.3935
80.1156
80.6477
81.0279
81.272
81.385
81.3657
81.2101
80.9123
80.4645
80.0954
80.3719
81.1647
82.0241
82.9412
83.9055
84.9047
85.9257
86.9545
87.9768
88.9786
89.9462
90.8673
91.7307
92.527
93.2486
93.8901
94.4484
94.9229
95.3159
95.633
95.8838
96.0832
96.2512
96.4131
96.5987
96.8408
97.1744
97.6402
98.287
99.1707
100.352
101.895
103.859
106.294
109.235
112.694
117.726
126.818
136.17
145.639
158.632
171.382
183.611
195.172
205.934
215.795
224.669
232.493
239.223
244.835
249.321
252.69
254.964
256.178
256.376
255.612
253.948
251.447
254.336
262.794
270.669
277.962
284.662
290.746
296.187
300.947
304.99
308.274
310.749
312.412
313.17
313.035
311.976
309.976
307.028
303.136
298.308
292.565
285.933
278.444
270.143
261.08
251.311
240.899
229.904
218.389
206.411
194.025
181.281
168.225
154.901
141.347
127.599
116.835
110.244
110.593
111.203
112.044
113.089
114.315
117.357
66.6507
76.0574
79.4606
81.3671
82.7464
83.8425
84.7422
85.4817
86.0757
86.5291
86.8411
87.0075
87.0217
86.8752
86.559
86.063
85.3772
84.4917
83.4279
83.4286
84.5521
85.7069
86.8764
88.0437
89.1924
90.3068
91.3728
92.3777
93.311
94.1643
94.9314
95.6085
96.1941
96.6889
97.0963
97.4219
97.6742
97.8651
98.0103
98.1304
98.2498
98.3971
98.6029
98.8992
99.319
99.8997
100.683
101.713
103.034
104.687
106.707
109.116
111.921
115.113
118.663
126.176
133.859
141.485
149.664
159.593
168.949
177.634
185.568
192.686
198.947
204.323
208.803
212.39
215.102
216.97
218.032
218.337
217.94
222.254
231.447
240.14
248.327
255.991
263.107
269.638
275.544
280.778
285.293
289.023
291.947
293.998
295.136
295.326
294.54
292.757
289.965
286.16
281.35
275.552
268.798
261.13
252.605
243.286
233.244
222.547
211.264
199.46
187.193
174.517
161.483
148.134
134.513
120.657
106.6
92.9175
86.1431
86.867
88.3306
89.9712
91.7661
119.671
68.7352
78.2052
81.9262
84.2383
86.0396
87.5566
88.8711
90.0175
91.0099
91.8525
92.5437
93.0785
93.4497
93.6484
93.6648
93.4884
93.1081
92.5132
91.6934
90.6395
89.3434
87.7991
86.7993
87.2876
88.577
89.8305
91.0323
92.1685
93.2276
94.2006
95.081
95.8649
96.5506
97.1387
97.632
98.035
98.3545
98.599
98.7793
98.9085
99.0024
99.0811
99.1676
99.2876
99.4683
99.738
100.123
100.651
101.35
102.251
103.381
104.767
106.428
108.376
110.61
113.117
115.872
118.835
122.697
128.738
134.6
140.2
145.487
152.496
158.905
164.674
169.774
174.196
177.942
181.027
183.481
185.34
186.651
192.074
201.758
211.035
219.894
228.314
236.264
243.704
250.587
256.86
262.469
267.347
271.431
274.673
277.016
278.41
278.81
278.182
276.496
273.735
269.892
264.977
259.014
252.049
244.141
235.36
225.781
215.481
204.532
193.003
180.957
168.451
155.537
142.261
128.667
114.792
100.674
86.3457
71.8375
64.8367
66.7411
69.0044
71.3957
121.891
70.5474
80.0546
84.1435
86.913
89.1889
91.1788
92.9569
94.5557
95.9887
97.2599
98.3686
99.31
100.077
100.659
101.047
101.228
101.191
100.923
100.414
99.6528
98.6306
97.3405
95.7781
93.9413
91.831
89.9837
89.9263
91.1878
92.3658
93.4508
94.4362
95.3181
96.095
96.7679
97.3395
97.8145
98.199
98.5007
98.7286
98.893
99.0055
99.0799
99.1315
99.1779
99.24
99.3401
99.5007
99.7444
100.093
100.565
101.178
101.951
102.898
104.033
105.363
106.889
108.603
110.488
112.515
114.647
116.837
119.028
121.19
125.422
129.33
132.852
135.933
140.73
145.102
149.006
152.462
155.497
158.149
164.402
174.374
184.039
193.381
202.374
210.984
219.166
226.868
234.032
240.593
246.483
251.629
255.967
259.431
261.957
263.489
263.974
263.368
261.637
258.76
254.739
249.594
243.37
236.13
227.947
218.902
209.074
198.54
187.371
175.632
163.382
150.675
137.558
124.076
110.267
96.1688
81.8154
67.2384
52.4681
47.5323
50.4363
53.4428
123.992
71.9855
81.5261
86.0463
89.3241
92.1163
94.6144
96.8903
98.9758
100.885
102.622
104.186
105.572
106.772
107.776
108.573
109.149
109.491
109.587
109.423
108.988
108.272
107.267
105.968
104.372
102.48
100.297
97.8282
95.0836
92.5264
92.003
93.0894
94.0646
94.9278
95.6801
96.3246
96.8664
97.3116
97.6678
97.9433
98.1477
98.2909
98.384
98.4386
98.4675
98.485
98.5058
98.5467
98.6264
98.7627
98.972
99.2699
99.6694
100.18
100.807
101.558
102.434
103.432
104.543
105.751
107.033
108.356
109.681
110.958
112.133
113.141
113.913
114.372
116.712
118.689
121.034
125.152
129.028
132.693
139.529
149.622
159.512
169.177
178.588
187.707
196.484
204.864
212.783
220.17
226.951
233.047
238.381
242.875
246.456
249.051
250.592
251.019
250.282
248.349
245.211
240.888
235.424
228.882
221.34
212.88
203.584
193.529
182.79
171.432
159.514
147.092
134.212
120.92
107.255
93.2533
78.9505
64.3783
49.5673
36.0147
34.4157
38.0496
125.957
72.9627
82.525
87.5153
91.341
94.6907
97.7379
100.551
103.162
105.585
107.825
109.881
111.747
113.417
114.878
116.119
117.125
117.883
118.376
118.592
118.516
118.138
117.447
116.439
115.111
113.463
111.499
109.226
106.655
103.799
100.672
97.2922
94.1063
93.1431
93.9731
94.6883
95.2942
95.7973
96.2053
96.5267
96.7703
96.9459
97.0632
97.1326
97.1645
97.17
97.1597
97.1457
97.1405
97.1559
97.2054
97.3026
97.4584
97.6812
97.9775
98.351
98.8003
99.3204
99.9037
100.537
101.203
101.875
102.523
103.11
103.589
103.907
104.005
103.813
103.258
102.256
101.569
102.59
105.889
110.29
117.507
127.589
137.571
147.429
157.129
166.628
175.876
184.812
193.368
201.468
209.032
215.973
222.206
227.644
232.197
235.782
238.313
239.715
239.925
238.898
236.622
233.111
228.411
222.586
215.713
207.877
199.159
189.639
179.389
168.475
156.958
144.891
132.321
119.292
105.845
92.0143
77.8356
63.3403
48.5592
33.5217
22.658
25.2695
127.768
73.3982
82.9958
88.5031
92.9153
96.8557
100.483
103.864
107.03
109.997
112.77
115.348
117.726
119.897
121.848
123.566
125.037
126.243
127.168
127.797
128.113
128.103
127.758
127.07
126.035
124.655
122.932
120.875
118.495
115.806
112.825
109.571
106.062
102.32
98.3657
94.5969
93.1937
93.7543
94.2131
94.5789
94.8606
95.0678
95.2099
95.2965
95.3372
95.3415
95.3186
95.2778
95.228
95.1777
95.1361
95.1117
95.1116
95.1432
95.2131
95.3241
95.4747
95.661
95.8755
96.1045
96.3291
96.5271
96.6717
96.7295
96.6603
96.4166
95.9447
95.1832
94.0634
92.5086
90.4349
87.7515
87.1486
90.7365
98.1876
108.168
118.148
128.1
137.988
147.767
157.384
166.775
175.868
184.584
192.835
200.53
207.574
213.87
219.317
223.817
227.269
229.585
230.687
230.526
229.081
226.363
222.425
217.322
211.139
203.956
195.856
186.915
177.207
166.796
155.741
144.094
131.901
119.207
106.048
92.4609
78.4785
64.1322
49.4519
34.4665
19.2044
15.078
129.412
73.2136
82.8683
88.944
93.9767
98.535
102.768
106.741
110.488
114.024
117.355
120.483
123.401
126.102
128.573
130.8
132.766
134.454
135.843
136.917
137.658
138.05
138.08
137.741
137.028
135.94
134.481
132.659
130.488
127.982
125.16
122.042
118.649
115.005
111.132
107.053
102.791
98.3691
94.0469
92.1918
92.5111
92.749
92.915
93.0185
93.0688
93.0747
93.0447
92.9869
92.9087
92.8169
92.7179
92.6172
92.519
92.4279
92.3468
92.2759
92.2143
92.1588
92.1011
92.0278
91.9219
91.7638
91.5283
91.1827
90.6879
89.9998
89.0679
87.8341
86.233
84.192
81.6311
78.4628
74.5919
73.6706
81.2723
91.1092
101.034
111.017
121.024
131.009
140.918
150.686
160.237
169.488
178.347
186.717
194.495
201.572
207.839
213.18
217.485
220.648
222.585
223.241
222.595
220.653
217.479
213.104
207.621
201.112
193.659
185.337
176.215
166.357
155.819
144.653
132.902
120.609
107.808
94.5351
80.8209
66.6954
52.1873
37.3246
22.1349
9.62657
130.887
72.3614
82.0995
88.7767
94.4533
99.6503
104.51
109.096
113.444
117.571
121.484
125.185
128.668
131.925
134.944
137.707
140.199
142.398
144.284
145.836
147.034
147.86
148.299
148.34
147.977
147.209
146.038
144.474
142.53
140.223
137.572
134.601
131.334
127.794
124.007
119.999
115.795
111.417
106.891
102.238
97.4803
92.6378
90.2905
90.381
90.4398
90.4469
90.4105
90.3382
90.2369
90.1124
89.9698
89.8133
89.6457
89.469
89.2836
89.0875
88.8777
88.6487
88.3904
88.0897
87.7317
87.2979
86.7633
86.0962
85.2598
84.2131
82.9069
81.2839
79.2804
76.8259
73.8423
70.2436
65.9363
61.0918
66.3861
76.0786
85.9318
95.9198
106.009
116.156
126.306
136.395
146.345
156.07
165.474
174.453
182.896
190.688
197.704
203.819
208.908
212.857
215.573
216.996
217.104
215.901
213.466
209.828
205.064
199.254
192.478
184.81
176.316
167.059
157.092
146.463
135.215
123.387
111.012
98.122
84.7469
70.9142
56.6507
41.9825
26.9358
11.5369
132.199
70.7812
80.639
87.9355
94.2707
100.122
105.625
110.841
115.809
120.546
125.062
129.357
133.426
137.262
140.851
144.177
147.221
149.961
152.374
154.437
156.126
157.421
158.303
158.758
158.777
158.357
157.502
156.22
154.524
152.434
149.97
147.158
144.025
140.596
136.902
132.968
128.822
124.491
119.999
115.372
110.631
105.8
100.898
95.9457
90.9611
88.0052
87.4853
87.3977
87.2736
87.1184
86.9369
86.7325
86.5072
86.2617
85.995
85.7038
85.383
85.0247
84.6176
84.148
83.6005
82.9552
82.1859
81.2617
80.148
78.8052
77.1852
75.2326
72.8859
70.0765
66.7269
62.7513
58.0568
52.5418
53.1515
62.7258
72.5207
82.5138
92.6752
102.965
113.33
123.706
134.016
144.17
154.069
163.603
172.657
181.102
188.806
195.631
201.442
206.118
209.565
211.72
212.559
212.083
210.354
207.431
203.382
198.28
192.201
185.214
177.383
168.767
159.417
149.377
138.688
127.386
115.501
103.062
90.0956
76.6272
62.6807
48.2798
33.4485
18.2112
6.42888
133.372
68.3916
78.3577
86.3116
93.3323
99.8597
106.023
111.888
117.492
122.858
127.994
132.901
137.577
142.012
146.192
150.102
153.722
157.03
160
162.606
164.821
166.621
167.982
168.886
169.323
169.286
168.777
167.803
166.38
164.527
162.268
159.629
156.641
153.332
149.735
145.879
141.795
137.51
133.053
128.449
123.725
118.902
114.002
109.048
104.057
99.0486
94.0386
89.0429
85.2712
83.8902
83.6696
83.4188
83.1394
82.8314
82.4931
82.1202
81.7064
81.2427
80.7168
80.1142
79.4183
78.6074
77.6542
76.5275
75.1927
73.6095
71.7294
69.4986
66.8577
63.7396
60.068
55.7584
50.7182
44.8442
41.2455
50.7368
60.5
70.5159
80.7581
91.1898
101.761
112.408
123.053
133.606
143.963
154.011
163.626
172.671
181.004
188.477
194.949
200.293
204.413
207.249
208.777
209.012
207.991
205.778
202.442
198.053
192.682
186.396
179.256
171.315
162.622
153.218
143.139
132.419
121.084
109.16
96.6702
83.6362
70.0786
56.0182
41.4758
26.4732
11.0331
134.462
65.2886
75.2927
83.9045
91.6114
98.8156
105.643
112.162
118.414
124.42
130.191
135.728
141.026
146.076
150.865
155.378
159.594
163.493
167.047
170.229
173.005
175.347
177.227
178.622
179.515
179.897
179.768
179.135
178.012
176.42
174.386
171.937
169.107
165.929
162.437
158.664
154.644
150.407
145.985
141.404
136.693
131.876
126.976
122.016
117.015
111.993
106.966
101.952
96.9636
92.0145
87.1161
82.2779
79.6609
79.2138
78.8065
78.357
77.8584
77.3007
76.6714
75.9553
75.1341
74.1852
73.0807
71.7887
70.2738
68.4942
66.4011
63.9403
61.0528
57.6714
53.7203
49.1162
43.7667
37.5683
31.5522
39.865
49.6236
59.6841
70.0229
80.6057
91.3846
102.297
113.264
124.195
134.984
145.511
155.645
165.242
174.15
182.215
189.29
195.248
199.993
203.468
205.652
206.559
206.226
204.713
202.084
198.41
193.756
188.186
181.756
174.518
166.515
157.786
148.363
138.275
127.546
116.197
104.248
91.716
78.6178
64.9704
50.7909
36.0974
20.9095
135.471
61.4936
71.4755
80.7163
89.0798
96.9381
104.416
111.583
118.483
125.138
131.559
137.743
143.681
149.362
154.773
159.901
164.731
169.241
173.405
177.193
180.567
183.492
185.933
187.86
189.251
190.094
190.384
190.126
189.336
188.034
186.249
184.011
181.356
178.322
174.945
171.262
167.311
163.125
158.737
154.179
149.48
144.666
139.763
134.793
129.778
124.738
119.691
114.653
109.639
104.661
99.733
94.8632
90.0597
85.3283
80.6726
76.2502
73.863
73.2163
72.4909
71.6711
70.7375
69.6667
68.4304
66.9961
65.3272
63.3809
61.1079
58.4537
55.3585
51.7542
47.5643
42.7053
37.0843
30.5964
23.8462
29.9204
39.6978
49.8228
60.2741
71.0194
82.012
93.1893
104.473
115.769
126.967
137.943
148.559
158.663
168.097
176.7
184.324
190.845
196.168
200.24
203.042
204.59
204.92
204.087
202.156
199.19
195.253
190.405
184.7
178.183
170.896
162.874
154.144
144.733
134.659
123.939
112.59
100.624
88.0526
74.889
61.1456
46.8361
31.9758
136.439
57.0239
66.9044
76.7232
85.6914
94.1604
102.255
110.049
117.588
124.898
131.984
138.838
145.441