/*--------------------------------*- C++ -*----------------------------------*\
  =========                 |
  \\      /  F ield         | OpenFOAM: The Open Source CFD Toolbox
   \\    /   O peration     | Website:  https://openfoam.org
    \\  /    A nd           | Version:  10
     \\/     M anipulation  |
\*---------------------------------------------------------------------------*/
FoamFile
{
    format      ascii;
    class       surfaceScalarField;
    location    "73000";
    object      phi;
}
// * * * * * * * * * * * * * * * * * * * * * * * * * * * * * * * * * * * * * //

dimensions      [0 3 -1 0 0 0 0];

internalField   nonuniform List<scalar> 
35536
(
-9.94509e-09
-3.58817e-07
-2.00853e-08
-2.80683e-07
1.31375e-08
-2.52787e-07
9.50003e-08
-2.15621e-07
2.46112e-07
-1.66703e-07
4.96769e-07
-9.78814e-08
8.6914e-07
4.22415e-09
1.365e-06
1.50894e-07
1.9618e-06
3.45394e-07
2.61833e-06
5.84445e-07
3.28761e-06
8.55909e-07
3.92712e-06
1.14342e-06
4.50641e-06
1.43064e-06
5.00901e-06
1.7033e-06
5.43105e-06
1.95182e-06
5.77777e-06
2.17267e-06
6.05992e-06
2.36555e-06
6.29003e-06
2.53316e-06
6.47985e-06
2.68018e-06
6.63977e-06
2.81088e-06
6.77836e-06
2.92918e-06
6.90208e-06
3.03865e-06
7.01566e-06
3.14198e-06
7.12248e-06
3.24113e-06
7.22483e-06
3.33751e-06
7.32424e-06
3.43207e-06
7.42167e-06
3.5254e-06
7.51773e-06
3.61783e-06
7.61283e-06
3.70952e-06
7.70724e-06
3.80049e-06
7.80111e-06
3.89072e-06
7.89458e-06
3.98012e-06
7.98773e-06
4.06857e-06
8.08058e-06
4.15592e-06
8.17316e-06
4.24201e-06
8.26545e-06
4.32664e-06
8.35742e-06
4.4096e-06
8.44902e-06
4.49066e-06
8.5402e-06
4.56956e-06
8.63089e-06
4.64602e-06
8.72098e-06
4.71975e-06
8.8104e-06
4.79041e-06
8.89905e-06
4.85766e-06
8.9868e-06
4.92112e-06
9.07355e-06
4.98039e-06
9.15916e-06
5.03503e-06
9.2435e-06
5.08459e-06
9.32642e-06
5.12856e-06
9.40776e-06
5.16641e-06
9.48736e-06
5.19757e-06
9.56501e-06
5.22143e-06
9.64053e-06
5.23734e-06
9.71371e-06
5.24459e-06
9.78429e-06
5.24243e-06
9.85205e-06
5.23005e-06
9.91669e-06
5.2066e-06
9.97793e-06
5.17115e-06
1.00354e-05
5.12271e-06
1.00889e-05
5.06022e-06
1.01379e-05
4.98253e-06
1.01821e-05
4.88844e-06
1.0221e-05
4.77663e-06
1.02543e-05
4.64569e-06
1.02813e-05
4.49413e-06
1.03017e-05
4.32031e-06
1.03148e-05
4.12252e-06
1.03201e-05
3.89887e-06
1.03171e-05
3.64738e-06
1.0305e-05
3.3659e-06
1.02832e-05
3.05213e-06
1.02512e-05
2.70361e-06
1.02081e-05
2.31772e-06
1.01533e-05
1.89165e-06
1.00861e-05
1.42245e-06
1.0008e-05
8.89284e-07
9.92209e-06
3.51805e-07
9.8291e-06
-1.43425e-07
9.72983e-06
-5.98682e-07
9.62485e-06
-1.01613e-06
9.51484e-06
-1.39905e-06
9.40058e-06
-1.75059e-06
9.28262e-06
-2.0727e-06
9.16142e-06
-2.36698e-06
9.03732e-06
-2.63496e-06
8.91053e-06
-2.87813e-06
8.7813e-06
-3.09799e-06
8.65024e-06
-3.2959e-06
8.51866e-06
-3.47286e-06
8.38844e-06
-3.6292e-06
8.26063e-06
-3.76468e-06
8.13449e-06
-3.87946e-06
8.00835e-06
-3.97516e-06
7.88138e-06
-4.05456e-06
7.75359e-06
-4.11982e-06
7.62509e-06
-4.17218e-06
7.49594e-06
-4.21279e-06
7.36624e-06
-4.24271e-06
7.23604e-06
-4.263e-06
7.10542e-06
-4.2746e-06
-4.27845e-06
-7.42252e-09
-3.51388e-07
-2.67295e-08
-2.61384e-07
-1.69721e-08
-2.62551e-07
1.73499e-08
-2.49943e-07
8.04959e-08
-2.29849e-07
1.83013e-07
-2.00399e-07
3.43801e-07
-1.56565e-07
5.87312e-07
-9.26185e-08
9.3342e-07
-7.15947e-10
1.38973e-06
1.28139e-07
1.94659e-06
2.99041e-07
2.57738e-06
5.1264e-07
3.24505e-06
7.62967e-07
3.91065e-06
1.0377e-06
4.54058e-06
1.32188e-06
5.11154e-06
1.60171e-06
5.61121e-06
1.86587e-06
6.03716e-06
2.10721e-06
6.39399e-06
2.32335e-06
6.69057e-06
2.5143e-06
6.93722e-06
2.68253e-06
7.14392e-06
2.83196e-06
7.31981e-06
2.96608e-06
7.47268e-06
3.08826e-06
7.60868e-06
3.20151e-06
7.73259e-06
3.30816e-06
7.84803e-06
3.40995e-06
7.95767e-06
3.50819e-06
8.06337e-06
3.60382e-06
8.1664e-06
3.69746e-06
8.26761e-06
3.78951e-06
8.36757e-06
3.88016e-06
8.46666e-06
3.96948e-06
8.56513e-06
4.05745e-06
8.66314e-06
4.144e-06
8.76079e-06
4.22899e-06
8.85813e-06
4.31226e-06
8.95515e-06
4.39363e-06
9.05185e-06
4.47286e-06
9.14816e-06
4.54971e-06
9.24402e-06
4.62389e-06
9.33934e-06
4.69508e-06
9.43403e-06
4.76297e-06
9.52796e-06
4.82718e-06
9.62103e-06
4.88732e-06
9.71309e-06
4.94297e-06
9.804e-06
4.99368e-06
9.8936e-06
5.03896e-06
9.98172e-06
5.07829e-06
1.00682e-05
5.11112e-06
1.01528e-05
5.13685e-06
1.02353e-05
5.15483e-06
1.03155e-05
5.16439e-06
1.03931e-05
5.1648e-06
1.04679e-05
5.15527e-06
1.05395e-05
5.13496e-06
1.06077e-05
5.10298e-06
1.0672e-05
5.05836e-06
1.07322e-05
5.00006e-06
1.07877e-05
4.92698e-06
1.08383e-05
4.83793e-06
1.08832e-05
4.73164e-06
1.09222e-05
4.60672e-06
1.09546e-05
4.46172e-06
1.09799e-05
4.29505e-06
1.09974e-05
4.105e-06
1.10065e-05
3.88976e-06
1.10066e-05
3.64735e-06
1.09968e-05
3.37566e-06
1.09765e-05
3.07244e-06
1.09449e-05
2.73523e-06
1.09011e-05
2.36145e-06
1.08445e-05
1.94831e-06
1.0774e-05
1.49289e-06
1.06915e-05
9.71815e-07
1.05999e-05
4.4339e-07
1.05003e-05
-4.38268e-08
1.03936e-05
-4.91937e-07
1.02804e-05
-9.02918e-07
1.01613e-05
-1.28002e-06
1.00372e-05
-1.62645e-06
9.90858e-06
-1.94408e-06
9.77605e-06
-2.23446e-06
9.64011e-06
-2.49902e-06
9.50115e-06
-2.73917e-06
9.3594e-06
-2.95625e-06
9.21511e-06
-3.1516e-06
9.06875e-06
-3.3265e-06
8.92147e-06
-3.48192e-06
8.77506e-06
-3.61826e-06
8.63091e-06
-3.73531e-06
8.48867e-06
-3.83291e-06
8.34657e-06
-3.91246e-06
8.20366e-06
-3.97691e-06
8.06003e-06
-4.02855e-06
7.91581e-06
-4.06857e-06
7.77114e-06
-4.09805e-06
7.62615e-06
-4.118e-06
7.48094e-06
-4.12939e-06
-4.13312e-06
-8.57116e-09
-3.42815e-07
-3.12275e-08
-2.38722e-07
-3.73495e-08
-2.56422e-07
-2.88186e-08
-2.5847e-07
-4.87808e-09
-2.53787e-07
3.85759e-08
-2.43852e-07
1.08452e-07
-2.26442e-07
2.13874e-07
-1.98041e-07
3.68406e-07
-1.55248e-07
5.91425e-07
-9.48792e-08
9.02197e-07
-1.17292e-08
1.31358e-06
1.01255e-07
1.82617e-06
2.50384e-07
2.42514e-06
4.38727e-07
3.08239e-06
6.6463e-07
3.7642e-06
9.19903e-07
4.43688e-06
1.1932e-06
5.07195e-06
1.47214e-06
5.64953e-06
1.74577e-06
6.15877e-06
2.00507e-06
6.59732e-06
2.24398e-06
6.96917e-06
2.4601e-06
7.28213e-06
2.65313e-06
7.54521e-06
2.82518e-06
7.76738e-06
2.97934e-06
7.95728e-06
3.11825e-06
8.12239e-06
3.24484e-06
8.26888e-06
3.36169e-06
8.4018e-06
3.4709e-06
8.5251e-06
3.57416e-06
8.64177e-06
3.67285e-06
8.75395e-06
3.76798e-06
8.86313e-06
3.86031e-06
8.97029e-06
3.95028e-06
9.07611e-06
4.03818e-06
9.18098e-06
4.12411e-06
9.28518e-06
4.20806e-06
9.38886e-06
4.28996e-06
9.49208e-06
4.36965e-06
9.59486e-06
4.44692e-06
9.69719e-06
4.52156e-06
9.79901e-06
4.59327e-06
9.90024e-06
4.66174e-06
1.00008e-05
4.72664e-06
1.01005e-05
4.78758e-06
1.01993e-05
4.84416e-06
1.02971e-05
4.89594e-06
1.03936e-05
4.94246e-06
1.04887e-05
4.98319e-06
1.05822e-05
5.01762e-06
1.06739e-05
5.04514e-06
1.07636e-05
5.06515e-06
1.0851e-05
5.07698e-06
1.09358e-05
5.07993e-06
1.10179e-05
5.07323e-06
1.10968e-05
5.05607e-06
1.11722e-05
5.02758e-06
1.12437e-05
4.98683e-06
1.1311e-05
4.93281e-06
1.13735e-05
4.86446e-06
1.14308e-05
4.78061e-06
1.14824e-05
4.68004e-06
1.15277e-05
4.56141e-06
1.15661e-05
4.42329e-06
1.15971e-05
4.26414e-06
1.16198e-05
4.0823e-06
1.16335e-05
3.87599e-06
1.16376e-05
3.64328e-06
1.16312e-05
3.38211e-06
1.16134e-05
3.09024e-06
1.15833e-05
2.76529e-06
1.15401e-05
2.40468e-06
1.14827e-05
2.00567e-06
1.14102e-05
1.56536e-06
1.13243e-05
1.05771e-06
1.12282e-05
5.39521e-07
1.1123e-05
6.13764e-08
1.10097e-05
-3.78659e-07
1.08892e-05
-7.82359e-07
1.07619e-05
-1.1528e-06
1.06287e-05
-1.49322e-06
1.04902e-05
-1.80552e-06
1.03469e-05
-2.09118e-06
1.01995e-05
-2.35162e-06
1.00485e-05
-2.58816e-06
9.8943e-06
-2.80207e-06
9.73725e-06
-2.99455e-06
9.57758e-06
-3.16682e-06
9.41568e-06
-3.32002e-06
9.2525e-06
-3.45508e-06
9.08963e-06
-3.57244e-06
8.9287e-06
-3.67198e-06
8.76964e-06
-3.75341e-06
8.61082e-06
-3.81809e-06
8.45136e-06
-3.86909e-06
8.29143e-06
-3.90864e-06
8.13123e-06
-3.93786e-06
7.97093e-06
-3.9577e-06
7.81066e-06
-3.96911e-06
-3.97298e-06
-7.32181e-09
-3.35503e-07
-2.58653e-08
-2.20177e-07
-3.828e-08
-2.44004e-07
-4.27615e-08
-2.5399e-07
-3.9013e-08
-2.57538e-07
-2.51322e-08
-2.57735e-07
2.61162e-09
-2.54187e-07
4.95614e-08
-2.44991e-07
1.22024e-07
-2.27711e-07
2.27145e-07
-2.00002e-07
3.74936e-07
-1.59522e-07
5.7997e-07
-1.03781e-07
8.59694e-07
-2.93423e-08
1.2294e-06
6.90143e-08
1.69599e-06
1.98046e-07
2.25397e-06
3.61925e-07
2.88524e-06
5.61924e-07
3.56285e-06
7.94538e-07
4.25609e-06
1.05253e-06
4.93494e-06
1.32622e-06
5.57412e-06
1.6048e-06
6.15591e-06
1.87832e-06
6.67078e-06
2.13825e-06
7.11724e-06
2.37872e-06
7.49941e-06
2.59717e-06
7.82457e-06
2.79309e-06
8.10073e-06
2.96869e-06
8.33611e-06
3.12631e-06
8.53893e-06
3.26808e-06
8.71627e-06
3.39683e-06
8.87418e-06
3.51493e-06
9.01773e-06
3.62443e-06
9.15099e-06
3.72705e-06
9.27703e-06
3.82424e-06
9.39809e-06
3.91712e-06
9.51575e-06
4.00646e-06
9.63104e-06
4.09277e-06
9.74464e-06
4.17635e-06
9.857e-06
4.25729e-06
9.96835e-06
4.33557e-06
1.00789e-05
4.41106e-06
1.01886e-05
4.48356e-06
1.02975e-05
4.55282e-06
1.04056e-05
4.61854e-06
1.05128e-05
4.68038e-06
1.0619e-05
4.73794e-06
1.07241e-05
4.79083e-06
1.0828e-05
4.83858e-06
1.09305e-05
4.88071e-06
1.10314e-05
4.9167e-06
1.11305e-05
4.94599e-06
1.12277e-05
4.96799e-06
1.13226e-05
4.98205e-06
1.14151e-05
4.9875e-06
1.15047e-05
4.98361e-06
1.15912e-05
4.96958e-06
1.16742e-05
4.94458e-06
1.17533e-05
4.90772e-06
1.18281e-05
4.85803e-06
1.1898e-05
4.79448e-06
1.19627e-05
4.71595e-06
1.20215e-05
4.62125e-06
1.20738e-05
4.5091e-06
1.2119e-05
4.37812e-06
1.21563e-05
4.2268e-06
1.2185e-05
4.05356e-06
1.22044e-05
3.85665e-06
1.22134e-05
3.63421e-06
1.22113e-05
3.38421e-06
1.21971e-05
3.10448e-06
1.21697e-05
2.79268e-06
1.21281e-05
2.44628e-06
1.20712e-05
2.06258e-06
1.19978e-05
1.6387e-06
1.19097e-05
1.14586e-06
1.181e-05
6.39184e-07
1.17002e-05
1.71251e-07
1.15812e-05
-2.59713e-07
1.14541e-05
-6.55249e-07
1.13194e-05
-1.0181e-06
1.11777e-05
-1.35156e-06
1.10298e-05
-1.65761e-06
1.08763e-05
-1.93769e-06
1.07179e-05
-2.19316e-06
1.0555e-05
-2.42532e-06
1.03884e-05
-2.63539e-06
1.02183e-05
-2.82452e-06
1.00453e-05
-2.9938e-06
9.86958e-06
-3.14431e-06
9.69157e-06
-3.27706e-06
9.51202e-06
-3.3929e-06
9.33235e-06
-3.49231e-06
9.1542e-06
-3.57525e-06
8.97769e-06
-3.64158e-06
8.8015e-06
-3.6929e-06
8.62515e-06
-3.73229e-06
8.44886e-06
-3.76157e-06
8.27279e-06
-3.78163e-06
8.09704e-06
-3.79337e-06
7.92172e-06
-3.79766e-06
7.74692e-06
-3.79539e-06
7.57277e-06
-3.78744e-06
7.39942e-06
-3.77464e-06
-3.75777e-06
-4.58036e-09
-3.30924e-07
-1.61362e-08
-2.0862e-07
-2.57179e-08
-2.34417e-07
-3.23235e-08
-2.47379e-07
-3.51596e-08
-2.54698e-07
-3.32648e-08
-2.59627e-07
-2.48667e-08
-2.62582e-07
-6.88085e-09
-2.62974e-07
2.49825e-08
-2.59571e-07
7.56058e-08
-2.50623e-07
1.50341e-07
-2.34256e-07
2.55032e-07
-2.08472e-07
3.96905e-07
-1.71216e-07
5.86373e-07
-1.20453e-07
8.37828e-07
-5.34083e-08
1.16604e-06
3.37103e-08
1.58174e-06
1.46226e-07
2.08726e-06
2.89026e-07
2.67411e-06
4.65675e-07
3.32358e-06
6.76743e-07
4.01035e-06
9.18027e-07
4.70618e-06
1.18248e-06
5.38377e-06
1.46066e-06
6.0206e-06
1.74189e-06
6.60123e-06
2.01654e-06
7.11785e-06
2.27648e-06
7.57015e-06
2.51639e-06
7.96227e-06
2.73419e-06
8.30051e-06
2.92985e-06
8.5917e-06
3.10563e-06
8.84324e-06
3.26339e-06
9.06251e-06
3.40516e-06
9.25601e-06
3.53355e-06
9.42944e-06
3.65082e-06
9.58762e-06
3.75893e-06
9.73453e-06
3.85955e-06
9.87322e-06
3.95408e-06
1.0006e-05
4.04359e-06
1.01344e-05
4.12884e-06
1.02597e-05
4.21031e-06
1.03825e-05
4.28825e-06
1.05033e-05
4.36272e-06
1.06225e-05
4.43364e-06
1.07402e-05
4.50083e-06
1.08566e-05
4.56405e-06
1.09715e-05
4.62297e-06
1.10851e-05
4.67723e-06
1.11973e-05
4.72641e-06
1.13079e-05
4.77008e-06
1.14169e-05
4.80773e-06
1.15241e-05
4.83884e-06
1.16292e-05
4.86285e-06
1.17321e-05
4.87915e-06
1.18325e-05
4.88709e-06
1.19302e-05
4.88598e-06
1.20247e-05
4.87506e-06
1.21157e-05
4.85355e-06
1.22028e-05
4.82058e-06
1.22857e-05
4.77523e-06
1.23636e-05
4.71651e-06
1.24362e-05
4.64336e-06
1.25028e-05
4.55465e-06
1.25628e-05
4.44912e-06
1.26155e-05
4.32547e-06
1.266e-05
4.18225e-06
1.26956e-05
4.01793e-06
1.27215e-05
3.83083e-06
1.27365e-05
3.61915e-06
1.27398e-05
3.38094e-06
1.27302e-05
3.11408e-06
1.27066e-05
2.8163e-06
1.26677e-05
2.48512e-06
1.26124e-05
2.11791e-06
1.25393e-05
1.7118e-06
1.24499e-05
1.23523e-06
1.23477e-05
7.41441e-07
1.2234e-05
2.84951e-07
1.21101e-05
-1.35873e-07
1.19772e-05
-5.22298e-07
1.18356e-05
-8.76542e-07
1.16861e-05
-1.20201e-06
1.15293e-05
-1.50081e-06
1.13659e-05
-1.77435e-06
1.11967e-05
-2.02395e-06
1.10223e-05
-2.25086e-06
1.08431e-05
-2.45626e-06
1.06599e-05
-2.64128e-06
1.04731e-05
-2.80697e-06
1.02831e-05
-2.95434e-06
1.00904e-05
-3.08434e-06
9.89538e-06
-3.19789e-06
9.69885e-06
-3.29578e-06
9.50207e-06
-3.37847e-06
9.30653e-06
-3.44604e-06
9.11238e-06
-3.49875e-06
8.91894e-06
-3.53885e-06
8.72607e-06
-3.56869e-06
8.53382e-06
-3.58938e-06
8.3422e-06
-3.60175e-06
8.15124e-06
-3.6067e-06
7.96101e-06
-3.60516e-06
7.77161e-06
-3.59804e-06
7.5832e-06
-3.58623e-06
-3.57058e-06
-3.38124e-09
-3.27539e-07
-1.12754e-08
-2.00738e-07
-1.89175e-08
-2.26789e-07
-2.56401e-08
-2.40657e-07
-3.09771e-08
-2.49361e-07
-3.42943e-08
-2.5631e-07
-3.47471e-08
-2.62131e-07
-3.08925e-08
-2.6683e-07
-2.04951e-08
-2.6997e-07
-3.79317e-10
-2.70739e-07
3.33228e-08
-2.67958e-07
8.50106e-08
-2.60159e-07
1.59376e-07
-2.4558e-07
2.61198e-07
-2.22275e-07
3.96032e-07
-1.88243e-07
5.71248e-07
-1.41506e-07
7.97331e-07
-7.98575e-08
1.08701e-06
-6.55681e-10
1.45298e-06
9.9704e-08
1.90298e-06
2.2674e-07
2.43645e-06
3.84559e-07
3.04324e-06
5.75697e-07
3.7046e-06
7.99296e-07
4.39622e-06
1.05028e-06
5.09179e-06
1.32097e-06
5.76655e-06
1.60172e-06
6.40086e-06
1.88208e-06
6.98168e-06
2.15337e-06
7.50278e-06
2.40875e-06
7.96448e-06
2.64393e-06
8.37045e-06
2.85741e-06
8.72574e-06
3.04987e-06
9.036e-06
3.22329e-06
9.30765e-06
3.37916e-06
9.54713e-06
3.51945e-06
9.76026e-06
3.64643e-06
9.95224e-06
3.7621e-06
1.01276e-05
3.86818e-06
1.02903e-05
3.96618e-06
1.04433e-05
4.05734e-06
1.05889e-05
4.14263e-06
1.07289e-05
4.22271e-06
1.08645e-05
4.29801e-06
1.09966e-05
4.36872e-06
1.11258e-05
4.43484e-06
1.12525e-05
4.49627e-06
1.1377e-05
4.55278e-06
1.14993e-05
4.60406e-06
1.16197e-05
4.64975e-06
1.1738e-05
4.68943e-06
1.18542e-05
4.72263e-06
1.19682e-05
4.74884e-06
1.20798e-05
4.76749e-06
1.21889e-05
4.778e-06
1.22952e-05
4.77971e-06
1.23983e-05
4.77192e-06
1.2498e-05
4.75389e-06
1.25938e-05
4.7248e-06
1.26852e-05
4.6838e-06
1.27718e-05
4.62994e-06
1.28529e-05
4.56221e-06
1.2928e-05
4.47953e-06
1.29964e-05
4.38074e-06
1.30573e-05
4.26456e-06
1.31099e-05
4.12965e-06
1.31533e-05
3.97452e-06
1.31866e-05
3.79759e-06
1.32086e-05
3.59712e-06
1.32183e-05
3.37125e-06
1.32144e-05
3.11795e-06
1.31957e-05
2.83502e-06
1.31607e-05
2.52007e-06
1.31081e-05
2.17052e-06
1.30364e-05
1.78357e-06
1.29468e-05
1.32481e-06
1.28428e-05
8.45418e-07
1.2726e-05
4.01747e-07
1.25979e-05
-7.74942e-09
1.24596e-05
-3.84064e-07
1.23118e-05
-7.28695e-07
1.21549e-05
-1.04508e-06
1.19896e-05
-1.33554e-06
1.18167e-05
-1.6015e-06
1.1637e-05
-1.84421e-06
1.1451e-05
-2.06488e-06
1.12594e-05
-2.26467e-06
1.10628e-05
-2.44467e-06
1.08618e-05
-2.60595e-06
1.06569e-05
-2.74949e-06
1.04489e-05
-2.87627e-06
1.02382e-05
-2.9872e-06
1.00255e-05
-3.08311e-06
9.81176e-06
-3.16473e-06
9.59817e-06
-3.23245e-06
9.38589e-06
-3.28647e-06
9.17509e-06
-3.32804e-06
8.96541e-06
-3.35902e-06
8.75666e-06
-3.38062e-06
8.54869e-06
-3.39378e-06
8.34146e-06
-3.39947e-06
8.13502e-06
-3.39871e-06
7.92949e-06
-3.39251e-06
7.72509e-06
-3.38183e-06
-3.36761e-06
-3.24121e-09
-3.24292e-07
-1.02881e-08
-1.93681e-07
-1.77454e-08
-2.19325e-07
-2.50564e-08
-2.3334e-07
-3.19574e-08
-2.42459e-07
-3.81724e-08
-2.50095e-07
-4.32666e-08
-2.57037e-07
-4.66467e-08
-2.63451e-07
-4.74041e-08
-2.69214e-07
-4.40259e-08
-2.74118e-07
-3.43302e-08
-2.77653e-07
-1.54668e-08
-2.79022e-07
1.61322e-08
-2.77178e-07
6.4632e-08
-2.70773e-07
1.34457e-07
-2.58067e-07
2.30051e-07
-2.371e-07
3.5605e-07
-2.05856e-07
5.1784e-07
-1.62446e-07
7.22735e-07
-1.05191e-07
9.81059e-07
-3.1584e-08
1.30462e-06
6.10021e-08
1.70418e-06
1.76138e-07
2.18495e-06
3.18525e-07
2.74374e-06
4.91486e-07
3.36865e-06
6.96059e-07
4.04077e-06
9.29599e-07
4.73662e-06
1.18623e-06
5.43201e-06
1.45798e-06
6.10505e-06
1.7357e-06
6.73897e-06
2.01002e-06
7.32277e-06
2.27362e-06
7.85157e-06
2.52107e-06
8.32581e-06
2.74905e-06
8.7484e-06
2.95658e-06
9.12309e-06
3.14476e-06
9.45449e-06
3.31503e-06
9.74811e-06
3.46848e-06
1.00093e-05
3.607e-06
1.02431e-05
3.73234e-06
1.04544e-05
3.84606e-06
1.06475e-05
3.94958e-06
1.0826e-05
4.04415e-06
1.09932e-05
4.13085e-06
1.11514e-05
4.21052e-06
1.13025e-05
4.28373e-06
1.14479e-05
4.35084e-06
1.15887e-05
4.41201e-06
1.17255e-05
4.46721e-06
1.1859e-05
4.5163e-06
1.19894e-05
4.55905e-06
1.21169e-05
4.59511e-06
1.22416e-05
4.62409e-06
1.23636e-05
4.64553e-06
1.24827e-05
4.65891e-06
1.25987e-05
4.66365e-06
1.27115e-05
4.65914e-06
1.28207e-05
4.64469e-06
1.2926e-05
4.61955e-06
1.30268e-05
4.58294e-06
1.31228e-05
4.53396e-06
1.32133e-05
4.4717e-06
1.32977e-05
4.39513e-06
1.33753e-05
4.30314e-06
1.34453e-05
4.19456e-06
1.35069e-05
4.06812e-06
1.3559e-05
3.92242e-06
1.36006e-05
3.75596e-06
1.36306e-05
3.5671e-06
1.36478e-05
3.35409e-06
1.36507e-05
3.11499e-06
1.36381e-05
2.84771e-06
1.36082e-05
2.54996e-06
1.35595e-05
2.21924e-06
1.34902e-05
1.85286e-06
1.34014e-05
1.41357e-06
1.32966e-05
9.50272e-07
1.31773e-05
5.21031e-07
1.30452e-05
1.24287e-07
1.2902e-05
-2.40832e-07
1.27484e-05
-5.75084e-07
1.25846e-05
-8.8128e-07
1.24112e-05
-1.16215e-06
1.2229e-05
-1.41929e-06
1.20387e-05
-1.65396e-06
1.18412e-05
-1.8673e-06
1.16369e-05
-2.06041e-06
1.14266e-05
-2.2344e-06
1.1211e-05
-2.39034e-06
1.09908e-05
-2.52931e-06
1.07669e-05
-2.65236e-06
1.05402e-05
-2.76045e-06
1.03115e-05
-2.85443e-06
1.00818e-05
-2.93498e-06
9.85188e-06
-3.00258e-06
9.62289e-06
-3.05748e-06
9.39521e-06
-3.10037e-06
9.1686e-06
-3.13241e-06
8.94272e-06
-3.15474e-06
8.71742e-06
-3.16848e-06
8.4927e-06
-3.17476e-06
8.26869e-06
-3.1747e-06
8.04562e-06
-3.16944e-06
7.82383e-06
-3.16005e-06
7.60376e-06
-3.14754e-06
-3.1328e-06
-3.41304e-09
-3.20887e-07
-1.05144e-08
-1.86576e-07
-1.80311e-08
-2.11803e-07
-2.54948e-08
-2.25881e-07
-3.28499e-08
-2.35107e-07
-4.00228e-08
-2.42924e-07
-4.68756e-08
-2.50185e-07
-5.31978e-08
-2.57128e-07
-5.86076e-08
-2.63804e-07
-6.25672e-08
-2.70159e-07
-6.41785e-08
-2.76043e-07
-6.20338e-08
-2.81168e-07
-5.41731e-08
-2.8504e-07
-3.8041e-08
-2.86906e-07
-1.03367e-08
-2.85771e-07
3.29678e-08
-2.80404e-07
9.62614e-08
-2.69148e-07
1.83947e-07
-2.5013e-07
3.00113e-07
-2.21356e-07
4.49401e-07
-1.80872e-07
6.37405e-07
-1.27002e-07
8.71579e-07
-5.8036e-08
1.16178e-06
2.83265e-08
1.51876e-06
1.34501e-07
1.95097e-06
2.63854e-07
2.46064e-06
4.19924e-07
3.04199e-06
6.04887e-07
3.68172e-06
8.18253e-07
4.3613e-06
1.05611e-06
5.0588e-06
1.31253e-06
5.75246e-06
1.57995e-06
6.42339e-06
1.85015e-06
7.0572e-06
2.11524e-06
7.64459e-06
2.36918e-06
8.18181e-06
2.60755e-06
8.66923e-06
2.82761e-06
9.10879e-06
3.02892e-06
9.50295e-06
3.21284e-06
9.85539e-06
3.3799e-06
1.01705e-05
3.53095e-06
1.04527e-05
3.66735e-06
1.07066e-05
3.79032e-06
1.09364e-05
3.90102e-06
1.11464e-05
4.00055e-06
1.13401e-05
4.08996e-06
1.15208e-05
4.17015e-06
1.1691e-05
4.24185e-06
1.18526e-05
4.30556e-06
1.20073e-05
4.36161e-06
1.21562e-05
4.41014e-06
1.23002e-05
4.45114e-06
1.24398e-05
4.48447e-06
1.25755e-05
4.50988e-06
1.27074e-05
4.52702e-06
1.28355e-05
4.53547e-06
1.296e-05
4.53472e-06
1.30804e-05
4.52422e-06
1.31967e-05
4.50331e-06
1.33083e-05
4.47129e-06
1.34149e-05
4.42736e-06
1.35159e-05
4.37069e-06
1.36107e-05
4.30034e-06
1.36986e-05
4.21527e-06
1.37787e-05
4.11441e-06
1.38502e-05
3.9966e-06
1.39121e-05
3.86056e-06
1.39632e-05
3.70485e-06
1.40023e-05
3.52797e-06
1.40282e-05
3.32827e-06
1.40392e-05
3.10398e-06
1.40338e-05
2.85311e-06
1.40102e-05
2.5735e-06
1.39667e-05
2.2628e-06
1.39011e-05
1.91841e-06
1.38143e-05
1.50037e-06
1.37095e-05
1.05509e-06
1.35883e-05
6.42186e-07
1.34526e-05
2.6001e-07
1.33043e-05
-9.25124e-08
1.31449e-05
-4.15715e-07
1.29745e-05
-7.10807e-07
1.2793e-05
-9.8072e-07
1.26015e-05
-1.22773e-06
1.24006e-05
-1.45309e-06
1.21912e-05
-1.65788e-06
1.1974e-05
-1.84318e-06
1.17497e-05
-2.01014e-06
1.15193e-05
-2.15996e-06
1.12838e-05
-2.29385e-06
1.10444e-05
-2.41293e-06
1.08022e-05
-2.5182e-06
1.05582e-05
-2.61049e-06
1.03135e-05
-2.69023e-06
1.00685e-05
-2.75759e-06
9.82371e-06
-2.81269e-06
9.57908e-06
-2.85574e-06
9.3345e-06
-2.88782e-06
9.08994e-06
-2.91018e-06
8.8455e-06
-2.92404e-06
8.60138e-06
-2.93064e-06
8.35793e-06
-2.93125e-06
8.11559e-06
-2.92709e-06
7.87488e-06
-2.91934e-06
7.63639e-06
-2.90905e-06
7.40075e-06
-2.89716e-06
7.1686e-06
-2.88442e-06
-2.87141e-06
-3.48776e-09
-3.17404e-07
-1.04255e-08
-1.79637e-07
-1.7483e-08
-2.0474e-07
-2.43397e-08
-2.19022e-07
-3.11035e-08
-2.28341e-07
-3.78252e-08
-2.362e-07
-4.44904e-08
-2.43517e-07
-5.1039e-08
-2.50577e-07
-5.73622e-08
-2.57478e-07
-6.32829e-08
-2.64236e-07
-6.85097e-08
-2.70815e-07
-7.25558e-08
-2.77122e-07
-7.46136e-08
-2.82982e-07
-7.34141e-08
-2.88106e-07
-6.71326e-08
-2.92053e-07
-5.33844e-08
-2.94152e-07
-2.90653e-08
-2.93467e-07
9.59428e-09
-2.8879e-07
6.68532e-08
-2.78614e-07
1.47145e-07
-2.61163e-07
2.54676e-07
-2.34533e-07
3.93446e-07
-1.96807e-07
5.68039e-07
-1.46268e-07
7.84058e-07
-8.15185e-08
1.04875e-06
-8.43167e-10
1.37102e-06
9.76619e-08
1.75997e-06
2.15929e-07
2.22135e-06
3.5688e-07
2.75454e-06
5.22918e-07
3.35187e-06
7.15197e-07
3.99972e-06
9.321e-07
4.68066e-06
1.16921e-06
5.37484e-06
1.42105e-06
6.06312e-06
1.68091e-06
6.72923e-06
1.94144e-06
7.36078e-06
2.19605e-06
7.94993e-06
2.43978e-06
8.49419e-06
2.66858e-06
8.99353e-06
2.88055e-06
9.44852e-06
3.07596e-06
9.86069e-06
3.25519e-06
1.02328e-05
3.41823e-06
1.0568e-05
3.5658e-06
1.087e-05
3.69854e-06
1.11428e-05
3.81718e-06
1.13904e-05
3.92254e-06
1.16168e-05
4.01549e-06
1.18254e-05
4.09688e-06
1.20196e-05
4.1675e-06
1.22017e-05
4.228e-06
1.2374e-05
4.27886e-06
1.2538e-05
4.32041e-06
1.26951e-05
4.3528e-06
1.28461e-05
4.37604e-06
1.29915e-05
4.38999e-06
1.31319e-05
4.39441e-06
1.32672e-05
4.38891e-06
1.33974e-05
4.37304e-06
1.35225e-05
4.34625e-06
1.3642e-05
4.30788e-06
1.37555e-05
4.2572e-06
1.38624e-05
4.19339e-06
1.39622e-05
4.11548e-06
1.4054e-05
4.02256e-06
1.4137e-05
3.91365e-06
1.421e-05
3.78755e-06
1.42719e-05
3.64291e-06
1.43216e-05
3.47836e-06
1.43574e-05
3.29243e-06
1.43779e-05
3.08351e-06
1.43812e-05
2.84979e-06
1.43654e-05
2.58926e-06
1.43285e-05
2.29973e-06
1.42681e-05
1.97879e-06
1.41846e-05
1.58385e-06
1.4081e-05
1.15871e-06
1.39589e-05
7.64329e-07
1.38199e-05
3.98977e-07
1.36661e-05
6.13166e-08
1.34995e-05
-2.49198e-07
1.33214e-05
-5.327e-07
1.31318e-05
-7.91066e-07
1.29309e-05
-1.02681e-06
1.27193e-05
-1.24155e-06
1.24979e-05
-1.43651e-06
1.22677e-05
-1.61295e-06
1.20298e-05
-1.77217e-06
1.17853e-05
-1.9155e-06
1.15358e-05
-2.0443e-06
1.12823e-05
-2.15951e-06
1.10261e-05
-2.26192e-06
1.07677e-05
-2.35218e-06
1.0508e-05
-2.43051e-06
1.0247e-05
-2.49654e-06
9.98435e-06
-2.55006e-06
9.72031e-06
-2.5917e-06
9.45526e-06
-2.62277e-06
9.18959e-06
-2.64451e-06
8.92375e-06
-2.6582e-06
8.65824e-06
-2.66514e-06
8.39366e-06
-2.66666e-06
8.13066e-06
-2.66409e-06
7.86997e-06
-2.65865e-06
7.61235e-06
-2.65143e-06
7.35854e-06
-2.64336e-06
7.10928e-06
-2.63516e-06
6.86524e-06
-2.62737e-06
-2.62031e-06
-3.36234e-09
-3.14038e-07
-9.58135e-09
-1.73427e-07
-1.5537e-08
-1.98793e-07
-2.11168e-08
-2.13442e-07
-2.65291e-08
-2.22928e-07
-3.18819e-08
-2.30847e-07
-3.72166e-08
-2.38183e-07
-4.25399e-08
-2.45255e-07
-4.78338e-08
-2.52185e-07
-5.30538e-08
-2.59017e-07
-5.81179e-08
-2.65751e-07
-6.288e-08
-2.72359e-07
-6.70803e-08
-2.78781e-07
-7.02704e-08
-2.84915e-07
-7.17381e-08
-2.90585e-07
-7.03867e-08
-2.95503e-07
-6.46019e-08
-2.99253e-07
-5.21374e-08
-3.01256e-07
-3.00594e-08
-3.00694e-07
5.23638e-09
-2.9646e-07
5.78792e-08
-2.87176e-07
1.3227e-07
-2.71197e-07
2.32706e-07
-2.46703e-07
3.63008e-07
-2.1182e-07
5.26991e-07
-1.64825e-07
7.29005e-07
-1.04351e-07
9.7425e-07
-2.93157e-08
1.26919e-06
6.1943e-08
1.62114e-06
1.70962e-07
2.03732e-06
2.9902e-07
2.52097e-06
4.48446e-07
3.06938e-06
6.20801e-07
3.674e-06
8.16428e-07
4.3218e-06
1.03311e-06
4.99679e-06
1.26645e-06
5.68144e-06
1.5114e-06
6.35908e-06
1.76215e-06
7.01576e-06
2.0119e-06
7.64118e-06
2.25513e-06
8.22968e-06
2.48747e-06
8.77913e-06
2.70574e-06
9.28833e-06
2.90902e-06
9.75676e-06
3.09738e-06
1.01851e-05
3.27018e-06
1.0575e-05
3.42732e-06
1.09287e-05
3.56881e-06
1.12494e-05
3.69483e-06
1.15405e-05
3.80576e-06
1.18058e-05
3.90221e-06
1.20489e-05
3.98491e-06
1.22731e-05
4.05461e-06
1.24815e-05
4.11204e-06
1.26765e-05
4.15779e-06
1.28602e-05
4.19234e-06
1.30342e-05
4.21599e-06
1.31997e-05
4.22891e-06
1.33576e-05
4.23108e-06
1.35083e-05
4.22235e-06
1.36521e-05
4.20244e-06
1.3789e-05
4.17095e-06
1.39188e-05
4.12734e-06
1.40412e-05
4.07101e-06
1.41559e-05
4.00084e-06
1.42621e-05
3.91634e-06
1.43589e-05
3.81688e-06
1.44452e-05
3.70126e-06
1.45199e-05
3.56814e-06
1.45819e-05
3.41634e-06
1.46297e-05
3.24468e-06
1.46614e-05
3.05179e-06
1.46752e-05
2.83601e-06
1.46689e-05
2.59551e-06
1.46403e-05
2.32834e-06
1.45868e-05
2.0323e-06
1.45083e-05
1.66242e-06
1.44073e-05
1.25966e-06
1.42854e-05
8.86185e-07
1.41442e-05
5.4024e-07
1.39852e-05
2.20327e-07
1.38106e-05
-7.45899e-08
1.36228e-05
-3.44966e-07
1.34232e-05
-5.91463e-07
1.32118e-05
-8.15436e-07
1.29892e-05
-1.01889e-06
1.27563e-05
-1.20363e-06
1.25145e-05
-1.37114e-06
1.2265e-05
-1.52268e-06
1.2009e-05
-1.65946e-06
1.17473e-05
-1.78267e-06
1.14809e-05
-1.89306e-06
1.12101e-05
-1.99114e-06
1.09353e-05
-2.07733e-06
1.06567e-05
-2.1519e-06
1.03749e-05
-2.21475e-06
1.00904e-05
-2.26556e-06
9.80378e-06
-2.30511e-06
9.5158e-06
-2.33479e-06
9.22714e-06
-2.35586e-06
8.9385e-06
-2.36956e-06
8.65062e-06
-2.37726e-06
8.36431e-06
-2.38035e-06
8.08042e-06
-2.38021e-06
7.79985e-06
-2.37808e-06
7.5235e-06
-2.37507e-06
7.2522e-06
-2.37206e-06
6.98675e-06
-2.36971e-06
6.72784e-06
-2.36845e-06
6.47604e-06
-2.36851e-06
6.23182e-06
-2.36992e-06
-2.37261e-06
-3.12725e-09
-3.10905e-07
-8.23029e-09
-1.68317e-07
-1.26737e-08
-1.94346e-07
-1.6679e-08
-2.09435e-07
-2.04522e-08
-2.19155e-07
-2.41035e-08
-2.27196e-07
-2.76868e-08
-2.34601e-07
-3.12286e-08
-2.41715e-07
-3.47387e-08
-2.48677e-07
-3.82135e-08
-2.55543e-07
-4.16347e-08
-2.62331e-07
-4.49635e-08
-2.6903e-07
-4.81286e-08
-2.75615e-07
-5.10015e-08
-2.82041e-07
-5.33479e-08
-2.88238e-07
-5.47559e-08
-2.94095e-07
-5.45682e-08
-2.99441e-07
-5.1815e-08
-3.0401e-07
-4.50899e-08
-3.0742e-07
-3.24026e-08
-3.09148e-07
-1.10854e-08
-3.08494e-07
2.22229e-08
-3.04505e-07
7.14653e-08
-2.95944e-07
1.40985e-07
-2.81338e-07
2.35168e-07
-2.59008e-07
3.57969e-07
-2.27153e-07
5.12711e-07
-1.84058e-07
7.02873e-07
-1.2822e-07
9.32383e-07
-5.85492e-08
1.2057e-06
2.57026e-08
1.52805e-06
1.26095e-07
1.90492e-06
2.4393e-07
2.34147e-06
3.7988e-07
2.83909e-06
5.35492e-07
3.39388e-06
7.11654e-07
3.99722e-06
9.08059e-07
4.63703e-06
1.12234e-06
5.29875e-06
1.35017e-06
5.96736e-06
1.58653e-06
6.62878e-06
1.82605e-06
7.27145e-06
2.06306e-06
7.88762e-06
2.29286e-06
8.47338e-06
2.51162e-06
9.02582e-06
2.71773e-06
9.54248e-06
2.91066e-06
1.00219e-05
3.0894e-06
1.04639e-05
3.25283e-06
1.08694e-05
3.40026e-06
1.12402e-05
3.53136e-06
1.1579e-05
3.64617e-06
1.18886e-05
3.745e-06
1.21722e-05
3.82838e-06
1.24331e-05
3.89694e-06
1.26741e-05
3.95134e-06
1.28979e-05
3.99221e-06
1.31067e-05
4.02007e-06
1.33024e-05
4.03534e-06
1.34865e-05
4.03826e-06
1.366e-05
4.02894e-06
1.38236e-05
4.00735e-06
1.39777e-05
3.97331e-06
1.41221e-05
3.92658e-06
1.42578e-05
3.8651e-06
1.43834e-05
3.79074e-06
1.4498e-05
3.70228e-06
1.46011e-05
3.59815e-06
1.4692e-05
3.47729e-06
1.47695e-05
3.33885e-06
1.4832e-05
3.1822e-06
1.48775e-05
3.00622e-06
1.49042e-05
2.80937e-06
1.49097e-05
2.59001e-06
1.48916e-05
2.34646e-06
1.4847e-05
2.07687e-06
1.47753e-05
1.73406e-06
1.4679e-05
1.35598e-06
1.45594e-05
1.00578e-06
1.4418e-05
6.81718e-07
1.4256e-05
3.82249e-07
1.40754e-05
1.06077e-07
1.38781e-05
-1.47742e-07
1.36666e-05
-3.79959e-07
1.34427e-05
-5.91544e-07
1.32079e-05
-7.8405e-07
1.29633e-05
-9.59031e-07
1.271e-05
-1.11785e-06
1.2449e-05
-1.26164e-06
1.21807e-05
-1.39121e-06
1.19052e-05
-1.50717e-06
1.16226e-05
-1.61042e-06
1.13331e-05
-1.7017e-06
1.10374e-05
-1.78162e-06
1.07362e-05
-1.85064e-06
1.04305e-05
-1.90909e-06
1.0122e-05
-1.95703e-06
9.81163e-06
-1.99475e-06
9.50018e-06
-2.02335e-06
9.18843e-06
-2.0441e-06
8.87723e-06
-2.05836e-06
8.56753e-06
-2.06755e-06
8.26033e-06
-2.07315e-06
7.95667e-06
-2.07655e-06
7.65759e-06
-2.07901e-06
7.36411e-06
-2.08159e-06
7.07714e-06
-2.08509e-06
6.79749e-06
-2.09006e-06
6.52582e-06
-2.09678e-06
6.26266e-06
-2.10535e-06
6.0084e-06
-2.11566e-06
5.7633e-06
-2.12752e-06
5.52752e-06
-2.14059e-06
5.3011e-06
-2.15455e-06
5.084e-06
-2.169e-06
-2.18358e-06
-2.8549e-09
-3.08054e-07
-6.69389e-09
-1.64473e-07
-9.51475e-09
-1.91524e-07
-1.19458e-08
-2.07009e-07
-1.41175e-08
-2.16986e-07
-1.61152e-08
-2.252e-07
-1.79854e-08
-2.32731e-07
-1.97532e-08
-2.39947e-07
-2.14317e-08
-2.46998e-07
-2.30257e-08
-2.5395e-07
-2.45332e-08
-2.60824e-07
-2.59423e-08
-2.67622e-07
-2.72288e-08
-2.7433e-07
-2.83498e-08
-2.80922e-07
-2.92315e-08
-2.87357e-07
-2.97461e-08
-2.93581e-07
-2.96703e-08
-2.99517e-07
-2.86274e-08
-3.05052e-07
-2.60301e-08
-3.10016e-07
-2.10175e-08
-3.14159e-07
-1.23685e-08
-3.17141e-07
1.63523e-09
-3.18508e-07
2.33463e-08
-3.17655e-07
5.58066e-08
-3.13799e-07
1.02668e-07
-3.0587e-07
1.68078e-07
-2.92564e-07
2.56354e-07
-2.72336e-07
3.71628e-07
-2.43495e-07
5.17439e-07
-2.04361e-07
6.96535e-07
-1.53394e-07
9.11917e-07
-8.92867e-08
1.167e-06
-1.1157e-08
1.46542e-06
8.14625e-08
1.81102e-06
1.89897e-07
2.20739e-06
3.15278e-07
2.65751e-06
4.57939e-07
3.16148e-06
6.18372e-07
3.71507e-06
7.96585e-07
4.31001e-06
9.9159e-07
4.93491e-06
1.20115e-06
5.57683e-06
1.42113e-06
6.22326e-06
1.64643e-06
6.86328e-06
1.8716e-06
7.48875e-06
2.09226e-06
8.09418e-06
2.30524e-06
8.67472e-06
2.50886e-06
9.22642e-06
2.70113e-06
9.74649e-06
2.88019e-06
1.02332e-05
3.04461e-06
1.0686e-05
3.19336e-06
1.11053e-05
3.32577e-06
1.14921e-05
3.44153e-06
1.18484e-05
3.54064e-06
1.21764e-05
3.62332e-06
1.24787e-05
3.68999e-06