/*--------------------------------*- C++ -*----------------------------------*\
  =========                 |
  \\      /  F ield         | OpenFOAM: The Open Source CFD Toolbox
   \\    /   O peration     | Website:  https://openfoam.org
    \\  /    A nd           | Version:  10
     \\/     M anipulation  |
\*---------------------------------------------------------------------------*/
FoamFile
{
    format      ascii;
    class       volScalarField;
    location    "73000";
    object      yPlus;
}
// * * * * * * * * * * * * * * * * * * * * * * * * * * * * * * * * * * * * * //

dimensions      [0 0 0 0 0 0 0];

internalField   uniform 0;

boundaryField
{
    right
    {
        type            cyclic;
    }
    left
    {
        type            cyclic;
    }
    outerWall
    {
        type            calculated;
        value           nonuniform List<scalar> 0();
    }
    stirrerWall
    {
        type            calculated;
        value           nonuniform List<scalar> 
398
(
0.590516
0.381747
0.246876
0.170236
0.1357
0.12247
0.116852
0.113904
0.112161
0.111477
0.112035
0.113959
0.117244
0.121825
0.127641
0.134634
0.142795
0.151998
0.162102
0.172886
0.18433
0.196342
0.208755
0.221401
0.234098
0.246681
0.258932
0.270603
0.281504
0.291287
0.299583
0.306657
0.312299
0.316385
0.318977
0.320271
0.320447
0.319493
0.31783
0.315861
0.313076
0.307555
0.299065
0.289165
0.27896
0.267841
0.25663
0.245564
0.2345
0.223677
0.213052
0.202779
0.192913
0.183443
0.174325
0.165491
0.156802
0.148353
0.140253
0.132543
0.125222
0.118261
0.11163
0.105268
0.099233
0.0933171
0.087575
0.0820014
0.0764988
0.0712183
0.0661227
0.0614044
0.0573486
0.0540868
0.051439
0.0488073
0.0450466
0.0386351
0.0280867
0.00810969
0.00810969
0.0216225
0.0093033
0.0132293
0.0168328
0.0219888
0.0271619
0.031719
0.0350772
0.0373839
0.0387691
0.0393542
0.0392782
0.0386742
0.0376564
0.0363192
0.0347409
0.0329357
0.0311156
0.0292432
0.0274703
0.0258564
0.02435
0.0229368
0.0216151
0.0203927
0.0193056
0.018401
0.0177396
0.017407
0.0175218
0.0183691
0.0202384
0.0231429
0.0269691
0.0314437
0.0362496
0.0411369
0.0460263
0.0508964
0.0558604
0.0608681
0.0659591
0.0711004
0.0765252
0.0820967
0.0878446
0.09425
0.102649
0.113841
0.127376
0.144299
0.164523
0.187764
0.215071
0.24744
0.284542
0.326227
0.372455
0.423184
0.478408
0.538413
0.603918
0.676004
0.755897
0.844836
0.944704
1.0587
1.19118
1.34765
1.53349
1.75305
2.0086
2.29881
2.61771
2.94686
3.26432
3.56066
3.83062
4.07818
4.29597
4.48538
4.64953
4.79131
4.91426
5.02226
5.11854
5.20755
5.29355
5.3795
5.46684
5.55587
5.64705
5.73915
5.82664
5.90018
5.96326
6.01917
6.06452
6.09924
6.11558
6.12382
6.12527
6.11964
6.1065
6.08558
6.05736
6.02176
5.97727
5.92338
5.85996
5.78682
5.70369
5.61025
5.50618
5.39118
5.26483
5.12902
4.98997
4.84411
4.68977
4.52634
4.354
4.17326
3.98489
3.79006
3.59045
3.388
0.033307
0.0395889
0.0257807
0.0285763
0.0562488
0.122525
0.220683
0.315212
0.388981
0.437383
0.462652
0.468074
0.456773
0.429033
0.388591
0.345786
0.314125
0.283526
0.25183
0.219806
0.189088
0.160865
0.135717
0.11375
0.0947068
0.0784936
0.0655781
0.0558553
0.0487661
0.0490309
0.0770339
0.175455
0.347822
0.47245
0.528073
0.538986
0.519643
0.501426
0.515239
0.560461
0.623972
0.685655
0.737921
0.783907
0.826
0.879481
0.982918
1.18847
1.60084
2.94233
5.44424
8.37716
10.3952
9.23836
9.91116
11.6707
11.6585
12.4772
11.8564
12.3463
12.6328
12.5002
10.9106
11.8092
13.0812
11.7346
13.3085
11.4666
11.6892
11.6905
11.9864
12.2836
12.5821
12.8824
13.1829
13.4755
13.7559
14.0256
14.2853
14.5361
14.7789
15.0147
15.2442
15.4683
15.6877
15.9035
16.1169
16.3299
16.5419
16.7526
16.9626
17.1723
17.3819
17.5919
17.8026
18.0143
18.2272
18.4416
18.6582
18.8773
19.0991
19.3235
19.5509
19.7817
20.0161
20.2545
20.4972
20.7448
20.9975
21.2558
0.033307
0.0995376
0.154995
0.21629
0.22221
0.211114
0.198677
0.186511
0.220562
0.271161
0.337116
0.419277
0.518466
0.634814
0.766809
0.9121
1.0685
1.23357
1.40436
1.57835
1.75353
1.92867
2.10304
2.27696
2.45235
2.63457
2.81586
2.98801
3.15255
3.31187
3.46438
3.61135
3.75402
3.89379
4.03743
4.18757
4.33694
4.49215
4.66694
4.81293
4.94204
5.09602
5.27771
5.49751
5.76053
6.09107
6.52361
7.10831
7.92451
8.90252
9.96446
11.1766
10.1226
11.4372
11.7236
11.9063
12.153
12.4777
12.6323
12.7444
11.147
11.9054
11.7568
11.7429
11.7722
11.7416
10.4289
10.0269
11.6396
11.8883
11.4907
11.2795
10.7572
10.0462
9.05237
6.7286
2.78837
1.06467
0.816098
0.756676
)
;
    }
    top
    {
        type            empty;
    }
    bottom
    {
        type            empty;
    }
    procBoundary1to0
    {
        type            processor;
        value           uniform 0;
    }
}


// ************************************************************************* //
