/*--------------------------------*- C++ -*----------------------------------*\
  =========                 |
  \\      /  F ield         | OpenFOAM: The Open Source CFD Toolbox
   \\    /   O peration     | Website:  https://openfoam.org
    \\  /    A nd           | Version:  10
     \\/     M anipulation  |
\*---------------------------------------------------------------------------*/
FoamFile
{
    format      ascii;
    class       volVectorField;
    location    "66000";
    object      U;
}
// * * * * * * * * * * * * * * * * * * * * * * * * * * * * * * * * * * * * * //

dimensions      [0 1 -1 0 0 0 0];

internalField   nonuniform List<vector> 
17981
(
(0.124307 3.23598 8.96741e-22)
(0.120286 3.24252 -9.00993e-22)
(0.116332 3.24879 0)
(0.112445 3.25478 -5.71712e-21)
(0.108625 3.26046 1.26117e-20)
(0.104874 3.26582 -6.84387e-21)
(0.101195 3.27085 0)
(0.097591 3.27553 5.93873e-22)
(0.0940643 3.27985 0)
(0.090618 3.28382 0)
(0.0872547 3.28744 -7.29315e-22)
(0.0839769 3.2907 1.346e-20)
(0.0807868 3.29361 -1.21894e-20)
(0.0776861 3.29619 0)
(0.0746761 3.29844 0)
(0.0717577 3.30038 0)
(0.0689314 3.30202 0)
(0.0661972 3.30338 -1.37448e-20)
(0.0635549 3.30447 1.31641e-20)
(0.0610036 3.30531 2.73192e-20)
(0.0585425 3.30592 -2.57581e-20)
(0.0561701 3.30631 -4.12681e-22)
(0.053885 3.30649 0)
(0.0516855 3.30649 0)
(0.0495696 3.30631 2.59365e-20)
(0.0475352 3.30597 -2.44994e-20)
(0.0455802 3.30549 2.51603e-20)
(0.0437024 3.30487 -2.4169e-20)
(0.0418993 3.30413 -3.75637e-22)
(0.0401686 3.30329 0)
(0.038508 3.30234 1.81236e-22)
(0.036915 3.30131 -1.77858e-22)
(0.0353873 3.3002 -1.74444e-22)
(0.0339225 3.29902 2.19058e-20)
(0.0325181 3.29777 -2.11003e-20)
(0.031172 3.29647 -1.64116e-22)
(0.0298819 3.29513 0)
(0.0286455 3.29374 0)
(0.0274607 3.29232 1.53855e-22)
(0.0263254 3.29087 -1.95303e-20)
(0.0252376 3.28939 -8.93614e-23)
(0.0241952 3.2879 1.8147e-20)
(0.0231964 3.28639 7.02847e-23)
(0.0222393 3.28487 0)
(0.0213221 3.28334 0)
(0.0204432 3.28181 0)
(0.0196008 3.28027 0)
(0.0187934 3.27874 -1.62236e-20)
(0.061664 3.25341 -5.43745e-21)
(0.056986 3.26027 0)
(0.0523923 3.26685 -1.58025e-20)
(0.0478843 3.27314 3.8964e-20)
(0.0434641 3.27912 -2.21812e-20)
(0.0391346 3.28476 3.3519e-20)
(0.0348988 3.29004 -3.24441e-20)
(0.0307599 3.29495 5.92944e-22)
(0.0267214 3.29948 1.32473e-21)
(0.0227863 3.30363 -4.80533e-20)
(0.0189577 3.30739 9.58255e-20)
(0.015238 3.31077 -4.91508e-20)
(0.0116292 3.31378 0)
(0.00813292 3.31642 1.65539e-21)
(0.00475004 3.3187 -5.57089e-20)
(0.00148096 3.32064 5.3326e-20)
(-0.00167445 3.32227 5.65267e-20)
(-0.00471685 3.32358 -5.40992e-20)
(-0.00764731 3.3246 8.62824e-22)
(-0.0104673 3.32535 0)
(-0.0131787 3.32585 -4.29349e-22)
(-0.0157837 3.32611 5.58001e-20)
(-0.0182846 3.32616 -5.22243e-20)
(-0.020684 3.326 5.49635e-20)
(-0.0229848 3.32565 -1.05328e-19)
(-0.0251897 3.32514 5.08443e-20)
(-0.0273019 3.32447 -5.18199e-20)
(-0.0293243 3.32366 4.97723e-20)
(-0.03126 3.32272 3.87167e-22)
(-0.0331121 3.32166 0)
(-0.0348838 3.32051 1.8669e-22)
(-0.0365779 3.31926 1.83302e-22)
(-0.0381977 3.31793 -4.62666e-20)
(-0.0397461 3.31652 4.49056e-20)
(-0.0412259 3.31506 -5.18262e-22)
(-0.0426401 3.31353 4.38279e-20)
(-0.0439914 3.31196 -4.20927e-20)
(-0.0452825 3.31035 0)
(-0.046516 3.30871 4.07465e-20)
(-0.0476944 3.30704 -7.90139e-20)
(-0.0488202 3.30535 3.81623e-20)
(-0.0498958 3.30363 -3.80784e-20)
(-0.0509234 3.30191 -6.48583e-22)
(-0.0519051 3.30018 3.59507e-20)
(-0.0528431 3.29844 0)
(-0.0537394 3.2967 0)
(-0.0545959 3.29497 1.3225e-22)
(-0.0554145 3.29324 -6.54107e-23)
(-0.000184129 3.27116 0)
(-0.00556461 3.27832 8.69386e-21)
(-0.0108406 3.2852 -9.29207e-21)
(-0.0160099 3.29178 2.26128e-20)
(-0.0210696 3.29803 -2.34961e-20)
(-0.0260161 3.30393 -1.88944e-21)
(-0.0308452 3.30945 0)
(-0.0355529 3.31457 -1.2668e-21)
(-0.040135 3.31928 -4.08731e-21)
(-0.0445879 3.32358 0)
(-0.0489081 3.32747 1.55762e-21)
(-0.0530931 3.33093 3.20608e-21)
(-0.0571409 3.33399 0)
(-0.0610501 3.33665 -1.56898e-23)
(-0.0648203 3.33893 1.73016e-21)
(-0.0684518 3.34084 0)
(-0.0719454 3.34239 1.16162e-19)
(-0.0753025 3.34361 -1.09325e-19)
(-0.0785252 3.34452 -1.17013e-19)
(-0.081616 3.34514 1.11113e-19)
(-0.0845776 3.34549 -1.75855e-21)
(-0.0874133 3.34558 0)
(-0.0901265 3.34544 8.62732e-22)
(-0.0927208 3.34508 -8.57367e-22)
(-0.0952 3.34452 8.45201e-22)
(-0.0975679 3.34379 -1.07423e-19)
(-0.0998285 3.34289 1.03922e-19)
(-0.101986 3.34184 -8.09261e-22)
(-0.104044 3.34066 0)
(-0.106006 3.33936 1.00497e-19)
(-0.107877 3.33795 2.39943e-21)
(-0.10966 3.33645 -9.64353e-20)
(-0.111359 3.33486 0)
(-0.112977 3.3332 0)
(-0.114519 3.33148 -9.22467e-20)
(-0.115987 3.3297 8.92711e-20)
(-0.117386 3.32788 -3.41739e-22)
(-0.118717 3.32601 0)
(-0.119985 3.32412 3.27528e-22)
(-0.121193 3.3222 -3.20156e-22)
(-0.122342 3.32026 -8.07248e-20)
(-0.123437 3.3183 7.79661e-20)
(-0.124479 3.31634 1.497e-22)
(-0.125471 3.31437 -1.46728e-22)
(-0.126416 3.3124 -2.86394e-22)
(-0.127315 3.31043 0)
(-0.128172 3.30847 -1.36467e-22)
(-0.128988 3.30652 -6.96142e-20)
(-0.0850983 3.31732 -1.43063e-21)
(-0.0907017 3.32345 1.97692e-21)
(-0.096162 3.32919 7.85807e-20)
(-0.101474 3.3345 -1.6288e-19)
(-0.106632 3.33937 8.6637e-20)
(-0.111632 3.34379 -2.96454e-21)
(-0.11647 3.34775 1.02726e-19)
(-0.121143 3.35127 -1.04652e-19)
(-0.125648 3.35434 0)
(-0.129986 3.35698 -1.75661e-21)
(-0.134155 3.3592 1.15543e-19)
(-0.138158 3.36102 -1.12115e-19)
(-0.141995 3.36246 -1.15475e-19)
(-0.14567 3.36354 -9.09026e-21)
(-0.149185 3.36429 1.14037e-19)
(-0.152545 3.36473 -1.18573e-19)
(-0.155753 3.36487 1.13465e-19)
(-0.158814 3.36474 0)
(-0.161732 3.36436 1.13818e-19)
(-0.164512 3.36376 -2.25031e-19)
(-0.167159 3.36294 1.06946e-19)
(-0.169678 3.36194 1.10327e-19)
(-0.172075 3.36077 -1.05043e-19)
(-0.174354 3.35944 -8.30836e-22)
(-0.17652 3.35798 -1.05978e-19)
(-0.178578 3.35639 -6.3551e-22)
(-0.180532 3.35469 -3.67431e-21)
(-0.182388 3.35289 9.99805e-20)
(-0.184151 3.35101 9.84713e-20)
(-0.185823 3.34906 -1.91411e-19)
(-0.18741 3.34704 9.37828e-20)
(-0.188916 3.34498 -9.27194e-20)
(-0.190345 3.34286 8.97757e-20)
(-0.191701 3.34071 -8.89083e-20)
(-0.192986 3.33853 -2.22453e-21)
(-0.194206 3.33633 8.4014e-20)
(-0.195362 3.33412 9.70128e-22)
(-0.196459 3.33189 -8.11414e-20)
(-0.1975 3.32966 7.84042e-20)
(-0.198486 3.32743 3.02207e-22)
(-0.199422 3.3252 2.95408e-22)
(-0.200309 3.32298 7.40563e-20)
(-0.201151 3.32077 -7.19115e-20)
(-0.201949 3.31857 0)
(-0.148787 3.33706 -3.87628e-20)
(-0.155094 3.34342 -3.77735e-21)
(-0.161229 3.34934 0)
(-0.167185 3.35481 8.85714e-20)
(-0.172955 3.3598 -8.49598e-20)
(-0.178534 3.3643 6.09146e-21)
(-0.183915 3.36831 6.4471e-21)
(-0.189097 3.37182 0)
(-0.194078 3.37485 0)
(-0.198857 3.37741 -3.55306e-21)
(-0.203434 3.37952 0)
(-0.207813 3.3812 0)
(-0.211996 3.38247 -3.72423e-21)
(-0.215987 3.38336 1.8683e-21)
(-0.21979 3.38389 -1.21905e-19)
(-0.223412 3.38408 1.16554e-19)
(-0.226857 3.38396 -1.18801e-19)
(-0.230131 3.38356 1.15485e-19)
(-0.233241 3.38289 1.81854e-21)
(-0.236192 3.38198 0)
(-0.238992 3.38086 -1.15661e-19)
(-0.241646 3.37954 -4.86311e-21)
(-0.244161 3.37805 -4.6234e-21)
(-0.246543 3.37639 1.09688e-19)
(-0.248797 3.37459 -1.08867e-19)
(-0.250931 3.37267 -3.15834e-21)
(-0.252949 3.37064 1.05408e-19)
(-0.254858 3.36851 -1.04037e-19)
(-0.256663 3.3663 9.9426e-20)
(-0.258369 3.36401 0)
(-0.259981 3.36167 9.74478e-20)
(-0.261504 3.35927 -9.54516e-20)
(-0.262942 3.35683 0)
(-0.264301 3.35436 7.11173e-22)
(-0.265584 3.35187 6.95811e-22)
(-0.266795 3.34936 6.82104e-22)
(-0.267938 3.34684 8.52925e-20)
(-0.269018 3.34431 -1.68137e-19)
(-0.270037 3.34178 8.22418e-20)
(-0.270998 3.33926 0)
(-0.271906 3.33675 0)
(-0.272763 3.33425 7.71523e-20)
(-0.273571 3.33177 -7.43566e-20)
(-0.274334 3.32931 0)
(-0.212313 3.35737 -4.03258e-20)
(-0.219377 3.36394 -6.50003e-20)
(-0.226236 3.37003 1.46287e-19)
(-0.23288 3.37562 -7.67588e-20)
(-0.239298 3.38068 -9.76854e-20)
(-0.245485 3.38521 9.02712e-20)
(-0.251435 3.3892 -3.30484e-21)
(-0.257144 3.39265 0)
(-0.262611 3.39558 -1.17877e-19)
(-0.267837 3.398 2.36607e-19)
(-0.272825 3.39994 7.46034e-21)
(-0.277577 3.40141 -1.1679e-19)
(-0.2821 3.40244 -3.77486e-21)
(-0.286397 3.40306 -1.24693e-19)
(-0.290477 3.4033 1.1912e-19)
(-0.294345 3.40318 -1.2413e-19)
(-0.29801 3.40274 -4.67977e-21)
(-0.30148 3.402 1.1811e-19)
(-0.304761 3.40098 -5.58875e-21)
(-0.307863 3.39972 0)
(-0.310792 3.39823 3.42558e-24)
(-0.313558 3.39654 1.80367e-21)
(-0.316167 3.39467 1.15302e-19)
(-0.318627 3.39264 2.79005e-21)
(-0.320946 3.39046 -2.20957e-19)
(-0.32313 3.38816 1.05818e-19)
(-0.325187 3.38575 -3.34169e-21)
(-0.327123 3.38324 0)
(-0.328945 3.38065 -2.08455e-19)
(-0.330659 3.378 2.0091e-19)
(-0.332271 3.37528 0)
(-0.333785 3.37252 7.62159e-22)
(-0.335209 3.36973 1.92889e-19)
(-0.336546 3.36691 -1.8694e-19)
(-0.337803 3.36406 0)
(-0.338982 3.36121 -7.02984e-22)
(-0.340089 3.35835 6.89327e-22)
(-0.341128 3.3555 6.73868e-22)
(-0.342103 3.35265 -1.70621e-19)
(-0.343018 3.34981 1.64373e-19)
(-0.343876 3.34699 -6.3227e-22)
(-0.34468 3.34419 -1.59604e-19)
(-0.345434 3.34141 1.53864e-19)
(-0.346141 3.33866 0)
(-0.28382 3.38512 -3.67823e-21)
(-0.291452 3.39133 -4.45625e-21)
(-0.298824 3.39699 0)
(-0.305923 3.40207 -5.69759e-21)
(-0.312741 3.40656 -6.17676e-21)
(-0.319274 3.41046 0)
(-0.325518 3.41377 -1.16188e-19)
(-0.331474 3.41652 1.10717e-19)
(-0.337144 3.41872 0)
(-0.342532 3.42039 -2.49229e-19)
(-0.347645 3.42157 2.41442e-19)
(-0.352489 3.42229 3.87333e-21)
(-0.357073 3.42257 0)
(-0.361405 3.42245 0)
(-0.365496 3.42195 -3.86931e-21)
(-0.369354 3.42112 0)
(-0.37299 3.41997 2.50346e-19)
(-0.376414 3.41855 -4.8791e-19)
(-0.379635 3.41686 4.83431e-19)
(-0.382664 3.41495 -2.33694e-19)
(-0.385509 3.41283 0)
(-0.388181 3.41053 2.3463e-19)
(-0.390688 3.40807 -2.27246e-19)
(-0.393039 3.40546 0)
(-0.395243 3.40273 2.27596e-19)
(-0.397307 3.3999 -4.37839e-19)
(-0.399239 3.39697 2.12267e-19)
(-0.401047 3.39396 -2.14486e-19)
(-0.402739 3.3909 2.0517e-19)
(-0.40432 3.38778 -2.06713e-19)
(-0.405797 3.38462 1.99477e-19)
(-0.407176 3.38143 0)
(-0.408463 3.37822 1.93471e-19)
(-0.409665 3.375 -1.88365e-19)
(-0.410785 3.37177 0)
(-0.411828 3.36855 -1.8407e-19)
(-0.412801 3.36533 1.77996e-19)
(-0.413706 3.36214 -6.82962e-22)
(-0.414548 3.35896 -1.71986e-19)
(-0.415332 3.3558 3.34697e-19)
(-0.41606 3.35267 -1.62229e-19)
(-0.416736 3.34958 1.61592e-19)
(-0.417364 3.34652 1.54254e-21)
(-0.36534 3.41898 -5.11222e-21)
(-0.373135 3.42398 1.73799e-22)
(-0.38059 3.42834 6.36944e-21)
(-0.387703 3.43206 0)
(-0.394471 3.43514 -2.42301e-19)
(-0.400899 3.43761 4.59759e-19)
(-0.40699 3.43949 1.75009e-20)
(-0.412752 3.44081 1.61463e-20)
(-0.418195 3.44161 -2.52931e-19)
(-0.423328 3.44192 -3.90896e-21)
(-0.428162 3.44178 0)
(-0.432711 3.44121 -2.59115e-19)
(-0.436985 3.44026 -6.92199e-21)
(-0.440997 3.43897 2.51232e-19)
(-0.44476 3.43735 0)
(-0.448285 3.43544 1.20014e-23)
(-0.451586 3.43328 3.85785e-21)
(-0.454673 3.43088 -3.82095e-21)
(-0.457558 3.42828 0)
(-0.460252 3.42549 2.40562e-19)
(-0.462766 3.42255 -2.3308e-19)
(-0.46511 3.41946 0)
(-0.467294 3.41626 1.79203e-21)
(-0.469327 3.41296 2.28359e-19)
(-0.471218 3.40956 -2.16587e-19)
(-0.472976 3.4061 0)
(-0.474609 3.40258 2.16937e-19)
(-0.476124 3.39902 -2.09349e-19)
(-0.477529 3.39543 1.62112e-21)
(-0.478831 3.39181 0)
(-0.480036 3.38819 1.56006e-21)
(-0.481151 3.38455 0)
(-0.48218 3.38093 -1.93488e-19)
(-0.48313 3.37731 3.76719e-19)
(-0.484006 3.37372 -3.69148e-19)
(-0.484813 3.37014 1.81132e-19)
(-0.485555 3.3666 0)
(-0.486237 3.36308 6.7664e-22)
(-0.486862 3.35961 -1.70595e-19)
(-0.487435 3.35618 3.31467e-19)
(-0.487959 3.35279 -1.64014e-19)
(-0.441264 3.44632 -1.93342e-19)
(-0.449334 3.45044 1.83235e-19)
(-0.456995 3.45386 0)
(-0.464251 3.45659 7.15564e-21)
(-0.471108 3.45867 1.15551e-22)
(-0.477575 3.46013 0)
(-0.483663 3.46101 0)
(-0.489385 3.46133 1.57687e-20)
(-0.494756 3.46115 4.00258e-21)
(-0.499789 3.46049 3.9985e-21)
(-0.504501 3.4594 0)
(-0.508906 3.45792 -2.63506e-19)
(-0.51302 3.45609 2.48077e-19)
(-0.516858 3.45393 2.61127e-19)
(-0.520434 3.45148 -2.46266e-19)
(-0.523763 3.44877 -3.95586e-21)
(-0.526859 3.44583 3.91967e-21)
(-0.529734 3.44269 0)
(-0.532404 3.43937 3.83491e-21)
(-0.534878 3.43589 2.45398e-19)
(-0.537169 3.43229 -2.36201e-19)
(-0.53929 3.42857 -2.42211e-19)
(-0.541248 3.42475 2.3167e-19)
(-0.543055 3.42086 -3.57603e-21)
(-0.544722 3.41691 0)
(-0.546256 3.41291 3.46234e-21)
(-0.547667 3.40887 2.21499e-19)
(-0.548961 3.40481 -2.13973e-19)
(-0.550147 3.40074 2.11995e-19)
(-0.551233 3.39667 -4.12987e-19)
(-0.552224 3.3926 2.0119e-19)
(-0.553129 3.38854 -2.00223e-19)
(-0.553951 3.38451 1.93717e-19)
(-0.554698 3.38051 -7.46314e-22)
(-0.555374 3.37654 1.13533e-24)
(-0.555985 3.37261 7.17831e-22)
(-0.556535 3.36872 0)
(-0.557028 3.36488 -6.88619e-22)
(-0.557469 3.36109 0)
(-0.557862 3.35735 6.69464e-22)
(-0.527373 3.47562 0)
(-0.535049 3.47789 7.05882e-21)
(-0.542267 3.47948 7.49149e-21)
(-0.549039 3.48041 0)
(-0.555383 3.48073 -2.59941e-19)
(-0.561314 3.48049 2.39584e-19)
(-0.566852 3.47972 -8.05049e-21)
(-0.572016 3.47848 -4.09293e-21)
(-0.576823 3.47679 -2.68513e-19)
(-0.581293 3.47471 -1.17326e-20)
(-0.585443 3.47227 2.6105e-19)
(-0.589292 3.4695 0)
(-0.592858 3.46645 -2.6501e-19)
(-0.596156 3.46314 -8.68345e-21)
(-0.599202 3.45961 5.17208e-19)
(-0.602012 3.45588 -2.50501e-19)
(-0.604601 3.45198 -2.55138e-19)
(-0.606982 3.44794 4.93742e-19)
(-0.609169 3.44376 -2.46598e-19)
(-0.611174 3.43949 -1.89344e-21)
(-0.61301 3.43513 -1.86968e-21)
(-0.614685 3.4307 -2.34614e-19)
(-0.616212 3.42622 -4.60036e-21)
(-0.617601 3.4217 2.24751e-19)
(-0.618862 3.41716 -1.75751e-21)
(-0.620003 3.4126 0)
(-0.621033 3.40805 -1.69998e-21)
(-0.621959 3.4035 0)
(-0.62279 3.39897 0)
(-0.623531 3.39447 0)
(-0.624191 3.39 1.58073e-21)
(-0.624774 3.38557 0)
(-0.625286 3.38118 -7.59307e-22)
(-0.625733 3.37685 1.15852e-24)
(-0.626121 3.37257 -7.30665e-22)
(-0.626452 3.36835 1.85526e-19)
(-0.626733 3.36419 -1.78431e-19)
(-0.626966 3.36009 1.79055e-19)
(-0.627924 3.49966 2.62864e-19)
(-0.633975 3.49877 -2.42368e-19)
(-0.639592 3.49734 8.23978e-21)
(-0.6448 3.49543 0)
(-0.649621 3.49308 -2.73208e-19)
(-0.654075 3.49033 2.61352e-19)
(-0.658186 3.48722 -2.27369e-23)
(-0.661972 3.4838 4.16375e-21)
(-0.665455 3.4801 0)
(-0.668652 3.47615 -4.12933e-21)
(-0.671583 3.47198 -4.11419e-21)
(-0.674263 3.46763 -2.64734e-19)
(-0.67671 3.46311 2.54786e-19)
(-0.678939 3.45845 3.99951e-21)
(-0.680963 3.45368 4.74788e-24)
(-0.682798 3.44882 2.56745e-19)
(-0.684456 3.44388 -2.43943e-19)
(-0.685951 3.43889 -1.90156e-21)
(-0.687292 3.43386 -1.87429e-21)
(-0.688491 3.4288 0)
(-0.689559 3.42373 2.34875e-19)
(-0.690505 3.41866 -2.27122e-19)
(-0.691338 3.4136 2.27187e-19)
(-0.692066 3.40857 -2.21572e-19)
(-0.692698 3.40356 -2.19361e-19)
(-0.693241 3.39859 2.14064e-19)
(-0.693702 3.39367 -1.63999e-21)
(-0.694087 3.3888 -2.05899e-19)
(-0.694403 3.38398 1.99483e-19)
(-0.694654 3.37923 -1.98841e-19)
(-0.694848 3.37455 1.95014e-19)
(-0.694988 3.36993 1.91038e-19)
(-0.695079 3.36539 -1.86693e-19)
(-0.695125 3.36092 -7.25098e-22)
(-0.701224 3.51744 0)
(-0.707292 3.51581 -1.00877e-22)
(-0.712893 3.51366 2.74004e-19)
(-0.718053 3.51103 -2.70052e-19)
(-0.722798 3.50795 0)
(-0.727153 3.50449 -8.48496e-21)
(-0.731143 3.50068 4.22789e-21)
(-0.73479 3.49657 2.78395e-19)
(-0.738117 3.49218 1.01308e-20)
(-0.741144 3.48755 -2.62303e-19)
(-0.743892 3.48271 -2.69931e-19)
(-0.746379 3.4777 2.63833e-19)
(-0.748622 3.47254 2.69547e-19)
(-0.75064 3.46725 -2.55671e-19)
(-0.752447 3.46186 2.68036e-19)
(-0.754059 3.45639 -2.58738e-19)
(-0.755489 3.45086 -3.97869e-21)
(-0.756751 3.44529 2.54241e-19)
(-0.757857 3.43969 -4.90625e-19)
(-0.758819 3.43408 -6.61392e-21)
(-0.759648 3.42846 2.3903e-19)
(-0.760354 3.42287 -2.39661e-19)
(-0.760947 3.41729 2.33802e-19)
(-0.761436 3.41175 -2.30156e-19)
(-0.761829 3.40625 4.52688e-19)
(-0.762134 3.40081 -2.20915e-19)
(-0.762359 3.39542 0)
(-0.76251 3.3901 -1.67679e-21)
(-0.762595 3.38485 1.64625e-21)
(-0.762618 3.37967 -3.23335e-21)
(-0.762586 3.37457 -2.04978e-19)
(-0.762503 3.36955 1.99605e-19)
(-0.762375 3.36462 1.5253e-21)
(-0.762206 3.35977 0)
(-0.775093 3.53371 -2.48686e-19)
(-0.781069 3.53131 2.65461e-19)
(-0.786549 3.52838 -5.47668e-19)
(-0.791563 3.52499 2.74224e-19)
(-0.79614 3.52116 -8.58798e-21)
(-0.800308 3.51696 -2.75733e-19)
(-0.804094 3.51241 2.63997e-19)
(-0.807524 3.50757 2.80554e-19)
(-0.81062 3.50247 -2.78091e-19)
(-0.813406 3.49714 2.78891e-19)
(-0.815903 3.49162 -2.76921e-19)
(-0.818131 3.48593 0)
(-0.820109 3.48011 -4.2714e-21)
(-0.821856 3.47417 2.71016e-19)
(-0.823388 3.46815 -5.38245e-19)
(-0.824721 3.46206 2.63234e-19)
(-0.82587 3.45592 4.54593e-24)
(-0.82685 3.44976 0)
(-0.827672 3.44357 -8.04124e-21)
(-0.82835 3.4374 2.58443e-19)
(-0.828896 3.43123 -5.01068e-19)
(-0.82932 3.42509 2.44812e-19)
(-0.829632 3.41899 0)
(-0.829842 3.41294 0)
(-0.829958 3.40695 -2.37598e-19)
(-0.82999 3.40102 4.62154e-19)
(-0.829944 3.39516 -2.2654e-19)
(-0.829829 3.38938 2.25662e-19)
(-0.82965 3.38369 -2.1888e-19)
(-0.829414 3.37808 -1.74773e-24)
(-0.829126 3.37256 -2.13558e-19)
(-0.828793 3.36714 2.0561e-19)
(-0.828419 3.36181 -7.97962e-22)
(-0.828008 3.35659 -2.04387e-19)
(-0.849251 3.54813 8.08027e-21)
(-0.855022 3.54493 0)
(-0.860276 3.54121 8.59833e-21)
(-0.865046 3.53703 0)
(-0.869363 3.53244 2.97517e-19)
(-0.873257 3.52747 -2.85556e-19)
(-0.876758 3.52219 0)
(-0.879892 3.51661 8.91222e-21)
(-0.882685 3.51079 2.96354e-19)
(-0.885161 3.50476 -2.76422e-19)
(-0.887342 3.49854 -4.4483e-21)
(-0.889249 3.49218 4.43097e-21)
(-0.890904 3.48569 2.91105e-19)
(-0.892324 3.4791 -5.61259e-19)
(-0.893528 3.47244 2.74818e-19)
(-0.894532 3.46573 2.88013e-19)
(-0.895352 3.45898 -2.65884e-19)
(-0.896003 3.45222 -2.73407e-19)
(-0.896498 3.44545 5.43126e-19)
(-0.89685 3.4387 -2.61572e-19)
(-0.897072 3.43199 0)
(-0.897175 3.42531 0)
(-0.89717 3.41868 0)
(-0.897065 3.41212 0)
(-0.896871 3.40563 1.92428e-21)
(-0.896597 3.39921 0)
(-0.896249 3.39288 -1.8642e-21)
(-0.895837 3.38664 2.38016e-19)
(-0.895365 3.3805 -2.29208e-19)
(-0.894842 3.37446 -1.38842e-24)
(-0.894273 3.36853 -2.23917e-19)
(-0.893663 3.3627 2.17394e-19)
(-0.893017 3.35698 1.67696e-21)
(-0.892341 3.35138 0)
(-0.928794 3.55642 2.61397e-19)
(-0.933723 3.55191 -2.86812e-19)
(-0.938157 3.54695 5.65815e-19)
(-0.942129 3.54159 -2.70243e-19)
(-0.945671 3.53587 9.10099e-21)
(-0.948812 3.52985 0)
(-0.951581 3.52355 -6.01577e-23)
(-0.954006 3.51702 -9.17341e-21)
(-0.956109 3.51029 2.99995e-19)
(-0.957916 3.50339 -2.80035e-19)
(-0.959449 3.49635 -1.73565e-23)
(-0.960727 3.4892 4.55865e-21)
(-0.961771 3.48197 0)
(-0.9626 3.47467 2.9259e-19)
(-0.96323 3.46734 -2.87493e-19)
(-0.963678 3.45999 2.87456e-19)
(-0.963959 3.45263 -5.62857e-19)
(-0.964087 3.44529 2.71253e-19)
(-0.964076 3.43798 4.30157e-21)
(-0.963939 3.43071 0)
(-0.963686 3.42349 0)
(-0.963329 3.41634 -2.67524e-19)
(-0.962879 3.40927 2.59522e-19)
(-0.962344 3.40228 -2.01474e-21)
(-0.961734 3.39538 0)
(-0.961057 3.38859 1.95415e-21)
(-0.96032 3.38189 -1.92309e-21)
(-0.959531 3.37531 0)
(-0.958696 3.36884 2.39578e-19)
(-0.957821 3.36249 -4.66255e-19)
(-0.956911 3.35626 2.28648e-19)
(-0.955973 3.35016 2.2522e-19)
(-0.955011 3.34418 -2.21948e-19)
(-1.00197 3.56559 2.76749e-19)
(-1.00649 3.56031 -2.72902e-19)
(-1.01051 3.5546 8.95995e-21)
(-1.01406 3.5485 3.01397e-19)
(-1.01718 3.54206 -2.80302e-19)
(-1.0199 3.53531 -9.33682e-21)
(-1.02224 3.52831 2.99139e-19)
(-1.02424 3.52109 2.17e-20)
(-1.02592 3.51368 -2.98436e-19)
(-1.02731 3.50611 -1.42497e-20)
(-1.02842 3.49842 -9.49601e-21)
(-1.02928 3.49063 -3.12428e-19)
(-1.0299 3.48276 6.03697e-19)
(-1.03032 3.47485 -6.00512e-19)
(-1.03054 3.46691 2.89913e-19)
(-1.03058 3.45896 -2.99639e-19)
(-1.03045 3.45102 2.90335e-19)
(-1.03018 3.44311 4.54185e-21)
(-1.02978 3.43525 -2.90872e-19)
(-1.02925 3.42743 2.82132e-19)
(-1.02861 3.41969 4.39705e-21)
(-1.02788 3.41203 0)
(-1.02705 3.40445 0)
(-1.02615 3.39697 -2.72879e-19)
(-1.02518 3.3896 2.6499e-19)
(-1.02415 3.38234 2.62841e-19)
(-1.02307 3.3752 -2.57315e-19)
(-1.02194 3.36818 0)
(-1.02077 3.36129 3.91955e-21)
(-1.01957 3.35453 -2.48131e-19)
(-1.01835 3.34791 2.43022e-19)
(-1.0171 3.34142 2.3951e-19)
(-1.01583 3.33507 -2.38002e-19)
(-1.07411 3.57235 2.77269e-19)
(-1.07815 3.56635 0)
(-1.08169 3.55993 -9.26799e-21)
(-1.08476 3.55312 -1.02624e-22)
(-1.08741 3.54599 -9.57963e-21)
(-1.08965 3.53857 3.25831e-19)
(-1.09153 3.53089 -6.22969e-19)
(-1.09306 3.52301 3.168e-19)
(-1.09428 3.51495 0)
(-1.0952 3.50674 3.21055e-19)
(-1.09585 3.49842 -2.95537e-19)
(-1.09626 3.49001 0)
(-1.09643 3.48154 3.23757e-19)
(-1.0964 3.47303 -6.26098e-19)
(-1.09618 3.4645 6.27729e-19)
(-1.09579 3.45598 7.46234e-21)
(-1.09523 3.44747 -6.14435e-19)
(-1.09454 3.43901 3.01406e-19)
(-1.09371 3.4306 -7.3212e-24)
(-1.09277 3.42226 3.0179e-19)
(-1.09173 3.414 -3.02255e-19)
(-1.09059 3.40583 0)
(-1.08938 3.39776 0)
(-1.08809 3.38981 -2.89557e-19)
(-1.08674 3.38197 -4.18726e-21)
(-1.08534 3.37426 2.7755e-19)
(-1.0839 3.36668 0)
(-1.08241 3.35923 0)
(-1.0809 3.35193 -2.07022e-21)
(-1.07936 3.34477 -2.03683e-21)
(-1.0778 3.33776 -4.0062e-21)
(-1.07623 3.33089 2.55371e-19)
(-1.07464 3.32418 -5.04434e-19)
(-1.14829 3.57003 2.8332e-19)
(-1.1513 3.56295 3.11627e-19)
(-1.15386 3.5555 -3.0925e-19)
(-1.15599 3.54773 -3.1274e-19)
(-1.15773 3.53967 3.00821e-19)
(-1.1591 3.53137 0)
(-1.16014 3.52287 -1.01824e-20)
(-1.16086 3.5142 3.32986e-19)
(-1.1613 3.50539 2.20995e-20)
(-1.16147 3.49647 -6.67357e-19)
(-1.1614 3.48747 3.18326e-19)
(-1.1611 3.47841 3.27881e-19)
(-1.1606 3.46933 -3.22792e-19)
(-1.15992 3.46024 0)
(-1.15907 3.45116 -3.28315e-19)
(-1.15807 3.44211 6.44686e-19)
(-1.15693 3.43311 -3.21549e-19)
(-1.15567 3.42418 -4.96407e-21)
(-1.1543 3.41533 0)
(-1.15284 3.40656 4.86998e-21)
(-1.15129 3.3979 0)
(-1.14967 3.38936 0)
(-1.14798 3.38093 -3.01035e-19)
(-1.14624 3.37264 2.97281e-19)
(-1.14446 3.36449 0)
(-1.14263 3.35648 0)
(-1.14078 3.34862 -2.22529e-21)
(-1.13891 3.34091 -2.84526e-19)
(-1.13702 3.33336 2.74563e-19)
(-1.13512 3.32597 4.41713e-25)
(-1.13321 3.31874 -2.70742e-19)
(-1.1313 3.31167 2.67147e-19)
(-1.21653 3.57146 3.11877e-19)
(-1.21899 3.56378 -2.90116e-19)
(-1.22101 3.55575 3.17452e-19)
(-1.22261 3.54739 -3.3564e-19)
(-1.22382 3.53875 -3.27527e-19)
(-1.22467 3.52988 3.15833e-19)
(-1.22519 3.52081 0)
(-1.22541 3.51156 0)
(-1.22534 3.50219 -3.48128e-19)
(-1.22502 3.49271 3.37191e-19)
(-1.22445 3.48315 1.60956e-20)
(-1.22368 3.47354 5.35878e-21)
(-1.2227 3.46392 5.35254e-21)
(-1.22155 3.45429 -3.46777e-19)
(-1.22023 3.44468 -8.44041e-21)
(-1.21877 3.43511 3.35222e-19)
(-1.21718 3.4256 3.40797e-19)
(-1.21548 3.41616 -3.31192e-19)
(-1.21367 3.40681 0)
(-1.21177 3.39756 0)
(-1.2098 3.38842 -3.28474e-19)
(-1.20776 3.37941 3.2441e-19)
(-1.20567 3.37053 3.2091e-19)
(-1.20353 3.3618 -6.31451e-19)
(-1.20136 3.35322 3.08226e-19)
(-1.19915 3.34479 -3.08392e-19)
(-1.19693 3.33652 6.06344e-19)
(-1.19469 3.32842 -2.93401e-19)
(-1.19244 3.32049 0)
(-1.19019 3.31272 2.92381e-19)
(-1.18795 3.30514 -5.67642e-19)
(-1.18571 3.29773 2.79442e-19)
(-1.28255 3.57077 -2.9712e-19)
(-1.28445 3.56258 -1.00447e-20)
(-1.28591 3.55403 1.03164e-20)
(-1.28697 3.54515 3.45225e-19)
(-1.28765 3.536 -3.22615e-19)
(-1.28797 3.5266 2.17037e-20)
(-1.28798 3.517 -3.59153e-19)
(-1.28768 3.50724 -1.42769e-20)
(-1.28711 3.49734 3.39626e-19)
(-1.28629 3.48733 1.11965e-20)
(-1.28523 3.47726 -1.12895e-20)
(-1.28397 3.46714 -5.65173e-21)
(-1.28252 3.45699 -5.65005e-21)
(-1.28089 3.44685 -5.62044e-21)
(-1.27911 3.43674 0)
(-1.27718 3.42667 0)
(-1.27514 3.41667 -5.5496e-21)
(-1.27299 3.40674 0)
(-1.27074 3.39691 -3.59641e-19)
(-1.26841 3.3872 -1.19746e-20)
(-1.26602 3.3776 6.83704e-19)
(-1.26356 3.36814 -6.87522e-19)
(-1.26106 3.35882 3.34713e-19)
(-1.25851 3.34966 -5.20798e-21)
(-1.25595 3.34065 -2.57246e-21)
(-1.25336 3.33182 0)
(-1.25075 3.32315 3.23004e-19)
(-1.24815 3.31467 -6.32756e-19)
(-1.24554 3.30636 3.09877e-19)
(-1.24294 3.29824 0)
(-1.24036 3.29031 3.06186e-19)
(-1.23779 3.28256 -2.97616e-19)
(-1.34606 3.5682 -3.30346e-19)
(-1.34741 3.55957 6.4926e-19)
(-1.34833 3.55056 -3.29168e-19)
(-1.34885 3.54123 1.09512e-20)
(-1.349 3.53161 -3.76452e-19)
(-1.34881 3.52175 -1.75052e-20)
(-1.34831 3.51168 7.46067e-19)
(-1.34751 3.50144 -3.75464e-19)
(-1.34644 3.49106 3.81989e-19)
(-1.34513 3.48058 -3.82451e-19)
(-1.34359 3.47002 0)
(-1.34184 3.45942 0)
(-1.33992 3.44879 -5.9264e-21)
(-1.33782 3.43817 3.90842e-19)
(-1.33558 3.42758 -3.74136e-19)
(-1.3332 3.41704 -5.89168e-21)
(-1.33071 3.40656 -3.80186e-19)
(-1.32811 3.39617 3.69898e-19)
(-1.32543 3.38588 -3.63544e-19)
(-1.32267 3.37571 3.7089e-19)
(-1.31985 3.36567 3.74541e-19)
(-1.31698 3.35577 6.18518e-21)
(-1.31407 3.34603 -3.55607e-19)
(-1.31113 3.33645 5.54537e-21)
(-1.30817 3.32703 -3.50366e-19)
(-1.3052 3.3178 3.41132e-19)
(-1.30222 3.30875 -2.66829e-21)
(-1.29925 3.29989 0)
(-1.29629 3.29122 -3.3436e-19)
(-1.29334 3.28275 -3.77008e-21)
(-1.29042 3.27448 -6.06535e-21)
(-1.28752 3.2664 3.20166e-19)
(-1.40686 3.56397 3.51663e-19)
(-1.40768 3.55498 -3.18598e-19)
(-1.40808 3.54559 1.09673e-20)
(-1.40809 3.53587 1.12832e-20)
(-1.40773 3.52585 1.15552e-20)
(-1.40704 3.51557 3.76177e-19)
(-1.40604 3.50508 -7.819e-19)
(-1.40476 3.49441 3.94043e-19)
(-1.40321 3.4836 1.23459e-20)
(-1.40142 3.47268 0)
(-1.39941 3.46168 -4.17963e-19)
(-1.39721 3.45063 -1.24899e-20)
(-1.39482 3.43956 4.01472e-19)
(-1.39227 3.42849 0)
(-1.38958 3.41744 -4.05951e-19)
(-1.38676 3.40645 4.013e-19)
(-1.38383 3.39552 1.24522e-20)
(-1.3808 3.38469 4.00893e-19)
(-1.37769 3.37396 1.83722e-21)
(-1.37451 3.36335 -3.81862e-19)
(-1.37128 3.35288 0)
(-1.368 3.34255 -3.88751e-19)
(-1.36469 3.33239 -6.24203e-21)
(-1.36136 3.3224 3.80887e-19)
(-1.35801 3.31259 -3.70697e-19)
(-1.35466 3.30297 3.6969e-19)
(-1.35132 3.29354 2.85204e-21)
(-1.34798 3.28432 0)
(-1.34467 3.27529 0)
(-1.34138 3.26648 2.73213e-21)
(-1.33812 3.25787 2.6912e-21)
(-1.3349 3.24948 0)
(-1.46481 3.55836 3.64363e-19)
(-1.46512 3.54907 -3.3079e-19)
(-1.46504 3.53938 3.68321e-19)
(-1.46457 3.52932 -3.79604e-19)
(-1.46374 3.51895 -1.15647e-22)
(-1.46258 3.50832 0)
(-1.46111 3.49746 0)
(-1.45936 3.48641 4.18371e-19)
(-1.45736 3.47522 -8.41577e-19)
(-1.45512 3.4639 4.10434e-19)
(-1.45267 3.4525 1.31877e-20)
(-1.45002 3.44104 0)
(-1.4472 3.42955 -4.30568e-19)
(-1.44422 3.41805 -1.17759e-20)
(-1.4411 3.40658 8.49988e-19)
(-1.43785 3.39516 -4.25881e-19)
(-1.4345 3.38381 4.28223e-19)
(-1.43106 3.37254 -4.10625e-19)
(-1.42754 3.36139 0)
(-1.42395 3.35036 -1.30389e-20)
(-1.42031 3.33946 6.46652e-21)
(-1.41664 3.32873 4.14683e-19)
(-1.41294 3.31816 -3.97788e-19)
(-1.40922 3.30777 -6.31215e-21)
(-1.4055 3.29757 -1.24799e-20)
(-1.40178 3.28757 -3.97672e-19)
(-1.39807 3.27777 3.87521e-19)
(-1.39439 3.26818 3.87653e-19)
(-1.39073 3.25881 7.60812e-21)
(-1.3871 3.24965 -3.75416e-19)
(-1.38352 3.24072 -3.76973e-19)
(-1.37998 3.23201 -3.91523e-21)
(-1.51984 3.5516 -2.06219e-19)
(-1.51971 3.54213 1.6628e-19)
(-1.51918 3.53222 1.98826e-19)
(-1.51827 3.52191 -1.93044e-19)
(-1.517 3.51121 4.08139e-19)
(-1.5154 3.50022 -4.07892e-19)
(-1.51349 3.48902 0)
(-1.51132 3.47765 1.34431e-20)
(-1.5089 3.46613 4.45862e-19)
(-1.50625 3.45447 -4.33502e-19)
(-1.50338 3.44271 0)
(-1.50032 3.43088 1.39668e-20)
(-1.49709 3.41901 1.40304e-20)
(-1.4937 3.40712 0)
(-1.49018 3.39525 0)
(-1.48653 3.38342 7.06863e-21)
(-1.48277 3.37166 -1.40884e-20)
(-1.47893 3.35998 4.4742e-19)
(-1.47501 3.34841 -4.36071e-19)
(-1.47103 3.33697 1.9114e-23)
(-1.46701 3.32567 -1.38305e-20)
(-1.46295 3.31453 0)
(-1.45887 3.30356 4.32576e-19)
(-1.45478 3.29278 -4.28399e-19)
(-1.45069 3.2822 6.68632e-21)
(-1.44662 3.27182 -3.30044e-21)
(-1.44256 3.26165 0)
(-1.43852 3.2517 -3.22207e-21)
(-1.43453 3.24198 -5.36912e-24)
(-1.43057 3.23249 -4.00982e-19)
(-1.42667 3.22324 3.93735e-19)
(-1.42281 3.21421 0)
(-1.57198 3.54387 -2.2818e-20)
(-1.57143 3.53428 2.00383e-19)
(-1.5705 3.52426 -2.06812e-19)
(-1.5692 3.5138 2.28284e-19)
(-1.56754 3.50291 -1.96074e-19)
(-1.56554 3.49165 -2.26857e-19)
(-1.56323 3.48012 2.20094e-19)
(-1.56066 3.46841 -2.62259e-19)
(-1.55786 3.45658 2.55616e-19)
(-1.55483 3.44462 1.45741e-20)
(-1.55159 3.43255 1.47156e-20)
(-1.54816 3.42038 -2.97315e-20)
(-1.54455 3.40815 -1.49826e-20)
(-1.54078 3.3959 -4.86925e-19)
(-1.53687 3.38366 9.69778e-19)
(-1.53284 3.37144 -4.82927e-19)
(-1.52871 3.35929 -4.79178e-19)
(-1.52448 3.34721 -1.06333e-20)
(-1.52019 3.33524 4.65941e-19)
(-1.51584 3.3234 7.45227e-21)
(-1.51144 3.3117 7.40966e-21)
(-1.50701 3.30017 0)
(-1.50257 3.28881 -7.28492e-21)
(-1.49812 3.27764 0)
(-1.49367 3.26667 -7.15374e-21)
(-1.48925 3.25592 4.67435e-19)
(-1.48484 3.24539 -8.9689e-19)
(-1.48048 3.23509 4.40161e-19)
(-1.47615 3.22502 4.36618e-19)
(-1.47188 3.2152 -4.32221e-19)
(-1.46766 3.20562 3.32474e-21)
(-1.4635 3.19629 -3.31617e-21)
(-1.62124 3.53542 2.0761e-19)
(-1.62032 3.52577 0)
(-1.61902 3.51565 -2.17997e-19)
(-1.61737 3.50511 1.98196e-19)
(-1.61536 3.49413 -2.61285e-19)
(-1.61302 3.48273 -1.22167e-20)
(-1.61037 3.47099 2.47723e-19)
(-1.60745 3.459 -2.47929e-19)
(-1.6043 3.44686 2.25293e-19)
(-1.60093 3.43461 -2.8412e-19)
(-1.59735 3.42225 2.30734e-19)
(-1.59358 3.40977 -2.2557e-19)
(-1.58962 3.39722 2.66708e-19)
(-1.5855 3.38462 -1.59627e-20)
(-1.58124 3.37202 2.52148e-19)
(-1.57686 3.35944 -2.45822e-19)
(-1.57237 3.34691 8.02109e-21)
(-1.56779 3.33445 0)
(-1.56314 3.3221 0)
(-1.55843 3.30986 0)
(-1.55368 3.29778 0)
(-1.5489 3.28585 5.08928e-19)
(-1.54411 3.2741 -4.88726e-19)
(-1.53931 3.26255 0)
(-1.53453 3.25121 -4.88133e-19)
(-1.52977 3.24008 -1.46487e-20)
(-1.52503 3.22919 4.82211e-19)
(-1.52034 3.21854 3.7228e-21)
(-1.5157 3.20813 -3.66856e-21)
(-1.51112 3.19797 4.66453e-19)
(-1.50659 3.18807 -9.14253e-19)
(-1.50214 3.17843 4.61409e-19)
(-1.66765 3.52647 2.49124e-20)
(-1.66641 3.51681 -2.46357e-19)
(-1.6648 3.50665 2.27373e-19)
(-1.66284 3.49604 -2.3743e-19)
(-1.66054 3.48501 2.46087e-19)
(-1.65791 3.47357 0)
(-1.65497 3.46172 -3.15229e-20)
(-1.65176 3.44956 2.79179e-19)
(-1.6483 3.43719 -5.45929e-21)
(-1.64463 3.42468 -5.1187e-19)
(-1.64075 3.41204 -9.52696e-21)
(-1.63667 3.39927 2.65174e-19)
(-1.6324 3.38642 -1.70288e-20)
(-1.62797 3.3735 2.7742e-19)
(-1.62339 3.36056 -2.70742e-19)