# Probe 0 (14 15 1)
# Time        0            
30000         -1.79769e+307
30001         -1.79769e+307
30002         -1.79769e+307
30003         -1.79769e+307
30004         -1.79769e+307
30005         -1.79769e+307
30006         -1.79769e+307
30007         -1.79769e+307
30008         -1.79769e+307
30009         -1.79769e+307
30010         -1.79769e+307
30011         -1.79769e+307
30012         -1.79769e+307
30013         -1.79769e+307
30014         -1.79769e+307
30015         -1.79769e+307
30016         -1.79769e+307
30017         -1.79769e+307
30018         -1.79769e+307
30019         -1.79769e+307
30020         -1.79769e+307
30021         -1.79769e+307
30022         -1.79769e+307
30023         -1.79769e+307
30024         -1.79769e+307
30025         -1.79769e+307
30026         -1.79769e+307
30027         -1.79769e+307
30028         -1.79769e+307
30029         -1.79769e+307
30030         -1.79769e+307
30031         -1.79769e+307
30032         -1.79769e+307
30033         -1.79769e+307
30034         -1.79769e+307
30035         -1.79769e+307
30036         -1.79769e+307
30037         -1.79769e+307
30038         -1.79769e+307
30039         -1.79769e+307
30040         -1.79769e+307
30041         -1.79769e+307
30042         -1.79769e+307
30043         -1.79769e+307
30044         -1.79769e+307
30045         -1.79769e+307
30046         -1.79769e+307
30047         -1.79769e+307
30048         -1.79769e+307
30049         -1.79769e+307
30050         -1.79769e+307
30051         -1.79769e+307
30052         -1.79769e+307
30053         -1.79769e+307
30054         -1.79769e+307
30055         -1.79769e+307
30056         -1.79769e+307
30057         -1.79769e+307
30058         -1.79769e+307
30059         -1.79769e+307
30060         -1.79769e+307
30061         -1.79769e+307
30062         -1.79769e+307
30063         -1.79769e+307
30064         -1.79769e+307
30065         -1.79769e+307
30066         -1.79769e+307
30067         -1.79769e+307
30068         -1.79769e+307
30069         -1.79769e+307
30070         -1.79769e+307
30071         -1.79769e+307
30072         -1.79769e+307
30073         -1.79769e+307
30074         -1.79769e+307
30075         -1.79769e+307
30076         -1.79769e+307
30077         -1.79769e+307
30078         -1.79769e+307
30079         -1.79769e+307
30080         -1.79769e+307
30081         -1.79769e+307
30082         -1.79769e+307
30083         -1.79769e+307
30084         -1.79769e+307
30085         -1.79769e+307
30086         -1.79769e+307
30087         -1.79769e+307
30088         -1.79769e+307
30089         -1.79769e+307
30090         -1.79769e+307
30091         -1.79769e+307
30092         -1.79769e+307
30093         -1.79769e+307
30094         -1.79769e+307
30095         -1.79769e+307
30096         -1.79769e+307
30097         -1.79769e+307
30098         -1.79769e+307
30099         -1.79769e+307
30100         -1.79769e+307
30101         -1.79769e+307
30102         -1.79769e+307
30103         -1.79769e+307
30104         -1.79769e+307
30105         -1.79769e+307
30106         -1.79769e+307
30107         -1.79769e+307
30108         -1.79769e+307
30109         -1.79769e+307
30110         -1.79769e+307
30111         -1.79769e+307
30112         -1.79769e+307
30113         -1.79769e+307
30114         -1.79769e+307
30115         -1.79769e+307
30116         -1.79769e+307
30117         -1.79769e+307
30118         -1.79769e+307
30119         -1.79769e+307
30120         -1.79769e+307
30121         -1.79769e+307
30122         -1.79769e+307
30123         -1.79769e+307
30124         -1.79769e+307
30125         -1.79769e+307
30126         -1.79769e+307
30127         -1.79769e+307
30128         -1.79769e+307
30129         -1.79769e+307
30130         -1.79769e+307
30131         -1.79769e+307
30132         -1.79769e+307
30133         -1.79769e+307
30134         -1.79769e+307
30135         -1.79769e+307
30136         -1.79769e+307
30137         -1.79769e+307
30138         -1.79769e+307
30139         -1.79769e+307
30140         -1.79769e+307
30141         -1.79769e+307
30142         -1.79769e+307
30143         -1.79769e+307
30144         -1.79769e+307
30145         -1.79769e+307
30146         -1.79769e+307
30147         -1.79769e+307
30148         -1.79769e+307
30149         -1.79769e+307
30150         -1.79769e+307
30151         -1.79769e+307
30152         -1.79769e+307
30153         -1.79769e+307
30154         -1.79769e+307
30155         -1.79769e+307
30156         -1.79769e+307
30157         -1.79769e+307
30158         -1.79769e+307
30159         -1.79769e+307
30160         -1.79769e+307
30161         -1.79769e+307
30162         -1.79769e+307
30163         -1.79769e+307
30164         -1.79769e+307
30165         -1.79769e+307
30166         -1.79769e+307
30167         -1.79769e+307
30168         -1.79769e+307
30169         -1.79769e+307
30170         -1.79769e+307
30171         -1.79769e+307
30172         -1.79769e+307
30173         -1.79769e+307
30174         -1.79769e+307
30175         -1.79769e+307
30176         -1.79769e+307
30177         -1.79769e+307
30178         -1.79769e+307
30179         -1.79769e+307
30180         -1.79769e+307
30181         -1.79769e+307
30182         -1.79769e+307
30183         -1.79769e+307
30184         -1.79769e+307
30185         -1.79769e+307
30186         -1.79769e+307
30187         -1.79769e+307
30188         -1.79769e+307
30189         -1.79769e+307
30190         -1.79769e+307
30191         -1.79769e+307
30192         -1.79769e+307
30193         -1.79769e+307
30194         -1.79769e+307
30195         -1.79769e+307
30196         -1.79769e+307
30197         -1.79769e+307
30198         -1.79769e+307
30199         -1.79769e+307
30200         -1.79769e+307
30201         -1.79769e+307
30202         -1.79769e+307
30203         -1.79769e+307
30204         -1.79769e+307
30205         -1.79769e+307
30206         -1.79769e+307
30207         -1.79769e+307
30208         -1.79769e+307
30209         -1.79769e+307
30210         -1.79769e+307
30211         -1.79769e+307
30212         -1.79769e+307
30213         -1.79769e+307
30214         -1.79769e+307
30215         -1.79769e+307
30216         -1.79769e+307
30217         -1.79769e+307
30218         -1.79769e+307
30219         -1.79769e+307
30220         -1.79769e+307
30221         -1.79769e+307
30222         -1.79769e+307
30223         -1.79769e+307
30224         -1.79769e+307
30225         -1.79769e+307
30226         -1.79769e+307
30227         -1.79769e+307
30228         -1.79769e+307
30229         -1.79769e+307
30230         -1.79769e+307
30231         -1.79769e+307
30232         -1.79769e+307
30233         -1.79769e+307
30234         -1.79769e+307
30235         -1.79769e+307
30236         -1.79769e+307
30237         -1.79769e+307
30238         -1.79769e+307
30239         -1.79769e+307
30240         -1.79769e+307
30241         -1.79769e+307
30242         -1.79769e+307
30243         -1.79769e+307
30244         -1.79769e+307
30245         -1.79769e+307
30246         -1.79769e+307
30247         -1.79769e+307
30248         -1.79769e+307
30249         -1.79769e+307
30250         -1.79769e+307
30251         -1.79769e+307
30252         -1.79769e+307
30253         -1.79769e+307
30254         -1.79769e+307
30255         -1.79769e+307
30256         -1.79769e+307
30257         -1.79769e+307
30258         -1.79769e+307
30259         -1.79769e+307
30260         -1.79769e+307
30261         -1.79769e+307
30262         -1.79769e+307
30263         -1.79769e+307
30264         -1.79769e+307
30265         -1.79769e+307
30266         -1.79769e+307
30267         -1.79769e+307
30268         -1.79769e+307
30269         -1.79769e+307
30270         -1.79769e+307
30271         -1.79769e+307
30272         -1.79769e+307
30273         -1.79769e+307
30274         -1.79769e+307
30275         -1.79769e+307
30276         -1.79769e+307
30277         -1.79769e+307
30278         -1.79769e+307
30279         -1.79769e+307
30280         -1.79769e+307
30281         -1.79769e+307
30282         -1.79769e+307
30283         -1.79769e+307
30284         -1.79769e+307
30285         -1.79769e+307
30286         -1.79769e+307
30287         -1.79769e+307
30288         -1.79769e+307
30289         -1.79769e+307
30290         -1.79769e+307
30291         -1.79769e+307
30292         -1.79769e+307
30293         -1.79769e+307
30294         -1.79769e+307
30295         -1.79769e+307
30296         -1.79769e+307
30297         -1.79769e+307
30298         -1.79769e+307
30299         -1.79769e+307
30300         -1.79769e+307
30301         -1.79769e+307
30302         -1.79769e+307
30303         -1.79769e+307
30304         -1.79769e+307
30305         -1.79769e+307
30306         -1.79769e+307
30307         -1.79769e+307
30308         -1.79769e+307
30309         -1.79769e+307
30310         -1.79769e+307
30311         -1.79769e+307
30312         -1.79769e+307
30313         -1.79769e+307
30314         -1.79769e+307
30315         -1.79769e+307
30316         -1.79769e+307
30317         -1.79769e+307
30318         -1.79769e+307
30319         -1.79769e+307
30320         -1.79769e+307
30321         -1.79769e+307
30322         -1.79769e+307
30323         -1.79769e+307
30324         -1.79769e+307
30325         -1.79769e+307
30326         -1.79769e+307
30327         -1.79769e+307
30328         -1.79769e+307
30329         -1.79769e+307
30330         -1.79769e+307
30331         -1.79769e+307
30332         -1.79769e+307
30333         -1.79769e+307
30334         -1.79769e+307
30335         -1.79769e+307
30336         -1.79769e+307
30337         -1.79769e+307
30338         -1.79769e+307
30339         -1.79769e+307
30340         -1.79769e+307
30341         -1.79769e+307
30342         -1.79769e+307
30343         -1.79769e+307
30344         -1.79769e+307
30345         -1.79769e+307
30346         -1.79769e+307
30347         -1.79769e+307
30348         -1.79769e+307
30349         -1.79769e+307
30350         -1.79769e+307
30351         -1.79769e+307
30352         -1.79769e+307
30353         -1.79769e+307
30354         -1.79769e+307
30355         -1.79769e+307
30356         -1.79769e+307
30357         -1.79769e+307
30358         -1.79769e+307
30359         -1.79769e+307
30360         -1.79769e+307
30361         -1.79769e+307
30362         -1.79769e+307
30363         -1.79769e+307
30364         -1.79769e+307
30365         -1.79769e+307
30366         -1.79769e+307
30367         -1.79769e+307
30368         -1.79769e+307
30369         -1.79769e+307
30370         -1.79769e+307
30371         -1.79769e+307
30372         -1.79769e+307
30373         -1.79769e+307
30374         -1.79769e+307
30375         -1.79769e+307
30376         -1.79769e+307
30377         -1.79769e+307
30378         -1.79769e+307
30379         -1.79769e+307
30380         -1.79769e+307
30381         -1.79769e+307
30382         -1.79769e+307
30383         -1.79769e+307
30384         -1.79769e+307
30385         -1.79769e+307
30386         -1.79769e+307
30387         -1.79769e+307
30388         -1.79769e+307
30389         -1.79769e+307
30390         -1.79769e+307
30391         -1.79769e+307
30392         -1.79769e+307
30393         -1.79769e+307
30394         -1.79769e+307
30395         -1.79769e+307
30396         -1.79769e+307
30397         -1.79769e+307
30398         -1.79769e+307
30399         -1.79769e+307
30400         -1.79769e+307
30401         -1.79769e+307
30402         -1.79769e+307
30403         -1.79769e+307
30404         -1.79769e+307
30405         -1.79769e+307
30406         -1.79769e+307
30407         -1.79769e+307
30408         -1.79769e+307
30409         -1.79769e+307
30410         -1.79769e+307
30411         -1.79769e+307
30412         -1.79769e+307
30413         -1.79769e+307
30414         -1.79769e+307
30415         -1.79769e+307
30416         -1.79769e+307
30417         -1.79769e+307
30418         -1.79769e+307
30419         -1.79769e+307
30420         -1.79769e+307
30421         -1.79769e+307
30422         -1.79769e+307
30423         -1.79769e+307
30424         -1.79769e+307
30425         -1.79769e+307
30426         -1.79769e+307
30427         -1.79769e+307
30428         -1.79769e+307
30429         -1.79769e+307
30430         -1.79769e+307
30431         -1.79769e+307
30432         -1.79769e+307
30433         -1.79769e+307
30434         -1.79769e+307
30435         -1.79769e+307
30436         -1.79769e+307
30437         -1.79769e+307
30438         -1.79769e+307
30439         -1.79769e+307
30440         -1.79769e+307
30441         -1.79769e+307
30442         -1.79769e+307
30443         -1.79769e+307
30444         -1.79769e+307
30445         -1.79769e+307
30446         -1.79769e+307
30447         -1.79769e+307
30448         -1.79769e+307
30449         -1.79769e+307
30450         -1.79769e+307
30451         -1.79769e+307
30452         -1.79769e+307
30453         -1.79769e+307
30454         -1.79769e+307
30455         -1.79769e+307
30456         -1.79769e+307
30457         -1.79769e+307
30458         -1.79769e+307
30459         -1.79769e+307
30460         -1.79769e+307
30461         -1.79769e+307
30462         -1.79769e+307
30463         -1.79769e+307
30464         -1.79769e+307
30465         -1.79769e+307
30466         -1.79769e+307
30467         -1.79769e+307
30468         -1.79769e+307
30469         -1.79769e+307
30470         -1.79769e+307
30471         -1.79769e+307
30472         -1.79769e+307
30473         -1.79769e+307
30474         -1.79769e+307
30475         -1.79769e+307
30476         -1.79769e+307
30477         -1.79769e+307
30478         -1.79769e+307
30479         -1.79769e+307
30480         -1.79769e+307
30481         -1.79769e+307
30482         -1.79769e+307
30483         -1.79769e+307
30484         -1.79769e+307
30485         -1.79769e+307
30486         -1.79769e+307
30487         -1.79769e+307
30488         -1.79769e+307
30489         -1.79769e+307
30490         -1.79769e+307
30491         -1.79769e+307
30492         -1.79769e+307
30493         -1.79769e+307
30494         -1.79769e+307
30495         -1.79769e+307
30496         -1.79769e+307
30497         -1.79769e+307
30498         -1.79769e+307
30499         -1.79769e+307
30500         -1.79769e+307
30501         -1.79769e+307
30502         -1.79769e+307
30503         -1.79769e+307
30504         -1.79769e+307
30505         -1.79769e+307
30506         -1.79769e+307
30507         -1.79769e+307
30508         -1.79769e+307
30509         -1.79769e+307
30510         -1.79769e+307
30511         -1.79769e+307
30512         -1.79769e+307
30513         -1.79769e+307
30514         -1.79769e+307
30515         -1.79769e+307
30516         -1.79769e+307
30517         -1.79769e+307
30518         -1.79769e+307
30519         -1.79769e+307
30520         -1.79769e+307
30521         -1.79769e+307
30522         -1.79769e+307
30523         -1.79769e+307
30524         -1.79769e+307
30525         -1.79769e+307
30526         -1.79769e+307
30527         -1.79769e+307
30528         -1.79769e+307
30529         -1.79769e+307
30530         -1.79769e+307
30531         -1.79769e+307
30532         -1.79769e+307
30533         -1.79769e+307
30534         -1.79769e+307
30535         -1.79769e+307
30536         -1.79769e+307
30537         -1.79769e+307
30538         -1.79769e+307
30539         -1.79769e+307
30540         -1.79769e+307
30541         -1.79769e+307
30542         -1.79769e+307
30543         -1.79769e+307
30544         -1.79769e+307
30545         -1.79769e+307
30546         -1.79769e+307
30547         -1.79769e+307
30548         -1.79769e+307
30549         -1.79769e+307
30550         -1.79769e+307
30551         -1.79769e+307
30552         -1.79769e+307
30553         -1.79769e+307
30554         -1.79769e+307
30555         -1.79769e+307
30556         -1.79769e+307
30557         -1.79769e+307
30558         -1.79769e+307
30559         -1.79769e+307
30560         -1.79769e+307
30561         -1.79769e+307
30562         -1.79769e+307
30563         -1.79769e+307
30564         -1.79769e+307
30565         -1.79769e+307
30566         -1.79769e+307
30567         -1.79769e+307
30568         -1.79769e+307
30569         -1.79769e+307
30570         -1.79769e+307
30571         -1.79769e+307
30572         -1.79769e+307
30573         -1.79769e+307
30574         -1.79769e+307
30575         -1.79769e+307
30576         -1.79769e+307
30577         -1.79769e+307
30578         -1.79769e+307
30579         -1.79769e+307
30580         -1.79769e+307
30581         -1.79769e+307
30582         -1.79769e+307
30583         -1.79769e+307
30584         -1.79769e+307
30585         -1.79769e+307
30586         -1.79769e+307
30587         -1.79769e+307
30588         -1.79769e+307
30589         -1.79769e+307
30590         -1.79769e+307
30591         -1.79769e+307
30592         -1.79769e+307
30593         -1.79769e+307
30594         -1.79769e+307
30595         -1.79769e+307
30596         -1.79769e+307
30597         -1.79769e+307
30598         -1.79769e+307
30599         -1.79769e+307
30600         -1.79769e+307
30601         -1.79769e+307
30602         -1.79769e+307
30603         -1.79769e+307
30604         -1.79769e+307
30605         -1.79769e+307
30606         -1.79769e+307
30607         -1.79769e+307
30608         -1.79769e+307
30609         -1.79769e+307
30610         -1.79769e+307
30611         -1.79769e+307
30612         -1.79769e+307
30613         -1.79769e+307
30614         -1.79769e+307
30615         -1.79769e+307
30616         -1.79769e+307
30617         -1.79769e+307
30618         -1.79769e+307
30619         -1.79769e+307
30620         -1.79769e+307
30621         -1.79769e+307
30622         -1.79769e+307
30623         -1.79769e+307
30624         -1.79769e+307
30625         -1.79769e+307
30626         -1.79769e+307
30627         -1.79769e+307
30628         -1.79769e+307
30629         -1.79769e+307
30630         -1.79769e+307
30631         -1.79769e+307
30632         -1.79769e+307
30633         -1.79769e+307
30634         -1.79769e+307
30635         -1.79769e+307
30636         -1.79769e+307
30637         -1.79769e+307
30638         -1.79769e+307
30639         -1.79769e+307
30640         -1.79769e+307
30641         -1.79769e+307
30642         -1.79769e+307
30643         -1.79769e+307
30644         -1.79769e+307
30645         -1.79769e+307
30646         -1.79769e+307
30647         -1.79769e+307
30648         -1.79769e+307
30649         -1.79769e+307
30650         -1.79769e+307
30651         -1.79769e+307
30652         -1.79769e+307
30653         -1.79769e+307
30654         -1.79769e+307
30655         -1.79769e+307
30656         -1.79769e+307
30657         -1.79769e+307
30658         -1.79769e+307
30659         -1.79769e+307
30660         -1.79769e+307
30661         -1.79769e+307
30662         -1.79769e+307
30663         -1.79769e+307
30664         -1.79769e+307
30665         -1.79769e+307
30666         -1.79769e+307
30667         -1.79769e+307
30668         -1.79769e+307
30669         -1.79769e+307
30670         -1.79769e+307
30671         -1.79769e+307
30672         -1.79769e+307
30673         -1.79769e+307
30674         -1.79769e+307
30675         -1.79769e+307
30676         -1.79769e+307
30677         -1.79769e+307
30678         -1.79769e+307
30679         -1.79769e+307
30680         -1.79769e+307
30681         -1.79769e+307
30682         -1.79769e+307
30683         -1.79769e+307
30684         -1.79769e+307
30685         -1.79769e+307
30686         -1.79769e+307
30687         -1.79769e+307
30688         -1.79769e+307
30689         -1.79769e+307
30690         -1.79769e+307
30691         -1.79769e+307
30692         -1.79769e+307
30693         -1.79769e+307
30694         -1.79769e+307
30695         -1.79769e+307
30696         -1.79769e+307
30697         -1.79769e+307
30698         -1.79769e+307
30699         -1.79769e+307
30700         -1.79769e+307
30701         -1.79769e+307
30702         -1.79769e+307
30703         -1.79769e+307
30704         -1.79769e+307
30705         -1.79769e+307
30706         -1.79769e+307
30707         -1.79769e+307
30708         -1.79769e+307
30709         -1.79769e+307
30710         -1.79769e+307
30711         -1.79769e+307
30712         -1.79769e+307
30713         -1.79769e+307
30714         -1.79769e+307
30715         -1.79769e+307
30716         -1.79769e+307
30717         -1.79769e+307
30718         -1.79769e+307
30719         -1.79769e+307
30720         -1.79769e+307
30721         -1.79769e+307
30722         -1.79769e+307
30723         -1.79769e+307
30724         -1.79769e+307
30725         -1.79769e+307
30726         -1.79769e+307
30727         -1.79769e+307
30728         -1.79769e+307
30729         -1.79769e+307
30730         -1.79769e+307
30731         -1.79769e+307
30732         -1.79769e+307
30733         -1.79769e+307
30734         -1.79769e+307
30735         -1.79769e+307
30736         -1.79769e+307
30737         -1.79769e+307
30738         -1.79769e+307
30739         -1.79769e+307
30740         -1.79769e+307
30741         -1.79769e+307
30742         -1.79769e+307
30743         -1.79769e+307
30744         -1.79769e+307
30745         -1.79769e+307
30746         -1.79769e+307
30747         -1.79769e+307
30748         -1.79769e+307
30749         -1.79769e+307
30750         -1.79769e+307
30751         -1.79769e+307
30752         -1.79769e+307
30753         -1.79769e+307
30754         -1.79769e+307
30755         -1.79769e+307
30756         -1.79769e+307
30757         -1.79769e+307
30758         -1.79769e+307
30759         -1.79769e+307
30760         -1.79769e+307
30761         -1.79769e+307
30762         -1.79769e+307
30763         -1.79769e+307
30764         -1.79769e+307
30765         -1.79769e+307
30766         -1.79769e+307
30767         -1.79769e+307
30768         -1.79769e+307
30769         -1.79769e+307
30770         -1.79769e+307
30771         -1.79769e+307
30772         -1.79769e+307
30773         -1.79769e+307
30774         -1.79769e+307
30775         -1.79769e+307
30776         -1.79769e+307
30777         -1.79769e+307
30778         -1.79769e+307
30779         -1.79769e+307
30780         -1.79769e+307
30781         -1.79769e+307
30782         -1.79769e+307
30783         -1.79769e+307
30784         -1.79769e+307
30785         -1.79769e+307
30786         -1.79769e+307
30787         -1.79769e+307
30788         -1.79769e+307
30789         -1.79769e+307
30790         -1.79769e+307
30791         -1.79769e+307
30792         -1.79769e+307
30793         -1.79769e+307
30794         -1.79769e+307
30795         -1.79769e+307
30796         -1.79769e+307
30797         -1.79769e+307
30798         -1.79769e+307
30799         -1.79769e+307
30800         -1.79769e+307
30801         -1.79769e+307
30802         -1.79769e+307
30803         -1.79769e+307
30804         -1.79769e+307
30805         -1.79769e+307
30806         -1.79769e+307
30807         -1.79769e+307
30808         -1.79769e+307
30809         -1.79769e+307
30810         -1.79769e+307
30811         -1.79769e+307
30812         -1.79769e+307
30813         -1.79769e+307
30814         -1.79769e+307
30815         -1.79769e+307
30816         -1.79769e+307
30817         -1.79769e+307
30818         -1.79769e+307
30819         -1.79769e+307
30820         -1.79769e+307
30821         -1.79769e+307
30822         -1.79769e+307
30823         -1.79769e+307
30824         -1.79769e+307
30825         -1.79769e+307
30826         -1.79769e+307
30827         -1.79769e+307
30828         -1.79769e+307
30829         -1.79769e+307
30830         -1.79769e+307
30831         -1.79769e+307
30832         -1.79769e+307
30833         -1.79769e+307
30834         -1.79769e+307
30835         -1.79769e+307
30836         -1.79769e+307
30837         -1.79769e+307
30838         -1.79769e+307
30839         -1.79769e+307
30840         -1.79769e+307
30841         -1.79769e+307
30842         -1.79769e+307
30843         -1.79769e+307
30844         -1.79769e+307
30845         -1.79769e+307
30846         -1.79769e+307
30847         -1.79769e+307
30848         -1.79769e+307
30849         -1.79769e+307
30850         -1.79769e+307
30851         -1.79769e+307
30852         -1.79769e+307
30853         -1.79769e+307
30854         -1.79769e+307
30855         -1.79769e+307
30856         -1.79769e+307
30857         -1.79769e+307
30858         -1.79769e+307
30859         -1.79769e+307
30860         -1.79769e+307
30861         -1.79769e+307
30862         -1.79769e+307
30863         -1.79769e+307
30864         -1.79769e+307
30865         -1.79769e+307
30866         -1.79769e+307
30867         -1.79769e+307
30868         -1.79769e+307
30869         -1.79769e+307
30870         -1.79769e+307
30871         -1.79769e+307
30872         -1.79769e+307
30873         -1.79769e+307
30874         -1.79769e+307
30875         -1.79769e+307
30876         -1.79769e+307
30877         -1.79769e+307
30878         -1.79769e+307
30879         -1.79769e+307
30880         -1.79769e+307
30881         -1.79769e+307
30882         -1.79769e+307
30883         -1.79769e+307
30884         -1.79769e+307
30885         -1.79769e+307
30886         -1.79769e+307
30887         -1.79769e+307
30888         -1.79769e+307
30889         -1.79769e+307
30890         -1.79769e+307
30891         -1.79769e+307
30892         -1.79769e+307
30893         -1.79769e+307
30894         -1.79769e+307
30895         -1.79769e+307
30896         -1.79769e+307
30897         -1.79769e+307
30898         -1.79769e+307
30899         -1.79769e+307
30900         -1.79769e+307
30901         -1.79769e+307
30902         -1.79769e+307
30903         -1.79769e+307
30904         -1.79769e+307
30905         -1.79769e+307
30906         -1.79769e+307
30907         -1.79769e+307
30908         -1.79769e+307
30909         -1.79769e+307
30910         -1.79769e+307
30911         -1.79769e+307
30912         -1.79769e+307
30913         -1.79769e+307
30914         -1.79769e+307
30915         -1.79769e+307
30916         -1.79769e+307
30917         -1.79769e+307
30918         -1.79769e+307
30919         -1.79769e+307
30920         -1.79769e+307
30921         -1.79769e+307
30922         -1.79769e+307
30923         -1.79769e+307
30924         -1.79769e+307
30925         -1.79769e+307
30926         -1.79769e+307
30927         -1.79769e+307
30928         -1.79769e+307
30929         -1.79769e+307
30930         -1.79769e+307
30931         -1.79769e+307
30932         -1.79769e+307
30933         -1.79769e+307
30934         -1.79769e+307
30935         -1.79769e+307
30936         -1.79769e+307
30937         -1.79769e+307
30938         -1.79769e+307
30939         -1.79769e+307
30940         -1.79769e+307
30941         -1.79769e+307
30942         -1.79769e+307
30943         -1.79769e+307
30944         -1.79769e+307
30945         -1.79769e+307
30946         -1.79769e+307
30947         -1.79769e+307
30948         -1.79769e+307
30949         -1.79769e+307
30950         -1.79769e+307
30951         -1.79769e+307
30952         -1.79769e+307
30953         -1.79769e+307
30954         -1.79769e+307
30955         -1.79769e+307
30956         -1.79769e+307
30957         -1.79769e+307
30958         -1.79769e+307
30959         -1.79769e+307
30960         -1.79769e+307
30961         -1.79769e+307
30962         -1.79769e+307
30963         -1.79769e+307
30964         -1.79769e+307
30965         -1.79769e+307
30966         -1.79769e+307
30967         -1.79769e+307
30968         -1.79769e+307
30969         -1.79769e+307
30970         -1.79769e+307
30971         -1.79769e+307
30972         -1.79769e+307
30973         -1.79769e+307
30974         -1.79769e+307
30975         -1.79769e+307
30976         -1.79769e+307
30977         -1.79769e+307
30978         -1.79769e+307
30979         -1.79769e+307
30980         -1.79769e+307
30981         -1.79769e+307
30982         -1.79769e+307
30983         -1.79769e+307
30984         -1.79769e+307
30985         -1.79769e+307
30986         -1.79769e+307
30987         -1.79769e+307
30988         -1.79769e+307
30989         -1.79769e+307
30990         -1.79769e+307
30991         -1.79769e+307
30992         -1.79769e+307
30993         -1.79769e+307
30994         -1.79769e+307
30995         -1.79769e+307
30996         -1.79769e+307
30997         -1.79769e+307
30998         -1.79769e+307
30999         -1.79769e+307
31000         -1.79769e+307
31001         -1.79769e+307
31002         -1.79769e+307
31003         -1.79769e+307
31004         -1.79769e+307
31005         -1.79769e+307
31006         -1.79769e+307
31007         -1.79769e+307
31008         -1.79769e+307
31009         -1.79769e+307
31010         -1.79769e+307
31011         -1.79769e+307
31012         -1.79769e+307
31013         -1.79769e+307
31014         -1.79769e+307
31015         -1.79769e+307
31016         -1.79769e+307
31017         -1.79769e+307
31018         -1.79769e+307
31019         -1.79769e+307
31020         -1.79769e+307
31021         -1.79769e+307
31022         -1.79769e+307
31023         -1.79769e+307
31024         -1.79769e+307
31025         -1.79769e+307
31026         -1.79769e+307
31027         -1.79769e+307
31028         -1.79769e+307
31029         -1.79769e+307
31030         -1.79769e+307
31031         -1.79769e+307
31032         -1.79769e+307
31033         -1.79769e+307
31034         -1.79769e+307
31035         -1.79769e+307
31036         -1.79769e+307
31037         -1.79769e+307
31038         -1.79769e+307
31039         -1.79769e+307
31040         -1.79769e+307
31041         -1.79769e+307
31042         -1.79769e+307
31043         -1.79769e+307
31044         -1.79769e+307
31045         -1.79769e+307
31046         -1.79769e+307
31047         -1.79769e+307
31048         -1.79769e+307
31049         -1.79769e+307
31050         -1.79769e+307
31051         -1.79769e+307
31052         -1.79769e+307
31053         -1.79769e+307
31054         -1.79769e+307
31055         -1.79769e+307
31056         -1.79769e+307
31057         -1.79769e+307
31058         -1.79769e+307
31059         -1.79769e+307
31060         -1.79769e+307
31061         -1.79769e+307
31062         -1.79769e+307
31063         -1.79769e+307
31064         -1.79769e+307
31065         -1.79769e+307
31066         -1.79769e+307
31067         -1.79769e+307
31068         -1.79769e+307