/*--------------------------------*- C++ -*----------------------------------*\
  =========                 |
  \\      /  F ield         | OpenFOAM: The Open Source CFD Toolbox
   \\    /   O peration     | Website:  https://openfoam.org
    \\  /    A nd           | Version:  10
     \\/     M anipulation  |
\*---------------------------------------------------------------------------*/
FoamFile
{
    format      ascii;
    class       volScalarField;
    location    "26000";
    object      p;
}
// * * * * * * * * * * * * * * * * * * * * * * * * * * * * * * * * * * * * * //

dimensions      [0 2 -2 0 0 0 0];

internalField   nonuniform List<scalar> 
17969
(
-5.78842
-5.77875
-5.77077
-5.76238
-5.75343
-5.74398
-5.73406
-5.72361
-5.71258
-5.70091
-5.68851
-5.67522
-5.66094
-5.64562
-5.62925
-5.61184
-5.59348
-5.57436
-5.55447
-5.53374
-5.51221
-5.48991
-5.46685
-5.44301
-5.41837
-5.39293
-5.36665
-5.33951
-5.31149
-5.28257
-5.2527
-5.22188
-5.19006
-5.15722
-5.12333
-5.08834
-5.05223
-5.01497
-4.97651
-4.93682
-4.89585
-4.85357
-4.80993
-4.76489
-4.7184
-4.67041
-4.62088
-4.56975
-4.51697
-4.46249
-4.40624
-4.34816
-4.2882
-4.22628
-4.16235
-4.09632
-4.02814
-3.95771
-3.88497
-3.80984
-3.73222
-3.65203
-3.56918
-3.48357
-3.39511
-3.3037
-3.20923
-3.11158
-3.01065
-2.90632
-2.79846
-2.68695
-2.57166
-2.45245
-2.33093
-2.21054
-2.09297
-1.97818
-1.86613
-1.75677
-1.65005
-1.54592
-1.44431
-1.34518
-1.24852
-1.15428
-1.06243
-0.972902
-0.885659
-0.800652
-0.717824
-0.637126
-0.558517
-0.481957
-0.407407
-0.334823
-0.264164
-0.195388
-0.128457
-0.0633338
-5.78735
-5.7777
-5.76971
-5.76135
-5.75248
-5.74318
-5.73346
-5.72329
-5.71263
-5.70143
-5.68964
-5.6772
-5.66399
-5.64989
-5.63479
-5.61863
-5.60141
-5.58313
-5.56384
-5.54366
-5.52269
-5.50086
-5.47815
-5.4546
-5.43022
-5.40501
-5.37895
-5.35203
-5.32421
-5.29548
-5.26581
-5.23518
-5.20355
-5.17089
-5.13717
-5.10236
-5.06643
-5.02934
-4.99104
-4.95152
-4.91071
-4.86859
-4.82511
-4.78022
-4.73388
-4.68604
-4.63665
-4.58566
-4.53302
-4.47866
-4.42253
-4.36457
-4.30471
-4.2429
-4.17906
-4.11312
-4.04502
-3.97466
-3.90198
-3.82689
-3.74931
-3.66914
-3.58631
-3.5007
-3.41222
-3.32077
-3.22625
-3.12854
-3.02752
-2.92308
-2.81509
-2.70343
-2.58796
-2.46854
-2.3468
-2.22616
-2.10834
-1.99329
-1.88096
-1.77132
-1.66431
-1.55986
-1.45793
-1.35849
-1.26152
-1.16696
-1.07478
-0.984945
-0.897396
-0.812077
-0.728948
-0.64796
-0.569059
-0.492206
-0.417359
-0.344479
-0.273522
-0.204449
-0.137221
-0.0718001
-5.78658
-5.77694
-5.76893
-5.76058
-5.75177
-5.74257
-5.73299
-5.72301
-5.71259
-5.70171
-5.69031
-5.67834
-5.66577
-5.65252
-5.63847
-5.62352
-5.60757
-5.59055
-5.57244
-5.55324
-5.53295
-5.51166
-5.48953
-5.46653
-5.44258
-5.4177
-5.39192
-5.36525
-5.33767
-5.30916
-5.2797
-5.24926
-5.21783
-5.18536
-5.15183
-5.11721
-5.08145
-5.04454
-5.00642
-4.96707
-4.92643
-4.88448
-4.84116
-4.79644
-4.75026
-4.70257
-4.65333
-4.60249
-4.54998
-4.49576
-4.43977
-4.38193
-4.3222
-4.2605
-4.19676
-4.13092
-4.0629
-3.99262
-3.92001
-3.84498
-3.76744
-3.68731
-3.60449
-3.51888
-3.43039
-3.33892
-3.24434
-3.14656
-3.04545
-2.9409
-2.83278
-2.72096
-2.6053
-2.48566
-2.36368
-2.24279
-2.12469
-2.00935
-1.89673
-1.78679
-1.67945
-1.57466
-1.47239
-1.37262
-1.27532
-1.18043
-1.08792
-0.997732
-0.909837
-0.824194
-0.740745
-0.659429
-0.580208
-0.503042
-0.427882
-0.354686
-0.283414
-0.214026
-0.146485
-0.0807532
-5.78602
-5.77638
-5.76834
-5.75997
-5.7512
-5.74208
-5.7326
-5.72274
-5.71249
-5.70182
-5.6907
-5.67908
-5.66691
-5.65413
-5.6407
-5.62658
-5.61165
-5.59581
-5.57896
-5.56103
-5.54198
-5.52179
-5.50047
-5.47805
-5.45466
-5.43036
-5.4051
-5.37882
-5.35157
-5.32334
-5.29413
-5.26393
-5.23272
-5.20046
-5.16714
-5.13271
-5.09715
-5.06043
-5.0225
-4.98332
-4.94287
-4.90109
-4.85795
-4.8134
-4.76738
-4.71986
-4.67079
-4.6201
-4.56775
-4.51367
-4.45782
-4.40012
-4.34052
-4.27894
-4.21532
-4.14959
-4.08166
-4.01148
-3.93894
-3.86398
-3.78649
-3.7064
-3.6236
-3.53801
-3.44951
-3.35801
-3.26339
-3.16554
-3.06435
-2.95968
-2.85142
-2.73944
-2.62358
-2.50373
-2.38149
-2.26032
-2.14193
-2.02629
-1.91336
-1.80309
-1.69541
-1.59026
-1.48764
-1.38752
-1.28986
-1.19462
-1.10175
-1.0112
-0.922942
-0.836933
-0.753132
-0.671488
-0.591936
-0.514433
-0.438942
-0.365416
-0.293813
-0.224096
-0.156227
-0.0901689
-0.025887
0.0366547
0.0974915
0.156659
-5.78561
-5.77597
-5.76788
-5.75949
-5.75074
-5.74165
-5.73223
-5.72246
-5.71232
-5.70179
-5.69084
-5.67945
-5.66756
-5.65514
-5.64213
-5.62848
-5.61414
-5.5991
-5.58324
-5.56645
-5.54864
-5.52973
-5.50967
-5.48843
-5.46601
-5.44241
-5.41771
-5.39204
-5.36537
-5.33762
-5.3088
-5.27893
-5.248
-5.21601
-5.18293
-5.14873
-5.11339
-5.07688
-5.03915
-5.00018
-4.95992
-4.91833
-4.87538
-4.831
-4.78517
-4.73783
-4.68892
-4.6384
-4.58622
-4.5323
-4.4766
-4.41905
-4.35959
-4.29815
-4.23465
-4.16904
-4.10123
-4.03114
-3.95869
-3.88381
-3.80639
-3.72634
-3.64358
-3.55801
-3.46951
-3.37799
-3.28333
-3.18542
-3.08414
-2.97936
-2.87096
-2.75881
-2.64276
-2.52267
-2.40017
-2.27871
-2.16003
-2.04407
-1.93081
-1.8202
-1.71215
-1.60663
-1.50364
-1.40315
-1.30511
-1.20949
-1.11623
-1.0253
-0.936661
-0.850264
-0.766077
-0.68406
-0.604167
-0.526329
-0.450488
-0.37661
-0.304658
-0.234593
-0.166378
-0.0999765
-0.0353549
0.027522
0.0886888
0.14818
-5.78532
-5.77566
-5.76753
-5.75911
-5.75035
-5.74128
-5.73188
-5.72216
-5.71207
-5.70162
-5.69079
-5.67953
-5.66782
-5.65563
-5.64292
-5.62964
-5.61575
-5.60117
-5.58588
-5.56984
-5.55299
-5.53519
-5.51635
-5.49639
-5.47525
-5.45288
-5.42928
-5.40445
-5.37841
-5.35125
-5.32306
-5.29376
-5.2633
-5.23169
-5.19894
-5.16504
-5.12997
-5.09371
-5.05623
-5.01748
-4.97744
-4.93607
-4.89332
-4.84915
-4.80351
-4.75636
-4.70764
-4.65731
-4.60529
-4.55155
-4.49602
-4.43863
-4.37932
-4.31803
-4.25468
-4.1892
-4.12151
-4.05153
-3.97919
-3.90439
-3.82704
-3.74706
-3.66435
-3.5788
-3.49031
-3.39878
-3.30409
-3.20612
-3.10476
-2.99987
-2.89133
-2.77901
-2.66276
-2.54243
-2.41967
-2.29792
-2.17891
-2.06263
-1.94903
-1.83806
-1.72963
-1.62373
-1.52035
-1.41947
-1.32104
-1.22501
-1.13135
-1.04001
-0.950963
-0.864157
-0.779558
-0.697134
-0.616847
-0.538652
-0.462474
-0.388239
-0.315917
-0.245484
-0.176905
-0.110145
-0.0451673
0.0180602
0.0795717
0.139401
-5.7851
-5.77542
-5.76726
-5.7588
-5.75002
-5.74094
-5.73155
-5.72184
-5.71178
-5.70137
-5.69059
-5.67941
-5.66781
-5.65577
-5.64325
-5.63021
-5.61661
-5.60242
-5.58757
-5.57202
-5.55571
-5.53863
-5.5207
-5.5018
-5.48185
-5.46076
-5.43845
-5.41488
-5.39001
-5.36386
-5.3364
-5.30771
-5.27789
-5.24692
-5.21472
-5.18127
-5.14659
-5.11067
-5.0735
-5.03504
-4.99527
-4.95415
-4.91164
-4.86769
-4.82228
-4.77534
-4.72683
-4.6767
-4.62488
-4.57133
-4.51598
-4.45877
-4.39963
-4.3385
-4.27531
-4.20997
-4.14242
-4.07257
-4.00034
-3.92564
-3.84838
-3.76848
-3.68582
-3.60031
-3.51184
-3.42031
-3.32559
-3.22758
-3.12614
-3.02115
-2.91248
-2.79999
-2.68353
-2.56297
-2.43993
-2.31788
-2.19855
-2.08193
-1.96798
-1.85664
-1.74782
-1.64152
-1.53774
-1.43645
-1.3376
-1.24115
-1.14706
-1.0553
-0.96582
-0.878583
-0.793552
-0.710694
-0.629977
-0.551367
-0.474815
-0.400236
-0.32755
-0.25673
-0.187766
-0.120627
-0.0552768
0.0083178
0.0701904
0.130374
0.188903
-5.78493
-5.77522
-5.76703
-5.75855
-5.74975
-5.74065
-5.73125
-5.72153
-5.71147
-5.70108
-5.69031
-5.67917
-5.66763
-5.65567
-5.64326
-5.63037
-5.61697
-5.60302
-5.58849
-5.57331
-5.55746
-5.54087
-5.52348
-5.50526
-5.48617
-5.4661
-5.44495
-5.42262
-5.39905
-5.37417
-5.34795
-5.32037
-5.29142
-5.26113
-5.22956
-5.19679
-5.16274
-5.12735
-5.09063
-5.05256
-5.01314
-4.97234
-4.93013
-4.88647
-4.84132
-4.79463
-4.74636
-4.69645
-4.64486
-4.59152
-4.53637
-4.47936
-4.42041
-4.35946
-4.29644
-4.23127
-4.16387
-4.09416
-4.02206
-3.94748
-3.87033
-3.79051
-3.70792
-3.62247
-3.53403
-3.44251
-3.34778
-3.24972
-3.14822
-3.04314
-2.93434
-2.82168
-2.70503
-2.58423
-2.46091
-2.33855
-2.2189
-2.10193
-1.98762
-1.8759
-1.76669
-1.65998
-1.55578
-1.45405
-1.35477
-1.25788
-1.16335
-1.07114
-0.981204
-0.893514
-0.808029
-0.724714
-0.64354
-0.564476
-0.487491
-0.412524
-0.339479
-0.26828
-0.198916
-0.131383
-0.0656466
-0.00167095
0.0605764
0.121128
0.180017
0.237276
0.29294
-5.7848
-5.77507
-5.76685
-5.75835
-5.74952
-5.7404
-5.73098
-5.72125
-5.71119
-5.70079
-5.69003
-5.6789
-5.66738
-5.65546
-5.64311
-5.6303
-5.61702
-5.60322
-5.58888
-5.57396
-5.55841
-5.5422
-5.52526
-5.50755
-5.489
-5.46957
-5.44923
-5.42788
-5.40543
-5.38176
-5.35682
-5.33052
-5.30284
-5.27372
-5.24317
-5.21118
-5.17779
-5.14308
-5.10704
-5.06958
-5.03068
-4.99033
-4.94852
-4.90522
-4.86041
-4.81403
-4.76605
-4.71642
-4.66508
-4.61199
-4.55708
-4.50029
-4.44156
-4.38081
-4.31798
-4.253
-4.18577
-4.11623
-4.04428
-3.96983
-3.8928
-3.81308
-3.73058
-3.6452
-3.55681
-3.46531
-3.37058
-3.2725
-3.17094
-3.06577
-2.95685
-2.84404
-2.7272
-2.60616
-2.48256
-2.3599
-2.23991
-2.12259
-2.00791
-1.8958
-1.78619
-1.67906
-1.57442
-1.47226
-1.37252
-1.27517
-1.18017
-1.08749
-0.997089
-0.908928
-0.822969
-0.739178
-0.657524
-0.577978
-0.500515
-0.425097
-0.351646
-0.280066
-0.210311
-0.142374
-0.076237
-0.0118674
0.0507678
0.111701
0.170963
0.228588
0.284607
0.339056
-5.7847
-5.77494
-5.76671
-5.75818
-5.74934
-5.74021
-5.73077
-5.72103
-5.71095
-5.70054
-5.68978
-5.67865
-5.66713
-5.65522
-5.64289
-5.63012
-5.6169
-5.60319
-5.58897
-5.5742
-5.55886
-5.54289
-5.52626
-5.50892
-5.49082
-5.4719
-5.4521
-5.43137
-5.40969
-5.38696
-5.36309
-5.33797
-5.31153
-5.2837
-5.25442
-5.22365
-5.19136
-5.15755
-5.12223
-5.08546
-5.04728
-5.0076
-4.96638
-4.9236
-4.87923
-4.83327
-4.78566
-4.73637
-4.68536
-4.63257
-4.57794
-4.52141
-4.46293
-4.40242
-4.33982
-4.27504
-4.20802
-4.13866
-4.06688
-3.99259
-3.9157
-3.83611
-3.75372
-3.66842
-3.5801
-3.48864
-3.39393
-3.29584
-3.19424
-3.08899
-2.97997
-2.86701
-2.74997
-2.6287
-2.50484
-2.38186
-2.26154
-2.14386
-2.0288
-1.9163
-1.80628
-1.69873
-1.59365
-1.49102
-1.39082
-1.29299
-1.19752
-1.10435
-1.01346
-0.924811
-0.838362
-0.754076
-0.67192
-0.591865
-0.513884
-0.437951
-0.364034
-0.292067
-0.221948
-0.15361
-0.087052
-0.0222686
0.0407719
0.102102
0.161754
0.219759
0.276149
0.330958
0.384219
0.435967
-5.78463
-5.77485
-5.7666
-5.75806
-5.7492
-5.74006
-5.73061
-5.72085
-5.71077
-5.70035
-5.68958
-5.67844
-5.66693
-5.65502
-5.6427
-5.62995
-5.61675
-5.60308
-5.58892
-5.57424
-5.55901
-5.5432
-5.52676
-5.50967
-5.49188
-5.47333
-5.45397
-5.43376
-5.41262
-5.3905
-5.36735
-5.34312
-5.31771
-5.29101
-5.26295
-5.23344
-5.20242
-5.16986
-5.1357
-5.09993
-5.06254
-5.02358
-4.9831
-4.94104
-4.89733
-4.85193
-4.80484
-4.75601
-4.70541
-4.65301
-4.59873
-4.54254
-4.48436
-4.42414
-4.3618
-4.29728
-4.23048
-4.16134
-4.08977
-4.01566
-3.93894
-3.8595
-3.77724
-3.69205
-3.60381
-3.51242
-3.41774
-3.31966
-3.21803
-3.11273
-3.00361
-2.89052
-2.77331
-2.65181
-2.52767
-2.40439
-2.28374
-2.1657
-2.05025
-1.93735
-1.82693
-1.71895
-1.61342
-1.51033
-1.40964
-1.31133
-1.21536
-1.1217
-1.0303
-0.941129
-0.854163
-0.769361
-0.68669
-0.606119
-0.527619
-0.451162
-0.376724
-0.304276
-0.233753
-0.165045
-0.0980771
-0.0328575
0.0306102
0.0923564
0.152414
0.210815
0.267591
0.322774
0.376398
0.428496
0.479105
0.528257
0.57599
0.622337
-5.78459
-5.77478
-5.76652
-5.75797
-5.7491
-5.73995
-5.7305
-5.72074
-5.71065
-5.70022
-5.68945
-5.67831
-5.66679
-5.65488
-5.64257
-5.62982
-5.61664
-5.60299
-5.58885
-5.57422
-5.55905
-5.54332
-5.52701
-5.51007
-5.49248
-5.47417
-5.45512
-5.43527
-5.41456
-5.39295
-5.37036
-5.34673
-5.32201
-5.29615
-5.26907
-5.24065
-5.21081
-5.17948
-5.14658
-5.11205
-5.07586
-5.03797
-4.99836
-4.95706
-4.91411
-4.86947
-4.82308
-4.77489
-4.72486
-4.67296
-4.61915
-4.56338
-4.5056
-4.44574
-4.38373
-4.31951
-4.253
-4.18413
-4.11279
-4.03891
-3.96239
-3.88313
-3.80103
-3.71597
-3.62785
-3.53654
-3.44193
-3.34387
-3.24225
-3.13691
-3.02771
-2.9145
-2.79712
-2.67541
-2.55102
-2.42744
-2.30645
-2.18804
-2.0722
-1.9589
-1.84808
-1.73968
-1.63369
-1.53013
-1.42896
-1.33015
-1.23366
-1.13948
-1.04755
-0.957862
-0.870365
-0.78503
-0.701826
-0.62072
-0.541684
-0.464689
-0.389711
-0.316728
-0.24571
-0.176586
-0.109241
-0.0436049
0.0203088
0.0824906
0.142971
0.201783
0.258959
0.31453
0.368529
0.420991
0.471949
0.521439
0.569495
0.616154
-5.78456
-5.77473
-5.76647
-5.75791
-5.74904
-5.73988
-5.73043
-5.72067
-5.71058
-5.70015
-5.68937
-5.67824
-5.66672
-5.65482
-5.6425
-5.62977
-5.61659
-5.60295
-5.58884
-5.57423
-5.5591
-5.54342
-5.52717
-5.51032
-5.49284
-5.47469
-5.45584
-5.43623
-5.41583
-5.39457
-5.3724
-5.34928
-5.32512
-5.29986
-5.27344
-5.24582
-5.21691
-5.18662
-5.15485
-5.12152
-5.08656
-5.0499
-5.01149
-4.9713
-4.92929
-4.88547
-4.83986
-4.79245
-4.74318
-4.69197
-4.63878
-4.58357
-4.5263
-4.46691
-4.40533
-4.34151
-4.27536
-4.20681
-4.13577
-4.06216
-3.98589
-3.90685
-3.82495
-3.74007
-3.65209
-3.5609
-3.46638
-3.36839
-3.26679
-3.16143
-3.05218
-2.93887
-2.82135
-2.69945
-2.5748
-2.45093
-2.32961
-2.21084
-2.09462
-1.98091
-1.86968
-1.76086
-1.65443
-1.55039
-1.44872
-1.3494
-1.25239
-1.15768
-1.06522
-0.974984
-0.886939
-0.801053
-0.717295
-0.635635
-0.556046
-0.478497
-0.402964
-0.329425
-0.25786
-0.188236
-0.12047
-0.0544463
0.00989309
0.0725276
0.133449
0.192687
0.250276
0.306248
0.360636
0.413472
0.464791
0.514628
0.563019
0.609998
-5.78456
-5.7747
-5.76644
-5.75788
-5.74901
-5.73985
-5.7304
-5.72063
-5.71055
-5.70012
-5.68935
-5.67822
-5.66671
-5.65481
-5.6425
-5.62978
-5.61661
-5.60299
-5.58889
-5.5743
-5.55919
-5.54355
-5.52734
-5.51055
-5.49314
-5.47508
-5.45634
-5.43689
-5.41668
-5.39567
-5.3738
-5.35102
-5.32728
-5.30251
-5.27666
-5.24964
-5.22139
-5.19185
-5.16096
-5.12862
-5.09475
-5.05924
-5.02203
-4.98305
-4.94223
-4.89953
-4.8549
-4.80835
-4.75989
-4.7095
-4.6571
-4.60263
-4.54602
-4.48724
-4.42623
-4.36291
-4.29723
-4.2291
-4.15845
-4.08519
-4.00923
-3.93048
-3.84884
-3.76419
-3.67639
-3.58535
-3.49096
-3.39307
-3.29153
-3.1862
-3.07692
-2.96354
-2.8459
-2.72382
-2.59895
-2.4748
-2.35316
-2.23404
-2.11743
-2.00331
-1.89167
-1.78244
-1.67557
-1.57105
-1.46888
-1.36904
-1.27151
-1.17625
-1.08324
-0.992451
-0.903843
-0.81739
-0.733063
-0.650832
-0.570672
-0.492553
-0.416451
-0.342343
-0.270209
-0.200029
-0.131764
-0.0653195
-0.000580605
0.0624901
0.123868
0.183549
0.241565
0.29795
0.352737
0.405959
0.45765
0.507844
0.556578
0.603886
-5.78456
-5.77469
-5.76642
-5.75786
-5.74899
-5.73984
-5.73039
-5.72063
-5.71055
-5.70013
-5.68937
-5.67824
-5.66674
-5.65485
-5.64256
-5.62984
-5.61669
-5.60309
-5.58901
-5.57444
-5.55935
-5.54374
-5.52756
-5.51081
-5.49344
-5.47545
-5.45679
-5.43743
-5.41734
-5.39648
-5.37481
-5.35227
-5.32882
-5.30441
-5.27896
-5.25242
-5.22472
-5.1958
-5.16556
-5.13395
-5.1009
-5.06634
-5.03017
-4.99229
-4.95263
-4.9111
-4.86765
-4.82221
-4.77474
-4.72523
-4.67368
-4.62006
-4.56429
-4.50628
-4.44597
-4.3833
-4.31821
-4.25063
-4.18048
-4.10767
-4.03212
-3.95374
-3.87242
-3.78806
-3.70054
-3.60976
-3.51553
-3.41777
-3.31637
-3.21109
-3.1018
-2.98839
-2.87066
-2.74844
-2.62336
-2.49895
-2.37701
-2.25755
-2.14056
-2.02604
-1.91397
-1.80431
-1.69701
-1.59203
-1.48936
-1.38901
-1.29094
-1.19514
-1.10157
-1.01021
-0.921031
-0.833999
-0.749088
-0.666273
-0.585527
-0.506823
-0.430137
-0.355448
-0.282733
-0.211974
-0.14315
-0.0762148
-0.0110593
0.0524258
0.114252
0.17439
0.232847
0.289657
0.344854
0.398472
0.450543
0.501104
0.550189
0.597834
0.644075
-5.78458
-5.77468
-5.76642
-5.75786
-5.749
-5.73985
-5.73041
-5.72065
-5.71058
-5.70017
-5.68942
-5.6783
-5.66681
-5.65493
-5.64265
-5.62995
-5.61681
-5.60323
-5.58917
-5.57462
-5.55956
-5.54397
-5.52782
-5.5111
-5.49378
-5.47583
-5.45723
-5.43794
-5.41793
-5.39718
-5.37563
-5.35325
-5.33
-5.30582
-5.28066
-5.25447
-5.22718
-5.19872
-5.16902
-5.13802
-5.10564
-5.07179
-5.03641
-4.99942
-4.96074
-4.92027
-4.87793
-4.83363
-4.78729
-4.73887
-4.6883
-4.63557
-4.58068
-4.52356
-4.4641
-4.40222
-4.33787
-4.27097
-4.20144
-4.12921
-4.05419
-3.97629
-3.8954
-3.81142
-3.72424
-3.63374
-3.53976
-3.44222
-3.341
-3.23588
-3.12667
-3.01327
-2.89549
-2.77315
-2.64791
-2.52327
-2.40105
-2.28127
-2.16391
-2.04899
-1.93649
-1.8264
-1.71866
-1.61323
-1.51008
-1.40921
-1.31062
-1.21427
-1.12014
-1.02821
-0.938444
-0.850824
-0.76532
-0.681909
-0.600565
-0.521265
-0.443985
-0.368703
-0.295399
-0.224053
-0.154645
-0.0871505
-0.0215185
0.0423739
0.104633
0.165236
0.224146
0.281389
0.337005
0.391025
0.443485
0.494419
0.543863
0.591851
0.638421
-5.7846
-5.77468
-5.76643
-5.75787
-5.74901
-5.73987
-5.73043
-5.72069
-5.71062
-5.70022
-5.68948
-5.67837
-5.6669
-5.65503
-5.64277
-5.63008
-5.61696
-5.60339
-5.58935
-5.57483
-5.55979
-5.54423
-5.52812
-5.51143
-5.49415
-5.47624
-5.45769
-5.43845
-5.41851
-5.39783
-5.37637
-5.3541
-5.33098
-5.30697
-5.28201
-5.25605
-5.22905
-5.20093
-5.17164
-5.1411
-5.10924
-5.07599
-5.04127
-5.00499
-4.96708
-4.92745
-4.88604
-4.84274
-4.79747
-4.75013
-4.70066
-4.64896
-4.59502
-4.53882
-4.48028
-4.41929
-4.35578
-4.28968
-4.2209
-4.14938
-4.07501
-3.99771
-3.91738
-3.83391
-3.74719
-3.65709
-3.56349
-3.46623
-3.36519
-3.26024
-3.15121
-3.03792
-2.92017
-2.79778
-2.67242
-2.54759
-2.42513
-2.30505
-2.18735
-2.07205
-1.95913
-1.84859
-1.74041
-1.63453
-1.53092
-1.42956
-1.33044
-1.23354
-1.13886
-1.04635
-0.956005
-0.867793
-0.781692
-0.697678
-0.615729
-0.535825
-0.457943
-0.382062
-0.308162
-0.236224
-0.166227
-0.0981514
-0.0319746
0.0323897
0.0950707
0.156111
0.215477
0.273164
0.329204
0.383634
0.436489
0.487802
0.53761
0.585948
0.632852
-5.78462
-5.77468
-5.76643
-5.75788
-5.74903
-5.73989
-5.73046
-5.72072
-5.71067
-5.70028
-5.68954
-5.67845
-5.66699
-5.65514
-5.64289
-5.63022
-5.61712
-5.60357
-5.58955
-5.57505
-5.56004
-5.5445
-5.52842
-5.51177
-5.49452
-5.47666
-5.45814
-5.43896
-5.41908
-5.39846
-5.37707
-5.35489
-5.33187
-5.30797
-5.28315
-5.25736
-5.23056
-5.20268
-5.17368
-5.14348
-5.11201
-5.07921
-5.04501
-5.00931
-4.97205
-4.93313
-4.89248
-4.84999
-4.8056
-4.75921
-4.71074
-4.66009
-4.60716
-4.55192
-4.49432
-4.43426
-4.37166
-4.30643
-4.23851
-4.16779
-4.09419
-4.01761
-3.93795
-3.8551
-3.76895
-3.67937
-3.58623
-3.4894
-3.38873
-3.28407
-3.17524
-3.06209
-2.94444
-2.82209
-2.69667
-2.57172
-2.44906
-2.32873
-2.21072
-2.09506
-1.98174
-1.87077
-1.76214
-1.65581
-1.55174
-1.44991
-1.35028
-1.25285
-1.15762
-1.06454
-0.973619
-0.884818
-0.79812
-0.713503
-0.630949
-0.550439
-0.471952
-0.395469
-0.320972
-0.248447
-0.17787
-0.109207
-0.0424382
0.0224705
0.0856058
0.14706
0.206862
0.264994
0.321465
0.376309
0.429562
0.481258
0.531433
0.580124
0.627367
0.673197
-5.78464
-5.77467
-5.76644
-5.75789
-5.74904
-5.73991
-5.73049
-5.72076
-5.71071
-5.70033
-5.68961
-5.67853
-5.66708
-5.65524
-5.643
-5.63035
-5.61727
-5.60374
-5.58974
-5.57526
-5.56028
-5.54477
-5.52872
-5.5121
-5.49489
-5.47706
-5.45859
-5.43946
-5.41962
-5.39906
-5.37774
-5.35563
-5.33269
-5.30888
-5.28417
-5.2585
-5.23185
-5.20415
-5.17535
-5.14539
-5.11422
-5.08176
-5.04794
-5.01269
-4.97593
-4.93758
-4.89755
-4.85575
-4.8121
-4.76651
-4.71888
-4.66912
-4.61713
-4.56285
-4.50618
-4.44705
-4.38538
-4.32108
-4.25405
-4.1842
-4.11144
-4.03567
-3.95677
-3.87465
-3.78917
-3.70021
-3.60765
-3.51134
-3.41113
-3.30687
-3.19839
-3.0855
-2.96804
-2.84581
-2.72042
-2.59541
-2.47262
-2.35208
-2.23381
-2.11783
-2.00415
-1.89278
-1.7837
-1.67692
-1.5724
-1.4701
-1.36999
-1.27206
-1.17629
-1.08266
-0.991173
-0.901793
-0.814506
-0.729294
-0.64614
-0.565028
-0.485942
-0.408867
-0.333784
-0.260667
-0.189492
-0.120241
-0.0528937
0.0125762
0.0762151
0.138105
0.198323
0.25689
0.313794
0.369056
0.422709
0.474791
0.525337
0.574384
0.621968
0.668126
-5.78466
-5.77466
-5.76645
-5.7579
-5.74905
-5.73993
-5.73051
-5.72079
-5.71075
-5.70038
-5.68966
-5.67859
-5.66715
-5.65532
-5.6431
-5.63047
-5.6174
-5.60389
-5.58991
-5.57546
-5.5605
-5.54502
-5.52899
-5.5124
-5.49523
-5.47744
-5.45901
-5.43992
-5.42013
-5.39962
-5.37836
-5.35631
-5.33344
-5.30971
-5.28509
-5.25953
-5.23299
-5.20542
-5.17677
-5.147
-5.11604
-5.08383
-5.0503
-5.01539
-4.97902
-4.9411
-4.90157
-4.86032
-4.81728
-4.77234
-4.72543
-4.67643
-4.62526
-4.57182
-4.51603
-4.45779
-4.39702
-4.33361
-4.26748
-4.19852
-4.12663
-4.0517
-3.97363
-3.89229
-3.80757
-3.71933
-3.62743
-3.53174
-3.43209
-3.32834
-3.22029
-3.10778
-2.99062
-2.8686
-2.74334
-2.61837
-2.49552
-2.37486
-2.25639
-2.14015
-2.02615
-1.91441
-1.80493
-1.69771
-1.59274
-1.48999
-1.38942
-1.291
-1.19472
-1.10057
-1.00853
-0.918595
-0.830736
-0.744943
-0.661203
-0.579504
-0.499832
-0.422165
-0.346488
-0.272786
-0.201041
-0.131226
-0.0633179
0.00270854
0.0668843
0.129258
0.189903
0.248882
0.30621
0.361888
0.415941
0.468407
0.519321
0.568722
0.616644
0.663127
-5.78467
-5.77465
-5.76644
-5.7579
-5.74906
-5.73993
-5.73052
-5.7208
-5.71077
-5.7004
-5.68969
-5.67863
-5.6672
-5.65539
-5.64318
-5.63056
-5.61751
-5.60401
-5.59005
-5.57562
-5.56068
-5.54523
-5.52923
-5.51267
-5.49553
-5.47777
-5.45938
-5.44033
-5.42059
-5.40013
-5.37893
-5.35693
-5.33413
-5.31047
-5.28592
-5.26045
-5.234
-5.20654
-5.17802
-5.14839
-5.11758
-5.08556
-5.05225
-5.01759
-4.98152
-4.94394
-4.90479
-4.86398
-4.82142
-4.77703
-4.7307
-4.68235
-4.63187
-4.57917
-4.52415
-4.46671
-4.40676
-4.34419
-4.27891
-4.21081
-4.13977
-4.06569
-3.98845
-3.90793
-3.824
-3.73652
-3.64535
-3.55035
-3.45135
-3.34818
-3.24067
-3.12863
-3.01187
-2.89017
-2.76514
-2.6403
-2.5175
-2.39679
-2.2782
-2.16177
-2.04751
-1.93546
-1.82562
-1.718
-1.6126
-1.5094
-1.40839
-1.30952
-1.21276
-1.11812
-1.02556
-0.935086
-0.84668
-0.760332
-0.67603
-0.593759
-0.513506
-0.435262
-0.359015
-0.284749
-0.212445
-0.142081
-0.0736317
-0.00706944
0.0576338
0.120514
0.181621
0.241013
0.298742
0.35483
0.409279
0.462117
0.513387
0.563125
0.61137
0.658164
-5.78467
-5.77463
-5.76643
-5.75789
-5.74905
-5.73993
-5.73051
-5.7208
-5.71077
-5.70041
-5.6897
-5.67865
-5.66722
-5.65542
-5.64322
-5.63061
-5.61757
-5.60409
-5.59015
-5.57574
-5.56082
-5.54539
-5.52942
-5.51289
-5.49578
-5.47805
-5.4597
-5.44069
-5.42099
-5.40058
-5.37942
-5.35748
-5.33473
-5.31114
-5.28666
-5.26126
-5.2349
-5.20753
-5.17911
-5.14959
-5.11892
-5.08705
-5.05391
-5.01944
-4.98358
-4.94627
-4.90741
-4.86694
-4.82476
-4.7808
-4.73495
-4.68713
-4.63723
-4.58515
-4.53079
-4.47405
-4.41483
-4.35303
-4.28852
-4.22121
-4.15099
-4.07772
-4.00129
-3.92158
-3.83844
-3.75173
-3.66132
-3.56704
-3.46873
-3.36621
-3.2593
-3.14781
-3.03154
-2.91025
-2.78555
-2.66094
-2.53827
-2.41761
-2.29898
-2.18243
-2.068
-1.9557
-1.84556
-1.73759
-1.6318
-1.52819
-1.42674
-1.32744
-1.23025
-1.13514
-1.0421
-0.95113
-0.862213
-0.775336
-0.69049
-0.607671
-0.526871
-0.448078
-0.371283
-0.296473
-0.22363
-0.152735
-0.0837624
-0.0166862
0.048522
0.111894
0.173471
0.233301
0.291428
0.34789
0.40272
0.455941
0.507573
0.557659
0.606252
0.653394
-5.78466
-5.7746
-5.76641
-5.75787
-5.74902
-5.7399
-5.73049
-5.72077
-5.71074
-5.70038
-5.68968
-5.67863
-5.66722
-5.65542
-5.64323
-5.63062
-5.6176
-5.60413
-5.59021
-5.57581
-5.56091
-5.5455
-5.52955
-5.51305
-5.49596
-5.47827
-5.45995
-5.44098
-5.42132
-5.40095
-5.37983
-5.35795
-5.33525
-5.31171
-5.2873
-5.26197
-5.23568
-5.20839
-5.18006
-5.15064
-5.12007
-5.08832
-5.05531
-5.021
-4.98532
-4.9482
-4.90958
-4.86937
-4.82749
-4.78387
-4.7384
-4.691
-4.64157
-4.59001
-4.53621
-4.48007
-4.42149
-4.36035
-4.29654
-4.22995
-4.16046
-4.08794
-4.01228
-3.93333
-3.85095
-3.76501
-3.67534
-3.58179
-3.48418
-3.38234
-3.27608
-3.16519
-3.04946
-2.92866
-2.80437
-2.68007
-2.55763
-2.43709
-2.31851
-2.20193
-2.08739
-1.97491
-1.86454
-1.75629
-1.65017
-1.54618
-1.44434
-1.34463
-1.24702
-1.15149
-1.05801
-0.966588
-0.877192
-0.78982
-0.704472
-0.621142
-0.539826
-0.460515
-0.3832
-0.307871
-0.234514
-0.163109
-0.0936336
-0.0260628
0.0396304
0.103476
0.165508
0.225768
0.284304
0.341158
0.396364
0.449951
0.501952
0.552407
0.601352
0.648821
-5.78465
-5.77455
-5.76637
-5.75783
-5.74898
-5.73985
-5.73044
-5.72073
-5.71069
-5.70033
-5.68964
-5.67859
-5.66717
-5.65538
-5.64319
-5.63059
-5.61758
-5.60412
-5.59021
-5.57582
-5.56094
-5.54554
-5.52962
-5.51314
-5.49608
-5.47841
-5.46013
-5.44118
-5.42156
-5.40123
-5.38016
-5.35832
-5.33567
-5.31218
-5.28783
-5.26255
-5.23633
-5.20911
-5.18086
-5.15152
-5.12105
-5.0894
-5.05651
-5.02233
-4.98679
-4.94983
-4.91139
-4.87138
-4.82974
-4.78638
-4.74122
-4.69415
-4.6451
-4.59396
-4.54062
-4.48499
-4.42694
-4.36638
-4.30318
-4.23722
-4.16839
-4.09656
-4.02159
-3.94335
-3.86169
-3.77646
-3.6875
-3.59466
-3.49775
-3.39659
-3.29098
-3.18072
-3.06557
-2.9453
-2.82147
-2.69756
-2.57541
-2.45507
-2.33662
-2.22008
-2.10551
-1.99294
-1.8824
-1.77393
-1.66754
-1.56325
-1.46106
-1.36097
-1.26297
-1.16704
-1.07317
-0.981324
-0.891495
-0.803677
-0.717867
-0.634065
-0.55227
-0.472474
-0.394672
-0.318856
-0.245012
-0.173123
-0.103169
-0.0351263
0.0310317
0.0953328
0.157808
0.218494
0.277431
0.334664
0.390233
0.444175
0.496524
0.547313
0.596579
0.644357
-5.78462
-5.7745
-5.76633
-5.75778
-5.74892
-5.73979
-5.73037
-5.72065
-5.71062
-5.70025
-5.68955
-5.6785
-5.66709
-5.65529
-5.64311
-5.63052
-5.6175
-5.60405
-5.59015
-5.57577
-5.5609
-5.54553
-5.52962
-5.51315
-5.49612
-5.47848
-5.46022
-5.44131
-5.42172
-5.40142
-5.38039
-5.35859
-5.33598
-5.31255
-5.28824
-5.26302
-5.23686
-5.20971
-5.18152
-5.15226
-5.12187
-5.0903
-5.05751
-5.02344
-4.98802
-4.95119
-4.9129
-4.87306
-4.8316
-4.78846
-4.74353
-4.69674
-4.64799
-4.59719
-4.54422
-4.489
-4.43141
-4.37133
-4.30865
-4.24324
-4.17499
-4.10376
-4.02942
-3.95182
-3.87081
-3.78624
-3.69795
-3.60578
-3.50953
-3.40903
-3.30407
-3.19443
-3.07987
-2.96016
-2.83683
-2.71334
-2.59153
-2.47146
-2.35319
-2.23676
-2.12223
-2.00963
-1.899
-1.79038
-1.68379
-1.57925
-1.47676
-1.37635
-1.27801
-1.18172
-1.08747
-0.995242
-0.905022
-0.8168
-0.730575
-0.646346
-0.564113
-0.483873
-0.405622
-0.329352
-0.255054
-0.182714
-0.112311
-0.0438256
0.0227684
0.087498
0.150393
0.211486
0.270815
0.328419
0.38434
0.438619
0.491294
0.542399
0.591972
0.640046
-5.78459
-5.77444
-5.76627
-5.75771
-5.74884
-5.73971
-5.73028
-5.72055
-5.71051
-5.70014
-5.68944
-5.67838
-5.66696
-5.65517
-5.64298
-5.63039
-5.61738
-5.60393
-5.59003
-5.57567
-5.56081
-5.54544
-5.52954
-5.5131
-5.49608
-5.47846
-5.46023
-5.44134
-5.42178
-5.40151
-5.38052
-5.35875
-5.33619
-5.3128
-5.28854
-5.26337
-5.23726
-5.21016
-5.18204
-5.15284
-5.12252
-5.09104
-5.05833
-5.02434
-4.98903
-4.95231
-4.91414
-4.87444
-4.83314
-4.79016
-4.74543
-4.69886
-4.65035
-4.59982
-4.54716
-4.49228
-4.43505
-4.37538
-4.31313
-4.2482
-4.18045
-4.10975
-4.03596
-3.95892
-3.8785
-3.79453
-3.70685
-3.61529
-3.51967
-3.41979
-3.31545
-3.20641
-3.09243
-2.97328
-2.85046
-2.72741
-2.60598
-2.48622
-2.36818
-2.25192
-2.13748
-2.02492
-1.91426
-1.80555
-1.69882
-1.59409
-1.49138
-1.3907
-1.29206
-1.19545
-1.10086
-1.00828
-0.917709
-0.829114
-0.742505
-0.657891
-0.575265
-0.494625
-0.415969
-0.339291
-0.264582
-0.19183
-0.121017
-0.0521252
0.0148705
0.0799963
0.143281
0.204756
0.264455
0.322416
0.378679
0.433284
0.48627
0.537676
0.587539
0.635893
-5.78455
-5.77437
-5.76619
-5.75763
-5.74875
-5.7396
-5.73017
-5.72043
-5.71038
-5.7
-5.68929
-5.67823
-5.6668
-5.655
-5.64281
-5.63022
-5.6172
-5.60376
-5.58986
-5.5755
-5.56064
-5.54529
-5.5294
-5.51297
-5.49596
-5.47837
-5.46015
-5.44128
-5.42175
-5.40151
-5.38054
-5.35881
-5.33629
-5.31293
-5.28871
-5.26359
-5.23753
-5.21048
-5.18241
-5.15328
-5.12302
-5.0916
-5.05897
-5.02506
-4.98983
-4.95321
-4.91514
-4.87556
-4.83439
-4.79155
-4.74698
-4.70058
-4.65228
-4.60197
-4.54956
-4.49495
-4.43803
-4.37868
-4.3168
-4.25226
-4.18494
-4.11469
-4.04137
-3.96484
-3.88494
-3.8015
-3.71437
-3.62337
-3.52832
-3.42901
-3.32525
-3.21678
-3.10337
-2.98475
-2.86243
-2.73985
-2.6188
-2.49937
-2.3816
-2.26554
-2.15125
-2.03877
-1.92814
-1.8194
-1.71259
-1.60773
-1.50485
-1.40396
-1.30508
-1.2082
-1.11332
-1.02044
-0.929539
-0.840622
-0.753687
-0.668723
-0.585729
-0.504715
-0.425685
-0.348633
-0.273549
-0.200421
-0.129236
-0.0599736
0.00738724
0.0728718
0.13651
0.198332
0.258371
0.316664
0.373247
0.428161
0.481444
0.533137
0.583275
0.631896
-5.7845
-5.77429
-5.76611
-5.75753
-5.74864
-5.73948
-5.73003
-5.72028
-5.71022
-5.69983
-5.68911
-5.67803
-5.6666
-5.65479
-5.64259
-5.62999
-5.61698
-5.60353
-5.58963
-5.57527
-5.56042
-5.54506
-5.52919
-5.51276
-5.49577
-5.47819
-5.45998
-5.44114
-5.42163
-5.40141
-5.38047
-5.35877
-5.33627
-5.31295
-5.28877
-5.26369
-5.23767
-5.21067
-5.18265
-5.15356
-5.12336
-5.092
-5.05943
-5.0256
-4.99044
-4.95391
-4.91593
-4.87644
-4.83538
-4.79266
-4.74822
-4.70197
-4.65383
-4.6037
-4.55149
-4.49711
-4.44043
-4.38136
-4.31978
-4.25556
-4.18859
-4.11871
-4.0458
-3.9697
-3.89026
-3.8073
-3.72067
-3.63017
-3.53563
-3.43685
-3.33362
-3.22568
-3.11279
-2.99469
-2.87286
-2.75072
-2.63007
-2.51098
-2.39349
-2.27767
-2.16355
-2.05119
-1.94064
-1.83192
-1.72508
-1.62014
-1.51714
-1.4161
-1.31703
-1.21994
-1.12483
-1.0317
-0.940545
-0.851356
-0.764129
-0.678865
-0.595569
-0.514243
-0.434888
-0.3575
-0.282074
-0.2086
-0.137066
-0.0674558
0.000250855
0.0660807
0.130061
0.192218
0.252581
0.311185
0.368068
0.423269
0.476828
0.528784
0.579178
0.628045
-5.78445
-5.77421
-5.76601
-5.75742
-5.74851
-5.73933
-5.72987
-5.72011
-5.71003
-5.69963
-5.68889
-5.67781
-5.66636
-5.65454
-5.64233
-5.62972
-5.6167
-5.60324
-5.58934
-5.57498
-5.56013
-5.54477
-5.5289
-5.51248
-5.4955
-5.47792
-5.45974
-5.44091
-5.42141
-5.40122
-5.3803
-5.35862
-5.33615
-5.31286
-5.28871
-5.26366
-5.23768
-5.21072
-5.18274
-5.1537
-5.12356
-5.09225
-5.05974
-5.02596
-4.99087
-4.9544
-4.9165
-4.8771
-4.83613
-4.79351
-4.74918
-4.70306
-4.65505
-4.60507
-4.55303
-4.49883
-4.44236
-4.38351
-4.32218
-4.25823
-4.19154
-4.12197
-4.04941
-3.97368
-3.89463
-3.8121
-3.7259
-3.63586
-3.54178
-3.44346
-3.34071
-3.23326
-3.12085
-3.00323
-2.88186
-2.76015
-2.63988
-2.52113
-2.40393
-2.28836
-2.17444
-2.06224
-1.95178
-1.84312
-1.7363
-1.63133
-1.52827
-1.42712
-1.32791
-1.23066
-1.13537
-1.04203
-0.950664
-0.861257
-0.773807
-0.688311
-0.604769
-0.523183
-0.443555
-0.365884
-0.290165
-0.216391
-0.144551
-0.0746293
-0.00660723
0.0595379
0.123829
0.186291
0.246955
0.305857
0.363032
0.418517
0.472353
0.524578
0.575227
0.624334
-5.78439
-5.77412
-5.76591
-5.7573
-5.74837
-5.73918
-5.7297
-5.71992
-5.70982