/*--------------------------------*- C++ -*----------------------------------*\
  =========                 |
  \\      /  F ield         | OpenFOAM: The Open Source CFD Toolbox
   \\    /   O peration     | Website:  https://openfoam.org
    \\  /    A nd           | Version:  10
     \\/     M anipulation  |
\*---------------------------------------------------------------------------*/
FoamFile
{
    format      ascii;
    class       volScalarField;
    location    "37000";
    object      nut;
}
// * * * * * * * * * * * * * * * * * * * * * * * * * * * * * * * * * * * * * //

dimensions      [0 2 -1 0 0 0 0];

internalField   nonuniform List<scalar> 
17808
(
3.06878e-06
2.28486e-05
3.98148e-05
5.62724e-05
7.36142e-05
9.15532e-05
0.000109963
0.000128781
0.000147969
0.000167509
0.000187386
0.000207592
0.000228124
0.000248979
0.000270156
0.000291654
0.000313476
0.000335624
0.000358099
0.000380904
0.000404044
0.00042752
0.000451338
0.0004755
0.000500012
0.000524877
0.0005501
0.000575686
0.000601638
0.000627963
0.000654665
0.000681748
0.000709219
0.000737081
0.000765341
0.000794004
0.000823074
0.000852558
0.00088246
0.000912787
0.000943543
0.000974735
0.00100637
0.00103844
0.00107097
0.00110396
0.00113741
0.00117132
0.00120571
0.00124057
0.00127592
0.00131176
0.00134809
0.00138491
0.00142224
0.00146008
0.00149842
0.00153728
0.00157665
0.00161655
0.00165697
0.00169792
0.0017394
0.00178141
0.00182395
0.00186702
0.00191063
0.00195476
0.00199942
0.00204461
0.00209033
0.00213657
0.00218333
0.0022306
0.00227838
0.00232667
0.00237544
0.0024247
0.00247444
0.00252463
0.00257527
0.00262635
0.00267783
0.00272972
0.00278197
0.00283458
0.00288752
0.00294075
0.00299425
0.00304799
0.00310192
0.00315601
3.05993e-06
2.31298e-05
3.97962e-05
5.62551e-05
7.35935e-05
9.15291e-05
0.000109936
0.000128751
0.000147938
0.000167476
0.000187351
0.000207557
0.000228088
0.000248943
0.000270119
0.000291618
0.00031344
0.000335588
0.000358064
0.00038087
0.00040401
0.000427487
0.000451305
0.000475469
0.000499981
0.000524847
0.000550071
0.000575657
0.000601611
0.000627936
0.000654638
0.000681723
0.000709194
0.000737057
0.000765318
0.000793981
0.000823052
0.000852537
0.00088244
0.000912768
0.000943525
0.000974717
0.00100635
0.00103843
0.00107096
0.00110394
0.00113739
0.00117131
0.0012057
0.00124056
0.00127591
0.00131175
0.00134808
0.0013849
0.00142223
0.00146007
0.00149841
0.00153727
0.00157665
0.00161654
0.00165697
0.00169792
0.00173939
0.0017814
0.00182395
0.00186702
0.00191063
0.00195476
0.00199942
0.00204461
0.00209033
0.00213657
0.00218333
0.00223061
0.00227839
0.00232668
0.00237545
0.00242471
0.00247445
0.00252464
0.00257529
0.00262636
0.00267785
0.00272973
0.00278199
0.0028346
0.00288754
0.00294077
0.00299427
0.00304801
0.00310194
0.00315604
3.05583e-06
2.31925e-05
3.97734e-05
5.6233e-05
7.35695e-05
9.15041e-05
0.00010991
0.000128724
0.00014791
0.000167447
0.000187323
0.000207528
0.000228059
0.000248913
0.00027009
0.000291589
0.000313412
0.00033556
0.000358036
0.000380842
0.000403983
0.000427461
0.00045128
0.000475443
0.000499957
0.000524823
0.000550047
0.000575634
0.000601588
0.000627914
0.000654617
0.000681702
0.000709174
0.000737038
0.0007653
0.000793964
0.000823035
0.000852521
0.000882424
0.000912753
0.00094351
0.000974703
0.00100634
0.00103841
0.00107095
0.00110393
0.00113738
0.0011713
0.00120569
0.00124055
0.0012759
0.00131174
0.00134807
0.0013849
0.00142223
0.00146006
0.00149841
0.00153727
0.00157665
0.00161654
0.00165697
0.00169792
0.0017394
0.00178141
0.00182395
0.00186702
0.00191063
0.00195476
0.00199943
0.00204462
0.00209034
0.00213658
0.00218334
0.00223062
0.0022784
0.00232669
0.00237547
0.00242473
0.00247446
0.00252466
0.0025753
0.00262638
0.00267787
0.00272975
0.00278201
0.00283462
0.00288756
0.0029408
0.0029943
0.00304804
0.00310197
0.00315607
3.05537e-06
2.31735e-05
3.97574e-05
5.62141e-05
7.35485e-05
9.14821e-05
0.000109887
0.0001287
0.000147886
0.000167422
0.000187297
0.000207502
0.000228034
0.000248888
0.000270065
0.000291564
0.000313387
0.000335535
0.000358012
0.000380819
0.00040396
0.000427438
0.000451258
0.000475422
0.000499936
0.000524803
0.000550027
0.000575615
0.000601569
0.000627896
0.0006546
0.000681685
0.000709157
0.000737022
0.000765284
0.000793948
0.000823021
0.000852506
0.000882411
0.000912739
0.000943498
0.000974691
0.00100632
0.0010384
0.00107093
0.00110392
0.00113737
0.00117129
0.00120568
0.00124055
0.0012759
0.00131174
0.00134807
0.00138489
0.00142222
0.00146006
0.00149841
0.00153727
0.00157664
0.00161654
0.00165697
0.00169792
0.0017394
0.00178141
0.00182395
0.00186703
0.00191063
0.00195477
0.00199943
0.00204463
0.00209035
0.00213659
0.00218335
0.00223063
0.00227841
0.0023267
0.00237548
0.00242474
0.00247448
0.00252468
0.00257532
0.0026264
0.00267789
0.00272977
0.00278203
0.00283465
0.00288758
0.00294082
0.00299432
0.00304806
0.003102
0.00315609
3.05532e-06
2.31653e-05
3.97482e-05
5.62012e-05
7.35344e-05
9.1467e-05
0.000109871
0.000128683
0.000147868
0.000167403
0.000187277
0.000207482
0.000228013
0.000248867
0.000270043
0.000291543
0.000313366
0.000335515
0.000357991
0.000380799
0.00040394
0.000427419
0.000451239
0.000475403
0.000499917
0.000524785
0.00055001
0.000575598
0.000601553
0.00062788
0.000654584
0.00068167
0.000709143
0.000737008
0.00076527
0.000793935
0.000823008
0.000852494
0.000882399
0.000912728
0.000943487
0.000974681
0.00100631
0.00103839
0.00107093
0.00110391
0.00113736
0.00117128
0.00120567
0.00124054
0.00127589
0.00131173
0.00134806
0.00138489
0.00142222
0.00146006
0.0014984
0.00153726
0.00157664
0.00161654
0.00165697
0.00169792
0.0017394
0.00178141
0.00182396
0.00186703
0.00191064
0.00195477
0.00199944
0.00204463
0.00209035
0.0021366
0.00218336
0.00223064
0.00227842
0.00232671
0.00237549
0.00242476
0.00247449
0.00252469
0.00257534
0.00262641
0.00267791
0.00272979
0.00278205
0.00283467
0.00288761
0.00294084
0.00299435
0.00304809
0.00310203
0.00315612
3.05519e-06
2.31621e-05
3.97422e-05
5.61912e-05
7.35235e-05
9.14552e-05
0.000109859
0.00012867
0.000147854
0.000167388
0.000187262
0.000207466
0.000227996
0.000248849
0.000270026
0.000291525
0.000313348
0.000335497
0.000357973
0.000380781
0.000403923
0.000427402
0.000451222
0.000475387
0.000499901
0.000524769
0.000549995
0.000575583
0.000601539
0.000627866
0.000654571
0.000681657
0.00070913
0.000736996
0.000765259
0.000793924
0.000822997
0.000852484
0.000882389
0.000912719
0.000943478
0.000974672
0.00100631
0.00103839
0.00107092
0.00110391
0.00113736
0.00117128
0.00120567
0.00124054
0.00127589
0.00131173
0.00134806
0.00138489
0.00142222
0.00146006
0.0014984
0.00153726
0.00157664
0.00161654
0.00165697
0.00169792
0.0017394
0.00178141
0.00182396
0.00186703
0.00191064
0.00195478
0.00199945
0.00204464
0.00209036
0.00213661
0.00218337
0.00223065
0.00227844
0.00232672
0.00237551
0.00242477
0.00247451
0.00252471
0.00257535
0.00262643
0.00267792
0.00272981
0.00278207
0.00283469
0.00288763
0.00294087
0.00299437
0.00304811
0.00310205
0.00315615
3.05529e-06
2.3158e-05
3.9738e-05
5.61831e-05
7.35142e-05
9.1445e-05
0.000109848
0.000128659
0.000147842
0.000167376
0.000187248
0.000207452
0.000227981
0.000248834
0.00027001
0.000291509
0.000313332
0.000335481
0.000357958
0.000380765
0.000403907
0.000427387
0.000451207
0.000475373
0.000499887
0.000524756
0.000549982
0.00057557
0.000601526
0.000627854
0.000654559
0.000681646
0.00070912
0.000736985
0.000765249
0.000793914
0.000822988
0.000852475
0.000882381
0.000912711
0.00094347
0.000974665
0.0010063
0.00103838
0.00107091
0.0011039
0.00113735
0.00117127
0.00120566
0.00124053
0.00127588
0.00131172
0.00134806
0.00138489
0.00142222
0.00146005
0.0014984
0.00153726
0.00157664
0.00161655
0.00165697
0.00169792
0.00173941
0.00178142
0.00182396
0.00186704
0.00191065
0.00195478
0.00199945
0.00204465
0.00209037
0.00213662
0.00218338
0.00223066
0.00227845
0.00232674
0.00237552
0.00242478
0.00247452
0.00252472
0.00257537
0.00262645
0.00267794
0.00272983
0.00278209
0.00283471
0.00288765
0.00294089
0.0029944
0.00304814
0.00310208
0.00315617
3.05561e-06
2.31547e-05
3.97352e-05
5.61766e-05
7.35062e-05
9.14361e-05
0.000109838
0.000128649
0.000147831
0.000167365
0.000187236
0.000207439
0.000227968
0.000248821
0.000269996
0.000291495
0.000313318
0.000335467
0.000357944
0.000380751
0.000403893
0.000427373
0.000451194
0.00047536
0.000499875
0.000524743
0.00054997
0.000575559
0.000601515
0.000627843
0.000654549
0.000681636
0.00070911
0.000736976
0.00076524
0.000793906
0.00082298
0.000852468
0.000882374
0.000912704
0.000943464
0.000974659
0.00100629
0.00103838
0.00107091
0.0011039
0.00113735
0.00117127
0.00120566
0.00124053
0.00127588
0.00131172
0.00134805
0.00138488
0.00142222
0.00146005
0.0014984
0.00153727
0.00157665
0.00161655
0.00165697
0.00169793
0.00173941
0.00178142
0.00182397
0.00186704
0.00191065
0.00195479
0.00199946
0.00204466
0.00209038
0.00213662
0.00218339
0.00223067
0.00227846
0.00232675
0.00237553
0.0024248
0.00247454
0.00252474
0.00257539
0.00262647
0.00267796
0.00272985
0.00278211
0.00283473
0.00288767
0.00294091
0.00299442
0.00304816
0.0031021
0.0031562
3.05599e-06
2.31528e-05
3.97338e-05
5.61717e-05
7.34996e-05
9.14285e-05
0.00010983
0.00012864
0.000147822
0.000167355
0.000187227
0.000207429
0.000227957
0.000248809
0.000269984
0.000291483
0.000313305
0.000335454
0.000357931
0.000380739
0.000403881
0.000427361
0.000451182
0.000475348
0.000499863
0.000524732
0.000549959
0.000575548
0.000601505
0.000627834
0.000654539
0.000681627
0.000709101
0.000736968
0.000765232
0.000793899
0.000822973
0.000852461
0.000882368
0.000912698
0.000943458
0.000974654
0.00100629
0.00103837
0.0010709
0.00110389
0.00113735
0.00117127
0.00120566
0.00124053
0.00127588
0.00131172
0.00134805
0.00138488
0.00142222
0.00146006
0.0014984
0.00153727
0.00157665
0.00161655
0.00165698
0.00169793
0.00173941
0.00178143
0.00182397
0.00186705
0.00191066
0.0019548
0.00199947
0.00204466
0.00209039
0.00213663
0.0021834
0.00223068
0.00227847
0.00232676
0.00237554
0.00242481
0.00247455
0.00252475
0.0025754
0.00262648
0.00267798
0.00272987
0.00278213
0.00283475
0.00288769
0.00294093
0.00299444
0.00304819
0.00310213
0.00315623
3.05638e-06
2.31517e-05
3.97334e-05
5.61682e-05
7.34941e-05
9.14219e-05
0.000109823
0.000128633
0.000147814
0.000167347
0.000187218
0.00020742
0.000227947
0.000248799
0.000269974
0.000291472
0.000313294
0.000335443
0.00035792
0.000380728
0.00040387
0.000427349
0.000451171
0.000475337
0.000499852
0.000524722
0.000549949
0.000575539
0.000601496
0.000627825
0.000654531
0.000681619
0.000709093
0.00073696
0.000765225
0.000793892
0.000822967
0.000852455
0.000882362
0.000912693
0.000943454
0.00097465
0.00100629
0.00103837
0.0010709
0.00110389
0.00113734
0.00117126
0.00120566
0.00124053
0.00127588
0.00131172
0.00134805
0.00138489
0.00142222
0.00146006
0.00149841
0.00153727
0.00157665
0.00161655
0.00165698
0.00169794
0.00173942
0.00178143
0.00182398
0.00186705
0.00191066
0.0019548
0.00199947
0.00204467
0.0020904
0.00213664
0.00218341
0.00223069
0.00227848
0.00232677
0.00237556
0.00242483
0.00247457
0.00252477
0.00257542
0.0026265
0.002678
0.00272989
0.00278215
0.00283477
0.00288772
0.00294096
0.00299447
0.00304821
0.00310215
0.00315625
3.05677e-06
2.31511e-05
3.97337e-05
5.61657e-05
7.34896e-05
9.14163e-05
0.000109817
0.000128626
0.000147807
0.00016734
0.00018721
0.000207411
0.000227939
0.00024879
0.000269965
0.000291462
0.000313284
0.000335433
0.000357909
0.000380717
0.00040386
0.000427339
0.000451161
0.000475327
0.000499843
0.000524712
0.00054994
0.00057553
0.000601487
0.000627816
0.000654523
0.000681611
0.000709086
0.000736954
0.000765218
0.000793886
0.000822961
0.00085245
0.000882357
0.000912689
0.00094345
0.000974646
0.00100628
0.00103837
0.0010709
0.00110389
0.00113734
0.00117126
0.00120566
0.00124053
0.00127588
0.00131172
0.00134806
0.00138489
0.00142222
0.00146006
0.00149841
0.00153727
0.00157666
0.00161656
0.00165699
0.00169794
0.00173942
0.00178144
0.00182398
0.00186706
0.00191067
0.00195481
0.00199948
0.00204468
0.0020904
0.00213665
0.00218342
0.0022307
0.00227849
0.00232679
0.00237557
0.00242484
0.00247458
0.00252479
0.00257544
0.00262652
0.00267801
0.00272991
0.00278217
0.00283479
0.00288774
0.00294098
0.00299449
0.00304823
0.00310218
0.00315628
3.05715e-06
2.31509e-05
3.97347e-05
5.61642e-05
7.3486e-05
9.14115e-05
0.000109812
0.00012862
0.000147801
0.000167333
0.000187204
0.000207404
0.000227931
0.000248782
0.000269956
0.000291454
0.000313276
0.000335424
0.0003579
0.000380708
0.00040385
0.00042733
0.000451152
0.000475318
0.000499834
0.000524704
0.000549931
0.000575522
0.000601479
0.000627809
0.000654516
0.000681604
0.00070908
0.000736948
0.000765213
0.00079388
0.000822956
0.000852445
0.000882353
0.000912685
0.000943446
0.000974643
0.00100628
0.00103836
0.0010709
0.00110389
0.00113734
0.00117126
0.00120566
0.00124053
0.00127588
0.00131172
0.00134806
0.00138489
0.00142222
0.00146006
0.00149841
0.00153728
0.00157666
0.00161656
0.00165699
0.00169795
0.00173943
0.00178144
0.00182399
0.00186707
0.00191068
0.00195482
0.00199949
0.00204469
0.00209041
0.00213666
0.00218343
0.00223071
0.00227851
0.0023268
0.00237558
0.00242485
0.0024746
0.0025248
0.00257545
0.00262654
0.00267803
0.00272993
0.00278219
0.00283481
0.00288776
0.002941
0.00299451
0.00304826
0.0031022
0.0031563
3.05751e-06
2.3151e-05
3.97362e-05
5.61635e-05
7.34833e-05
9.14074e-05
0.000109807
0.000128615
0.000147796
0.000167328
0.000187197
0.000207398
0.000227925
0.000248775
0.000269949
0.000291446
0.000313268
0.000335416
0.000357892
0.0003807
0.000403842
0.000427322
0.000451143
0.00047531
0.000499826
0.000524696
0.000549924
0.000575514
0.000601472
0.000627802
0.000654509
0.000681598
0.000709074
0.000736942
0.000765207
0.000793875
0.000822952
0.000852441
0.000882349
0.000912682
0.000943443
0.00097464
0.00100628
0.00103836
0.0010709
0.00110389
0.00113734
0.00117126
0.00120566
0.00124053
0.00127588
0.00131172
0.00134806
0.00138489
0.00142223
0.00146007
0.00149842
0.00153728
0.00157666
0.00161657
0.001657
0.00169795
0.00173944
0.00178145
0.001824
0.00186707
0.00191068
0.00195483
0.0019995
0.0020447
0.00209042
0.00213667
0.00218344
0.00223073
0.00227852
0.00232681
0.0023756
0.00242487
0.00247461
0.00252482
0.00257547
0.00262655
0.00267805
0.00272995
0.00278221
0.00283483
0.00288778
0.00294102
0.00299453
0.00304828
0.00310222
0.00315633
3.05784e-06
2.31514e-05
3.97381e-05
5.61634e-05
7.34813e-05
9.14041e-05
0.000109803
0.00012861
0.000147791
0.000167322
0.000187192
0.000207392
0.000227919
0.000248769
0.000269943
0.000291439
0.000313261
0.000335408
0.000357885
0.000380692
0.000403834
0.000427314
0.000451136
0.000475302
0.000499819
0.000524689
0.000549917
0.000575507
0.000601465
0.000627796
0.000654503
0.000681592
0.000709068
0.000736937
0.000765202
0.000793871
0.000822947
0.000852437
0.000882346
0.000912678
0.000943441
0.000974638
0.00100628
0.00103836
0.00107089
0.00110389
0.00113734
0.00117126
0.00120566
0.00124053
0.00127588
0.00131173
0.00134806
0.00138489
0.00142223
0.00146007
0.00149842
0.00153729
0.00157667
0.00161657
0.001657
0.00169796
0.00173944
0.00178146
0.001824
0.00186708
0.00191069
0.00195483
0.00199951
0.00204471
0.00209043
0.00213668
0.00218345
0.00223074
0.00227853
0.00232683
0.00237561
0.00242488
0.00247463
0.00252483
0.00257549
0.00262657
0.00267807
0.00272996
0.00278223
0.00283485
0.0028878
0.00294104
0.00299456
0.0030483
0.00310225
0.00315635
3.05814e-06
2.31519e-05
3.97402e-05
5.6164e-05
7.348e-05
9.14014e-05
0.000109799
0.000128606
0.000147786
0.000167318
0.000187187
0.000207387
0.000227914
0.000248764
0.000269937
0.000291433
0.000313254
0.000335402
0.000357878
0.000380686
0.000403828
0.000427307
0.000451129
0.000475296
0.000499812
0.000524682
0.00054991
0.000575501
0.000601459
0.00062779
0.000654497
0.000681587
0.000709063
0.000736932
0.000765198
0.000793867
0.000822944
0.000852434
0.000882343
0.000912676
0.000943438
0.000974636
0.00100627
0.00103836
0.00107089
0.00110389
0.00113734
0.00117126
0.00120566
0.00124053
0.00127588
0.00131173
0.00134806
0.0013849
0.00142223
0.00146007
0.00149842
0.00153729
0.00157667
0.00161658
0.00165701
0.00169796
0.00173945
0.00178146
0.00182401
0.00186709
0.0019107
0.00195484
0.00199951
0.00204472
0.00209044
0.0021367
0.00218347
0.00223075
0.00227854
0.00232684
0.00237563
0.0024249
0.00247464
0.00252485
0.0025755
0.00262659
0.00267809
0.00272998
0.00278225
0.00283487
0.00288782
0.00294107
0.00299458
0.00304833
0.00310227
0.00315638
3.05842e-06
2.31526e-05
3.97426e-05
5.61651e-05
7.34794e-05
9.13994e-05
0.000109796
0.000128603
0.000147782
0.000167313
0.000187183
0.000207383
0.000227909
0.000248759
0.000269931
0.000291428
0.000313249
0.000335396
0.000357872
0.000380679
0.000403821
0.000427301
0.000451123
0.000475289
0.000499806
0.000524676
0.000549904
0.000575495
0.000601454
0.000627784
0.000654492
0.000681582
0.000709058
0.000736927
0.000765194
0.000793863
0.00082294
0.000852431
0.00088234
0.000912673
0.000943436
0.000974634
0.00100627
0.00103836
0.00107089
0.00110389
0.00113734
0.00117126
0.00120566
0.00124053
0.00127589
0.00131173
0.00134807
0.0013849
0.00142224
0.00146008
0.00149843
0.0015373
0.00157668
0.00161658
0.00165701
0.00169797
0.00173946
0.00178147
0.00182402
0.0018671
0.00191071
0.00195485
0.00199952
0.00204473
0.00209045
0.00213671
0.00218348
0.00223076
0.00227856
0.00232685
0.00237564
0.00242491
0.00247466
0.00252487
0.00257552
0.00262661
0.00267811
0.00273
0.00278227
0.0028349
0.00288784
0.00294109
0.0029946
0.00304835
0.00310229
0.0031564
3.05867e-06
2.31535e-05
3.97451e-05
5.61666e-05
7.34794e-05
9.13979e-05
0.000109793
0.000128599
0.000147779
0.00016731
0.000187179
0.000207378
0.000227904
0.000248754
0.000269927
0.000291423
0.000313244
0.000335391
0.000357866
0.000380674
0.000403816
0.000427295
0.000451117
0.000475284
0.0004998
0.00052467
0.000549899
0.00057549
0.000601449
0.000627779
0.000654487
0.000681577
0.000709054
0.000736923
0.00076519
0.00079386
0.000822937
0.000852428
0.000882337
0.000912671
0.000943435
0.000974633
0.00100627
0.00103836
0.00107089
0.00110389
0.00113734
0.00117126
0.00120566
0.00124053
0.00127589
0.00131173
0.00134807
0.0013849
0.00142224
0.00146008
0.00149843
0.0015373
0.00157669
0.00161659
0.00165702
0.00169798
0.00173946
0.00178148
0.00182403
0.0018671
0.00191072
0.00195486
0.00199953
0.00204474
0.00209047
0.00213672
0.00218349
0.00223078
0.00227857
0.00232687
0.00237566
0.00242493
0.00247468
0.00252488
0.00257554
0.00262662
0.00267813
0.00273002
0.00278229
0.00283492
0.00288786
0.00294111
3.0589e-06
2.31544e-05
3.97477e-05
5.61685e-05
7.34798e-05
9.1397e-05
0.000109791
0.000128597
0.000147776
0.000167306
0.000187175
0.000207375
0.0002279
0.00024875
0.000269922
0.000291418
0.000313239
0.000335386
0.000357862
0.000380669
0.00040381
0.00042729
0.000451112
0.000475279
0.000499795
0.000524665
0.000549894
0.000575485
0.000601444
0.000627775
0.000654483
0.000681573
0.00070905
0.00073692
0.000765187
0.000793856
0.000822934
0.000852425
0.000882335
0.000912669
0.000943433
0.000974632
0.00100627
0.00103836
0.00107089
0.00110389
0.00113734
0.00117127
0.00120566
0.00124053
0.00127589
0.00131174
0.00134807
0.00138491
0.00142224
0.00146009
0.00149844
0.00153731
0.00157669
0.0016166
0.00165703
0.00169798
0.00173947
0.00178149
0.00182403
0.00186711
0.00191073
0.00195487
0.00199954
0.00204475
0.00209048
0.00213673
0.0021835
0.00223079
0.00227858
0.00232688
0.00237567
0.00242494
0.00247469
0.0025249
0.00257556
0.00262664
0.00267814
0.00273004
0.00278231
0.00283494
0.00288788
0.00294113
3.0591e-06
2.31554e-05
3.97503e-05
5.61707e-05
7.34807e-05
9.13966e-05
0.00010979
0.000128594
0.000147773
0.000167303
0.000187172
0.000207371
0.000227897
0.000248746
0.000269918
0.000291414
0.000313235
0.000335381
0.000357857
0.000380664
0.000403806
0.000427286
0.000451107
0.000475274
0.00049979
0.000524661
0.000549889
0.000575481
0.00060144
0.000627771
0.000654479
0.000681569
0.000709047
0.000736916
0.000765184
0.000793854
0.000822932
0.000852423
0.000882333
0.000912668
0.000943432
0.000974631
0.00100627
0.00103836
0.00107089
0.00110389
0.00113734
0.00117127
0.00120566
0.00124054
0.00127589
0.00131174
0.00134808
0.00138491
0.00142225
0.00146009
0.00149844
0.00153731
0.0015767
0.0016166
0.00165703
0.00169799
0.00173948
0.00178149
0.00182404
0.00186712
0.00191073
0.00195488
0.00199955
0.00204476
0.00209049
0.00213674
0.00218351
0.0022308
0.0022786
0.00232689
0.00237569
0.00242496
0.00247471
0.00252492
0.00257557
0.00262666
0.00267816
0.00273006
0.00278233
0.00283496
0.0028879
0.00294114
3.05929e-06
2.31564e-05
3.9753e-05
5.61731e-05
7.34821e-05
9.13967e-05
0.000109789
0.000128593
0.00014777
0.0001673
0.000187169
0.000207368
0.000227893
0.000248743
0.000269915
0.00029141
0.000313231
0.000335377
0.000357853
0.00038066
0.000403802
0.000427281
0.000451103
0.00047527
0.000499786
0.000524657
0.000549885
0.000575477
0.000601436
0.000627767
0.000654475
0.000681566
0.000709043
0.000736913
0.000765181
0.000793851
0.000822929
0.000852421
0.000882331
0.000912666
0.00094343
0.00097463
0.00100627
0.00103836
0.00107089
0.00110389
0.00113734
0.00117127
0.00120566
0.00124054
0.0012759
0.00131174
0.00134808
0.00138491
0.00142225
0.0014601
0.00149845
0.00153732
0.0015767
0.00161661
0.00165704
0.001698
0.00173949
0.0017815
0.00182405
0.00186713
0.00191074
0.00195489
0.00199956
0.00204477
0.0020905
0.00213675
0.00218353
0.00223081
0.00227861
0.00232691
0.0023757
0.00242498
0.00247472
0.00252493
0.00257559
0.00262668
0.00267818
0.00273008
0.00278235
3.05946e-06
2.31575e-05
3.97556e-05
5.61757e-05
7.34838e-05
9.13973e-05
0.000109788
0.000128591
0.000147768
0.000167298
0.000187166
0.000207365
0.00022789
0.000248739
0.000269912
0.000291407
0.000313227
0.000335374
0.000357849
0.000380656
0.000403798
0.000427277
0.000451099
0.000475266
0.000499782
0.000524653
0.000549881
0.000575473
0.000601432
0.000627764
0.000654472
0.000681563
0.000709041
0.000736911
0.000765178
0.000793849
0.000822927
0.000852419
0.00088233
0.000912665
0.000943429
0.000974629
0.00100627
0.00103836
0.00107089
0.00110389
0.00113735
0.00117127
0.00120567
0.00124054
0.0012759
0.00131174
0.00134808
0.00138492
0.00142226
0.0014601
0.00149845
0.00153732
0.00157671
0.00161662
0.00165705
0.00169801
0.00173949
0.00178151
0.00182406
0.00186714
0.00191075
0.0019549
0.00199957
0.00204478
0.00209051
0.00213676
0.00218354
0.00223083
0.00227862
0.00232692
0.00237572
0.00242499
0.00247474
0.00252495
0.00257561
0.0026267
0.0026782
0.0027301
0.00278237
3.05961e-06
2.31586e-05
3.97583e-05
5.61785e-05
7.34858e-05
9.13982e-05
0.000109788
0.00012859
0.000147767
0.000167296
0.000187164
0.000207362
0.000227888
0.000248737
0.000269909
0.000291404
0.000313224
0.00033537
0.000357846
0.000380653
0.000403794
0.000427274
0.000451095
0.000475262
0.000499779
0.000524649
0.000549878
0.00057547
0.000601429
0.00062776
0.000654469
0.00068156
0.000709038
0.000736908
0.000765176
0.000793847
0.000822925
0.000852418
0.000882329
0.000912664
0.000943429
0.000974629
0.00100627
0.00103836
0.00107089
0.00110389
0.00113735
0.00117127
0.00120567
0.00124054
0.0012759
0.00131175
0.00134809
0.00138492
0.00142226
0.00146011
0.00149846
0.00153733
0.00157672
0.00161662
0.00165706
0.00169801
0.0017395
0.00178152
0.00182407
0.00186715
0.00191076
0.00195491
0.00199958
0.00204479
0.00209052
0.00213678
0.00218355
0.00223084
0.00227864
0.00232694
0.00237573
0.00242501
0.00247476
0.00252497
0.00257563
0.00262672
0.00267822
0.00273012
0.00278239
3.05975e-06
2.31598e-05
3.97608e-05
5.61813e-05
7.34881e-05
9.13996e-05
0.000109789
0.00012859
0.000147766
0.000167294
0.000187162
0.00020736
0.000227885
0.000248734
0.000269906
0.000291401
0.000313221
0.000335367
0.000357843
0.000380649
0.000403791
0.00042727
0.000451092
0.000475259
0.000499775
0.000524646
0.000549875
0.000575467
0.000601426
0.000627758
0.000654466
0.000681557
0.000709036
0.000736906
0.000765174
0.000793845
0.000822924
0.000852416
0.000882328
0.000912663
0.000943428
0.000974629
0.00100627
0.00103836
0.00107089
0.00110389
0.00113735
0.00117127
0.00120567
0.00124055
0.0012759
0.00131175
0.00134809
0.00138493
0.00142227
0.00146011
0.00149847
0.00153733
0.00157672
0.00161663
0.00165706
0.00169802
0.00173951
0.00178153
0.00182408
0.00186716
0.00191077
0.00195492
0.00199959
0.0020448
0.00209053
0.00213679
0.00218356
0.00223085
0.00227865
0.00232695
0.00237575
0.00242502
0.00247478
0.00252499
0.00257565
0.00262674
0.00267824
0.00273014
0.00278241
3.05988e-06
2.3161e-05
3.97633e-05
5.61843e-05
7.34906e-05
9.14012e-05
0.000109789
0.00012859
0.000147765
0.000167293
0.00018716
0.000207358
0.000227883
0.000248731
0.000269903
0.000291398
0.000313218
0.000335365
0.00035784
0.000380646
0.000403788
0.000427267
0.000451089
0.000475256
0.000499772
0.000524643
0.000549872
0.000575464
0.000601423
0.000627755
0.000654464
0.000681555
0.000709033
0.000736904
0.000765172
0.000793843
0.000822923
0.000852415
0.000882327
0.000912662
0.000943428
0.000974628
0.00100627
0.00103836
0.0010709
0.00110389
0.00113735
0.00117127
0.00120567
0.00124055
0.00127591
0.00131175
0.00134809
0.00138493
0.00142227
0.00146012
0.00149847
0.00153734
0.00157673
0.00161664
0.00165707
0.00169803
0.00173952
0.00178153
0.00182408
0.00186717
0.00191078
0.00195493
0.0019996
0.00204481
0.00209054
0.0021368
0.00218358
0.00223087
0.00227867
0.00232697
0.00237576
0.00242504
0.00247479
0.00252501
0.00257567
0.00262676
0.00267826
0.00273016
0.00278243
3.06e-06
2.31621e-05
3.97657e-05
5.61872e-05
7.34933e-05
9.14032e-05
0.000109791
0.00012859
0.000147764
0.000167292
0.000187158
0.000207356
0.000227881
0.000248729
0.000269901
0.000291396
0.000313216
0.000335362
0.000357837
0.000380644
0.000403785
0.000427265
0.000451086
0.000475253
0.00049977
0.00052464
0.000549869
0.000575461
0.000601421
0.000627753
0.000654462
0.000681553
0.000709032
0.000736902
0.000765171
0.000793842
0.000822921
0.000852414
0.000882326
0.000912662
0.000943428
0.000974629
0.00100627
0.00103836
0.0010709
0.00110389
0.00113735
0.00117128
0.00120567
0.00124055
0.00127591
0.00131176
0.0013481
0.00138494
0.00142227
0.00146012
0.00149848
0.00153735
0.00157673
0.00161664
0.00165708
0.00169804
0.00173952
0.00178154
0.00182409
0.00186718
0.00191079
0.00195494
0.00199962
0.00204482
0.00209056
0.00213681
0.00218359
0.00223088
0.00227868
0.00232698
0.00237578
0.00242506
0.00247481
0.00252502
0.00257568
0.00262678
0.00267828
0.00273018
0.00278244
3.06011e-06
2.31633e-05
3.97681e-05
5.61902e-05
7.34961e-05
9.14054e-05
0.000109792
0.000128591
0.000147764
0.000167291
0.000187157
0.000207355
0.000227879
0.000248727
0.000269899
0.000291394
0.000313214
0.00033536
0.000357835
0.000380641
0.000403783
0.000427262
0.000451083
0.00047525
0.000499767
0.000524638
0.000549867
0.000575459
0.000601419
0.000627751
0.00065446
0.000681551
0.00070903
0.000736901
0.00076517
0.000793841
0.000822921
0.000852414
0.000882325
0.000912662
0.000943428
0.000974629
0.00100627
0.00103836
0.0010709
0.00110389
0.00113735
0.00117128
0.00120568
0.00124055
0.00127591
0.00131176
0.0013481
0.00138494
0.00142228
0.00146013
0.00149848
0.00153735
0.00157674
0.00161665
0.00165708
0.00169804
0.00173953
0.00178155
0.0018241
0.00186719
0.0019108
0.00195495
0.00199963
0.00204483
0.00209057
0.00213683
0.0021836
0.0022309
0.0022787
0.002327
0.0023758
0.00242508
0.00247483
0.00252504
0.0025757
0.0026268
0.0026783
0.0027302
0.00278246
3.06021e-06
2.31645e-05
3.97704e-05
5.61932e-05
7.34991e-05
9.14079e-05
0.000109794
0.000128591
0.000147764
0.000167291
0.000187156
0.000207354
0.000227878
0.000248726
0.000269897
0.000291392
0.000313211
0.000335357
0.000357832
0.000380639
0.00040378
0.00042726
0.000451081
0.000475248
0.000499765
0.000524636
0.000549865
0.000575457
0.000601417
0.000627749
0.000654458
0.00068155
0.000709028
0.0007369
0.000765168
0.00079384
0.00082292
0.000852413
0.000882325
0.000912662
0.000943428
0.000974629
0.00100627
0.00103836
0.0010709
0.0011039
0.00113735
0.00117128
0.00120568
0.00124056
0.00127592
0.00131176
0.00134811
0.00138494
0.00142228
0.00146013
0.00149849
0.00153736
0.00157675
0.00161666
0.00165709
0.00169805
0.00173954
0.00178156
0.00182411
0.00186719
0.00191081
0.00195496
0.00199964
0.00204484
0.00209058
0.00213684
0.00218362
0.00223091
0.00227871
0.00232701
0.00237581
0.00242509
0.00247485
0.00252506
0.00257572
0.00262681
0.00267832
0.00273022
0.00278248
3.06031e-06
2.31657e-05
3.97726e-05
5.61962e-05
7.35022e-05
9.14105e-05
0.000109796
0.000128593
0.000147765
0.000167291
0.000187156
0.000207353
0.000227876
0.000248724
0.000269895
0.00029139
0.00031321
0.000335356
0.00035783
0.000380637
0.000403778
0.000427258
0.000451079
0.000475246
0.000499763
0.000524634
0.000549863
0.000575455
0.000601415
0.000627747
0.000654457
0.000681548
0.000709027
0.000736899
0.000765167
0.000793839
0.000822919
0.000852413
0.000882325
0.000912662
0.000943428
0.00097463
0.00100627
0.00103836
0.0010709
0.0011039
0.00113736
0.00117128
0.00120568
0.00124056
0.00127592
0.00131177
0.00134811
0.00138495
0.00142229
0.00146014
0.00149849
0.00153736
0.00157675
0.00161666
0.0016571
0.00169806
0.00173955
0.00178157
0.00182412
0.0018672
0.00191082
0.00195497
0.00199965
0.00204486
0.00209059
0.00213685
0.00218363
0.00223092
0.00227873
0.00232703
0.00237583
0.00242511
0.00247486
0.00252508
0.00257574
0.00262683
0.00267834
0.00273024
0.0027825
3.0604e-06
2.31668e-05
3.97747e-05
5.61992e-05
7.35053e-05
9.14133e-05
0.000109798
0.000128594
0.000147766
0.000167291
0.000187156
0.000207352
0.000227876
0.000248723
0.000269894
0.000291389
0.000313208
0.000335354
0.000357829
0.000380635
0.000403776
0.000427256
0.000451077
0.000475244
0.000499761
0.000524632
0.000549861
0.000575453
0.000601413
0.000627746
0.000654455
0.000681547
0.000709026
0.000736898
0.000765167
0.000793839
0.000822919
0.000852412
0.000882325
0.000912662
0.000943429
0.00097463
0.00100627
0.00103836
0.0010709
0.0011039
0.00113736
0.00117129
0.00120568
0.00124056
0.00127592
0.00131177
0.00134811
0.00138495
0.00142229
0.00146014
0.0014985
0.00153737
0.00157676
0.00161667
0.00165711
0.00169807
0.00173956
0.00178158
0.00182413
0.00186721
0.00191083
0.00195498
0.00199966
0.00204487
0.0020906
0.00213686
0.00218364
0.00223094
0.00227874
0.00232705
0.00237584
0.00242513
0.00247488
0.0025251
0.00257576