/*--------------------------------*- C++ -*----------------------------------*\
  =========                 |
  \\      /  F ield         | OpenFOAM: The Open Source CFD Toolbox
   \\    /   O peration     | Website:  https://openfoam.org
    \\  /    A nd           | Version:  10
     \\/     M anipulation  |
\*---------------------------------------------------------------------------*/
FoamFile
{
    format      ascii;
    class       volVectorField;
    location    "37000";
    object      U;
}
// * * * * * * * * * * * * * * * * * * * * * * * * * * * * * * * * * * * * * //

dimensions      [0 1 -1 0 0 0 0];

internalField   nonuniform List<vector> 
17808
(
(-1.48774 1.61773 -6.71172e-18)
(-1.83836 2.00649 -7.5227e-19)
(-1.99286 2.17649 4.86898e-18)
(-2.0987 2.28889 5.23871e-18)
(-2.17744 2.3749 -1.22963e-18)
(-2.24054 2.44351 -8.67043e-18)
(-2.29289 2.50067 4.35495e-18)
(-2.33761 2.5496 -4.62434e-18)
(-2.37663 2.59237 7.78244e-18)
(-2.41122 2.63035 -1.71951e-21)
(-2.44229 2.66451 -3.51448e-18)
(-2.47049 2.69555 2.51199e-18)
(-2.4963 2.72397 -3.60395e-18)
(-2.52008 2.7502 3.83379e-19)
(-2.54214 2.77453 0)
(-2.56269 2.79722 3.53588e-19)
(-2.58192 2.81847 -6.80876e-19)
(-2.6 2.83845 -6.56476e-19)
(-2.61703 2.85729 -2.85094e-18)
(-2.63314 2.87511 2.49752e-21)
(-2.6484 2.89201 2.37321e-18)
(-2.6629 2.90806 0)
(-2.6767 2.92335 2.22746e-18)
(-2.68985 2.93793 -2.16474e-18)
(-2.70241 2.95185 2.10057e-18)
(-2.71442 2.96517 -2.55587e-18)
(-2.72592 2.97793 -4.97086e-19)
(-2.73694 2.99015 0)
(-2.74751 3.00188 -4.71572e-19)
(-2.75765 3.01315 -4.59649e-19)
(-2.7674 3.02397 1.79193e-18)
(-2.77677 3.03438 -1.31375e-18)
(-2.78578 3.04439 0)
(-2.79444 3.05403 0)
(-2.80278 3.0633 4.07483e-19)
(-2.81081 3.07223 1.98995e-18)
(-2.81854 3.08082 -1.16946e-18)
(-2.82598 3.0891 0)
(-2.83314 3.09707 -1.48838e-18)
(-2.84004 3.10474 2.79382e-21)
(-2.84668 3.11213 2.14099e-18)
(-2.85306 3.11924 2.09271e-18)
(-2.8592 3.12607 -1.36813e-18)
(-2.86511 3.13265 6.69011e-19)
(-2.87078 3.13897 0)
(-2.87623 3.14503 -6.41505e-19)
(-2.88145 3.15086 1.88339e-18)
(-2.88647 3.15644 -2.4628e-18)
(-2.89127 3.16179 6.02709e-19)
(-2.89586 3.16691 0)
(-2.90024 3.1718 0)
(-2.90443 3.17647 1.69761e-18)
(-2.90842 3.18091 -5.56221e-19)
(-2.91221 3.18514 0)
(-2.91581 3.18916 5.32112e-19)
(-2.91921 3.19296 5.21129e-19)
(-2.92243 3.19655 -5.10317e-19)
(-2.92546 3.19994 -4.99669e-19)
(-2.9283 3.20311 -4.8921e-19)
(-2.93096 3.20608 9.56328e-19)
(-2.93343 3.20885 -1.50652e-21)
(-2.93572 3.21141 9.16086e-19)
(-2.93783 3.21377 -8.99475e-19)
(-2.93976 3.21593 -8.78574e-19)
(-2.9415 3.21789 -1.71738e-18)
(-2.94306 3.21964 8.40599e-19)
(-2.94444 3.2212 -1.64561e-18)
(-2.94564 3.22255 1.60744e-18)
(-2.94666 3.22371 0)
(-2.9475 3.22466 7.67836e-19)
(-2.94815 3.22541 1.49892e-18)
(-2.94862 3.22596 -7.36e-19)
(-2.94891 3.22631 -7.17339e-19)
(-2.94902 3.22645 6.98914e-19)
(-2.94894 3.22639 -1.55383e-21)
(-2.94868 3.22613 -1.9975e-18)
(-2.94823 3.22566 1.30084e-18)
(-2.9476 3.22498 0)
(-2.94677 3.2241 -6.19486e-19)
(-2.94576 3.22301 -1.80878e-18)
(-2.94456 3.2217 0)
(-2.94317 3.22019 0)
(-2.94158 3.21846 1.11441e-18)
(-2.9398 3.21652 0)
(-2.93782 3.21437 1.0564e-18)
(-2.93565 3.21199 0)
(-2.93328 3.2094 -2.18513e-23)
(-2.93071 3.20658 0)
(-2.92794 3.20354 0)
(-2.92496 3.20028 9.1934e-19)
(-2.92178 3.19679 1.78666e-18)
(-2.91839 3.19307 1.73555e-18)
(-1.48657 1.63049 -7.50917e-19)
(-1.83272 2.0192 7.43075e-19)
(-1.98769 2.18624 0)
(-2.09192 2.2987 0)
(-2.16998 2.38421 1.22548e-18)
(-2.23278 2.45228 -5.74612e-19)
(-2.28498 2.50898 4.32316e-18)
(-2.32965 2.55753 -3.56842e-18)
(-2.36866 2.59999 -4.82107e-19)
(-2.40328 2.63772 3.65537e-18)
(-2.43439 2.67168 -3.91222e-18)
(-2.46263 2.70255 8.28531e-19)
(-2.48847 2.73086 3.95769e-19)
(-2.5123 2.75698 -3.78913e-19)
(-2.53438 2.78124 0)
(-2.55496 2.80388 -3.49306e-19)
(-2.57422 2.82509 3.36237e-19)
(-2.59231 2.84504 3.24149e-19)
(-2.60937 2.86386 0)
(-2.62549 2.88166 0)
(-2.64076 2.89855 0)
(-2.65527 2.9146 -5.67227e-19)
(-2.66907 2.92989 0)
(-2.68223 2.94447 -5.34035e-19)
(-2.6948 2.9584 0)
(-2.70681 2.97173 5.04538e-19)
(-2.71831 2.9845 4.91014e-19)
(-2.72933 2.99673 0)
(-2.73989 3.00848 -1.86213e-18)
(-2.75004 3.01976 4.56843e-19)
(-2.75978 3.03059 1.33047e-18)
(-2.76915 3.04101 -4.32402e-19)
(-2.77815 3.05104 1.68755e-18)
(-2.78682 3.06069 -3.71194e-18)
(-2.79515 3.06997 1.21045e-18)
(-2.80318 3.07892 -3.93987e-19)
(-2.8109 3.08753 -7.70571e-19)
(-2.81834 3.09582 0)
(-2.8255 3.1038 0)
(-2.83239 3.11149 1.80298e-18)
(-2.83902 3.11889 -1.41439e-18)
(-2.8454 3.12601 -4.19446e-23)
(-2.85154 3.13286 -6.77369e-19)
(-2.85744 3.13945 -1.32676e-18)
(-2.86311 3.14578 -6.48374e-19)
(-2.86855 3.15187 1.91103e-18)
(-2.87377 3.1577 -1.24577e-18)
(-2.87878 3.1633 1.8344e-18)
(-2.88357 3.16866 -1.79449e-18)
(-2.88816 3.17379 1.17463e-18)
(-2.89254 3.17869 -1.1481e-18)
(-2.89673 3.18337 1.12789e-18)
(-2.90071 3.18783 -5.51883e-19)
(-2.9045 3.19207 0)
(-2.90809 3.19609 -5.29831e-19)
(-2.91149 3.1999 0)
(-2.91471 3.20351 0)
(-2.91773 3.2069 4.98177e-19)
(-2.92057 3.21008 1.51328e-21)
(-2.92323 3.21306 9.57339e-19)
(-2.9257 3.21584 -9.36025e-19)
(-2.92799 3.2184 9.1653e-19)
(-2.93009 3.22077 0)
(-2.93201 3.22294 0)
(-2.93375 3.2249 1.71786e-18)
(-2.93532 3.22666 -8.41286e-19)
(-2.93669 3.22822 1.64777e-18)
(-2.93789 3.22958 -1.56245e-21)
(-2.93891 3.23074 -7.8903e-19)
(-2.93975 3.23169 0)
(-2.9404 3.23245 -1.504e-18)
(-2.94088 3.233 2.94305e-18)
(-2.94117 3.23335 -3.1262e-21)
(-2.94127 3.23349 -3.12952e-21)
(-2.9412 3.23343 -1.55704e-21)
(-2.94094 3.23317 6.68317e-19)
(-2.94049 3.2327 -1.30946e-18)
(-2.93986 3.23203 6.38222e-19)
(-2.93904 3.23114 1.24387e-18)
(-2.93803 3.23005 -6.08978e-19)
(-2.93684 3.22874 5.90753e-19)
(-2.93545 3.22723 -1.73388e-18)
(-2.93387 3.2255 1.68674e-18)
(-2.93209 3.22356 -3.12439e-21)
(-2.93012 3.22139 -1.06814e-18)
(-2.92796 3.21902 5.21598e-19)
(-2.92559 3.21642 -2.02491e-18)
(-2.92303 3.2136 0)
(-2.92026 3.21055 0)
(-2.91729 3.20728 -1.86435e-18)
(-2.91412 3.20379 -1.35791e-18)
(-2.91074 3.20006 -8.77791e-19)
(-1.48411 1.63807 1.50143e-18)
(-1.83008 2.02665 1.18655e-17)
(-1.98496 2.1933 -2.22379e-17)
(-2.08771 2.30664 1.04192e-17)
(-2.16518 2.39202 -6.08883e-19)
(-2.22737 2.46004 0)
(-2.27905 2.51668 0)
(-2.32331 2.56514 0)
(-2.36199 2.6075 -7.1567e-18)
(-2.39636 2.64513 7.23843e-18)
(-2.42727 2.67899 4.29662e-19)
(-2.45536 2.70977 1.06105e-22)
(-2.48109 2.738 6.25271e-18)
(-2.50482 2.76406 -1.23468e-17)
(-2.52684 2.78826 5.74301e-18)
(-2.54737 2.81085 5.16808e-18)
(-2.56659 2.83202 -4.97834e-18)
(-2.58465 2.85193 0)
(-2.60168 2.87072 0)
(-2.61778 2.88851 0)
(-2.63303 2.90538 0)
(-2.64753 2.92143 1.11875e-18)
(-2.66132 2.93671 0)
(-2.67447 2.95129 5.26637e-19)
(-2.68702 2.96522 0)
(-2.69903 2.97855 -4.97576e-19)
(-2.71052 2.99132 0)
(-2.72153 3.00356 1.88484e-18)
(-2.73209 3.01531 -1.83926e-18)
(-2.74222 3.0266 4.48023e-19)
(-2.75196 3.03745 -4.37089e-19)
(-2.76132 3.04788 2.13195e-18)
(-2.77032 3.05791 -2.62661e-21)
(-2.77898 3.06757 -1.22247e-18)
(-2.78731 3.07687 1.19221e-18)
(-2.79533 3.08582 -1.16827e-18)
(-2.80304 3.09445 3.80461e-19)
(-2.81047 3.10275 0)
(-2.81763 3.11075 0)
(-2.82451 3.11845 -2.13801e-18)
(-2.83114 3.12586 2.74194e-21)
(-2.83751 3.133 2.72315e-21)
(-2.84364 3.13986 2.01051e-18)
(-2.84954 3.14646 -1.3107e-18)
(-2.8552 3.15281 6.44163e-19)
(-2.86064 3.1589 0)
(-2.86585 3.16475 0)
(-2.87085 3.17035 0)
(-2.87564 3.17573 1.43635e-21)
(-2.88022 3.18087 5.82534e-19)
(-2.8846 3.18578 0)
(-2.88878 3.19047 5.58268e-19)
(-2.89276 3.19494 -1.09296e-18)
(-2.89654 3.19919 1.61051e-18)
(-2.90013 3.20322 1.04991e-18)
(-2.90353 3.20704 -1.03192e-18)
(-2.90674 3.21065 -1.00837e-18)
(-2.90976 3.21405 4.963e-19)
(-2.9126 3.21725 -4.84849e-19)
(-2.91525 3.22023 4.75027e-19)
(-2.91772 3.22301 9.30758e-19)
(-2.92 3.22559 -9.11718e-19)
(-2.9221 3.22796 0)
(-2.92402 3.23013 0)
(-2.92576 3.2321 -2.09296e-23)
(-2.92732 3.23387 -1.6748e-18)
(-2.9287 3.23543 8.21929e-19)
(-2.9299 3.23679 -8.01301e-19)
(-2.93092 3.23796 2.35658e-18)
(-2.93175 3.23891 -1.55816e-21)
(-2.93241 3.23967 7.51546e-19)
(-2.93288 3.24023 -7.34892e-19)
(-2.93317 3.24058 0)
(-2.93328 3.24072 0)
(-2.93321 3.24067 0)
(-2.93295 3.2404 6.68689e-19)
(-2.93251 3.23993 -6.56161e-19)
(-2.93188 3.23926 -6.39161e-19)
(-2.93106 3.23837 0)
(-2.93006 3.23728 0)
(-2.92886 3.23597 -1.78038e-18)
(-2.92748 3.23445 2.89821e-18)
(-2.9259 3.23272 -2.10191e-23)
(-2.92413 3.23077 0)
(-2.92217 3.22861 -5.34984e-19)
(-2.92001 3.22623 3.13071e-21)
(-2.91765 3.22362 5.10626e-19)
(-2.9151 3.2208 -9.91187e-19)
(-2.91234 3.21775 -9.64706e-19)
(-2.90938 3.21447 1.40643e-18)
(-2.90622 3.21097 -3.10164e-21)
(-2.90285 3.20724 4.42333e-19)
(-1.47953 1.64301 1.05087e-17)
(-1.82577 2.0317 1.10941e-17)
(-1.98017 2.19917 -1.17646e-17)
(-2.08227 2.31315 6.4732e-19)
(-2.15962 2.39856 0)
(-2.22151 2.46678 0)
(-2.27293 2.52356 0)
(-2.31695 2.57211 8.00072e-18)
(-2.35542 2.61454 -1.51127e-17)
(-2.38959 2.65221 1.43117e-17)
(-2.42032 2.6861 -6.79842e-18)
(-2.44826 2.71689 6.06426e-18)
(-2.47385 2.74512 -6.17946e-18)
(-2.49747 2.77118 3.69309e-19)
(-2.51939 2.79537 6.01685e-18)
(-2.53983 2.81795 -5.10375e-18)
(-2.55898 2.83911 5.23306e-18)
(-2.57697 2.85901 -3.20254e-19)
(-2.59395 2.8778 -4.87195e-18)
(-2.61 2.89557 -2.94135e-19)
(-2.62522 2.91244 0)
(-2.63968 2.92848 -1.10289e-18)
(-2.65344 2.94376 0)
(-2.66657 2.95833 0)
(-2.6791 2.97227 -4.53711e-18)
(-2.69108 2.9856 3.9265e-18)
(-2.70255 2.99837 0)
(-2.71355 3.01062 0)
(-2.72409 3.02238 0)
(-2.73421 3.03367 -8.83596e-19)
(-2.74394 3.04452 4.31069e-19)
(-2.75329 3.05496 0)
(-2.76227 3.06501 0)
(-2.77092 3.07468 0)
(-2.77924 3.08398 -2.35272e-18)
(-2.78725 3.09295 3.45752e-18)
(-2.79496 3.10158 0)
(-2.80238 3.1099 0)
(-2.80952 3.11791 0)
(-2.8164 3.12562 3.16663e-18)
(-2.82301 3.13304 -5.41487e-21)
(-2.82938 3.14019 -6.75581e-18)
(-2.8355 3.14706 4.63301e-18)
(-2.84139 3.15368 -1.94832e-18)
(-2.84704 3.16003 0)
(-2.85247 3.16613 6.22911e-19)
(-2.85768 3.17199 2.4396e-18)
(-2.86268 3.17761 -2.39712e-18)
(-2.86746 3.18299 -5.86843e-19)
(-2.87204 3.18815 2.87388e-18)
(-2.87641 3.19307 -1.13249e-18)
(-2.88058 3.19777 -1.10906e-18)
(-2.88455 3.20225 -1.08604e-18)
(-2.88833 3.20651 -1.45718e-21)
(-2.89192 3.21055 -1.56538e-18)
(-2.89531 3.21438 0)
(-2.89852 3.218 4.99587e-19)
(-2.90153 3.22141 -9.83829e-19)
(-2.90437 3.22461 -1.44289e-18)
(-2.90701 3.2276 4.73379e-19)
(-2.90948 3.23039 9.24924e-19)
(-2.91176 3.23297 1.49913e-21)
(-2.91386 3.23535 3.02621e-21)
(-2.91578 3.23753 8.7148e-19)
(-2.91752 3.2395 -8.52148e-19)
(-2.91907 3.24127 8.34535e-19)
(-2.92045 3.24284 0)
(-2.92165 3.24421 -7.98488e-19)
(-2.92266 3.24537 -7.80019e-19)
(-2.9235 3.24633 1.53732e-21)
(-2.92415 3.24709 -1.49816e-18)
(-2.92463 3.24765 1.46862e-18)
(-2.92492 3.248 0)
(-2.92503 3.24815 -1.55847e-21)
(-2.92496 3.24809 -1.37305e-18)
(-2.9247 3.24783 6.70193e-19)
(-2.92426 3.24736 6.54846e-19)
(-2.92364 3.24668 6.39662e-19)
(-2.92282 3.2458 0)
(-2.92182 3.2447 0)
(-2.92063 3.24339 1.19056e-18)
(-2.91926 3.24187 -2.32339e-18)
(-2.91769 3.24014 -1.13323e-18)
(-2.91592 3.23819 1.10511e-18)
(-2.91397 3.23602 1.61451e-18)
(-2.91181 3.23363 5.23451e-19)
(-2.90946 3.23102 1.02312e-18)
(-2.90691 3.22819 4.96716e-19)
(-2.90417 3.22513 9.67235e-19)
(-2.90121 3.22185 -4.73849e-19)
(-2.89806 3.21834 4.58029e-19)
(-2.8947 3.2146 -3.13332e-21)
(-1.47492 1.64782 1.27463e-17)
(-1.82093 2.03659 -1.18046e-17)
(-1.97453 2.20506 -1.03266e-17)
(-2.07624 2.31935 1.92967e-17)
(-2.15344 2.40489 -9.01108e-18)
(-2.21507 2.47334 9.5428e-18)
(-2.26631 2.53026 -1.68441e-17)
(-2.31018 2.57893 5.10506e-21)
(-2.3485 2.62144 7.47566e-18)
(-2.38254 2.65919 0)
(-2.41316 2.69314 0)
(-2.44098 2.72398 -3.99411e-19)
(-2.46647 2.75225 -3.81108e-19)
(-2.48999 2.77833 3.6448e-19)
(-2.51182 2.80255 3.99777e-23)
(-2.53218 2.82514 -3.35431e-19)
(-2.55126 2.84631 -6.45317e-19)
(-2.56919 2.86622 -2.24635e-23)
(-2.58611 2.88502 0)
(-2.6021 2.9028 2.89904e-19)
(-2.61727 2.91967 4.48562e-18)
(-2.63169 2.93571 -3.80661e-18)
(-2.64541 2.951 0)
(-2.6585 2.96558 4.6018e-18)
(-2.671 2.97952 -3.48196e-18)
(-2.68296 2.99285 -3.86456e-18)
(-2.6944 3.00563 3.76603e-18)
(-2.70537 3.01789 4.58186e-19)
(-2.71589 3.02965 0)
(-2.726 3.04095 4.35496e-19)
(-2.7357 3.05181 0)
(-2.74503 3.06226 0)
(-2.754 3.07231 -3.23948e-18)
(-2.76263 3.08199 2.77482e-18)
(-2.77094 3.09131 -7.7438e-19)
(-2.77893 3.10028 -3.02689e-18)
(-2.78663 3.10893 2.59612e-18)
(-2.79404 3.11725 -3.62607e-19)
(-2.80117 3.12527 -2.83733e-18)
(-2.80804 3.133 2.78373e-18)
(-2.81464 3.14043 -2.7214e-18)
(-2.821 3.14759 3.33873e-18)
(-2.82711 3.15447 -2.61251e-18)
(-2.83299 3.1611 5.43935e-21)
(-2.83864 3.16746 4.39681e-18)
(-2.84406 3.17358 -3.08167e-18)
(-2.84926 3.17945 0)
(-2.85425 3.18507 2.36532e-18)
(-2.85902 3.19047 -2.32507e-18)
(-2.86359 3.19563 0)
(-2.86796 3.20056 -5.58395e-19)
(-2.87212 3.20527 1.09533e-18)
(-2.87609 3.20976 -2.1457e-18)
(-2.87986 3.21403 4.74136e-18)
(-2.88344 3.21808 -1.55293e-18)
(-2.88683 3.22192 -5.0672e-19)
(-2.89003 3.22554 2.48177e-18)
(-2.89304 3.22896 9.68748e-19)
(-2.89587 3.23217 4.71938e-19)
(-2.89852 3.23517 -5.93375e-21)
(-2.90098 3.23796 -5.51175e-18)
(-2.90326 3.24055 -8.94527e-19)
(-2.90535 3.24294 6.01447e-21)
(-2.90727 3.24512 1.73302e-18)
(-2.909 3.2471 -2.53977e-18)
(-2.91056 3.24887 -1.65478e-18)
(-2.91194 3.25045 4.58861e-21)
(-2.91313 3.25182 7.98258e-19)
(-2.91415 3.25298 -7.78643e-19)
(-2.91498 3.25395 1.52921e-18)
(-2.91564 3.25471 0)
(-2.91611 3.25527 -1.4619e-18)
(-2.91641 3.25562 7.17502e-19)
(-2.91652 3.25577 1.56929e-21)
(-2.91645 3.25572 1.37145e-18)
(-2.91619 3.25546 -6.69713e-19)
(-2.91576 3.25499 0)
(-2.91513 3.25431 -1.27954e-18)
(-2.91432 3.25342 0)
(-2.91333 3.25232 -1.22105e-18)
(-2.91214 3.25101 0)
(-2.91077 3.24949 5.83582e-19)
(-2.90921 3.24775 5.69562e-19)
(-2.90745 3.2458 -1.6609e-18)
(-2.9055 3.24362 -5.38939e-19)
(-2.90335 3.24123 -1.57953e-18)
(-2.90101 3.23862 -5.12159e-19)
(-2.89847 3.23578 1.00128e-18)
(-2.89573 3.23272 -4.86132e-19)
(-2.89279 3.22943 9.53076e-19)
(-2.88964 3.22591 -4.60839e-19)
(-2.88629 3.22216 -1.35173e-18)
(-1.47048 1.65276 0)
(-1.81607 2.04173 0)
(-1.96884 2.21109 1.02767e-17)
(-2.07028 2.32557 -5.28487e-21)
(-2.14721 2.41133 -1.01339e-17)
(-2.20857 2.47998 8.34548e-18)
(-2.25962 2.53702 -7.821e-18)
(-2.3033 2.5858 0)
(-2.34147 2.62841 -4.6184e-19)
(-2.37537 2.66624 -7.42296e-18)
(-2.40585 2.70025 6.63286e-18)
(-2.43356 2.73115 7.88493e-19)
(-2.45895 2.75946 3.76011e-19)
(-2.48237 2.78558 -6.4688e-18)
(-2.50411 2.80983 5.16944e-18)
(-2.52439 2.83245 3.3068e-19)
(-2.54339 2.85364 3.18043e-19)
(-2.56126 2.87358 5.51293e-18)
(-2.57811 2.89239 -4.88245e-21)
(-2.59405 2.91019 -9.14104e-18)
(-2.60917 2.92707 4.42433e-18)
(-2.62353 2.94313 0)
(-2.63721 2.95842 -4.15108e-18)
(-2.65026 2.97301 4.9033e-21)
(-2.66272 2.98696 3.91991e-18)
(-2.67464 3.00031 4.76211e-19)
(-2.68605 3.01309 3.70533e-18)
(-2.69699 3.02536 -8.12559e-18)
(-2.70749 3.03713 7.0398e-18)
(-2.71756 3.04844 -4.98291e-21)
(-2.72724 3.05931 -3.77141e-18)
(-2.73655 3.06977 0)
(-2.7455 3.07983 0)
(-2.75411 3.08952 3.90418e-19)
(-2.7624 3.09885 3.81749e-19)
(-2.77038 3.10783 -7.46834e-19)
(-2.77806 3.11649 9.83432e-24)
(-2.78545 3.12482 3.5769e-19)
(-2.79257 3.13285 0)
(-2.79942 3.14058 -3.08469e-18)
(-2.80602 3.14803 2.01907e-18)
(-2.81236 3.1552 -2.63192e-18)
(-2.81847 3.16209 3.23043e-18)
(-2.82433 3.16873 2.52867e-18)
(-2.82997 3.1751 -2.48458e-18)
(-2.83538 3.18123 0)
(-2.84057 3.18711 0)
(-2.84555 3.19275 0)
(-2.85032 3.19815 0)
(-2.85488 3.20332 -5.63161e-19)
(-2.85924 3.20826 -1.65463e-18)
(-2.8634 3.21298 1.62885e-18)
(-2.86736 3.21748 0)
(-2.87112 3.22175 -5.21691e-19)
(-2.8747 3.22581 -2.04441e-18)
(-2.87808 3.22966 2.51348e-18)
(-2.88128 3.2333 4.92577e-19)
(-2.88428 3.23672 -1.23627e-23)
(-2.88711 3.23993 4.73963e-19)
(-2.88975 3.24294 0)
(-2.8922 3.24574 9.11844e-19)
(-2.89448 3.24834 0)
(-2.89657 3.25073 0)
(-2.89849 3.25292 -2.57565e-18)
(-2.90022 3.2549 4.21295e-18)
(-2.90177 3.25668 -8.2885e-19)
(-2.90315 3.25826 8.09302e-19)
(-2.90434 3.25963 0)
(-2.90536 3.2608 7.76791e-19)
(-2.90619 3.26177 7.57749e-19)
(-2.90685 3.26254 -2.98022e-18)
(-2.90733 3.2631 1.462e-18)
(-2.90762 3.26345 0)
(-2.90773 3.2636 0)
(-2.90766 3.26355 6.83693e-19)
(-2.90741 3.26329 0)
(-2.90698 3.26282 6.5403e-19)
(-2.90636 3.26214 -6.363e-19)
(-2.90555 3.26125 1.25321e-18)
(-2.90456 3.26015 -6.09179e-19)
(-2.90338 3.25884 1.79162e-18)
(-2.90201 3.25731 0)
(-2.90045 3.25557 -5.67412e-19)
(-2.8987 3.25361 5.56979e-19)
(-2.89676 3.25143 0)
(-2.89462 3.24903 -5.30282e-19)
(-2.89229 3.24641 1.54525e-18)
(-2.88975 3.24357 0)
(-2.88702 3.2405 0)
(-2.88409 3.23721 -1.43051e-18)
(-2.88095 3.23368 2.32639e-18)
(-2.87761 3.22992 9.0549e-19)
(-1.4659 1.65759 0)
(-1.81097 2.04694 -7.33406e-19)
(-1.96294 2.21711 6.81701e-19)
(-2.06417 2.33176 6.34793e-19)
(-2.14081 2.41778 8.8651e-18)
(-2.20193 2.48662 -8.82584e-18)
(-2.25279 2.5438 1.081e-22)
(-2.29629 2.59271 -7.74832e-18)
(-2.33431 2.63542 7.76168e-18)
(-2.36806 2.67334 -6.90073e-18)
(-2.39842 2.70742 1.30918e-17)
(-2.42601 2.73839 -3.94081e-19)
(-2.45128 2.76676 -5.01661e-21)
(-2.47461 2.79293 -5.675e-18)
(-2.49626 2.81722 0)
(-2.51645 2.83988 0)
(-2.53537 2.86111 5.01229e-18)
(-2.55316 2.88107 -9.96251e-18)
(-2.56995 2.8999 4.66238e-18)
(-2.58582 2.91773 -4.49964e-18)
(-2.60088 2.93463 4.35772e-18)
(-2.61519 2.95071 0)
(-2.62882 2.96602 -4.08813e-18)
(-2.64182 2.98063 2.9804e-18)
(-2.65424 2.99459 3.85554e-18)
(-2.66612 3.00795 -4.22325e-18)
(-2.67749 3.02075 0)
(-2.6884 3.03303 4.44605e-19)
(-2.69886 3.04481 0)
(-2.70891 3.05613 0)
(-2.71856 3.06702 4.12535e-19)
(-2.72784 3.07748 -3.22025e-18)
(-2.73677 3.08756 3.15117e-18)
(-2.74536 3.09726 -2.69056e-18)
(-2.75362 3.1066 3.01236e-18)
(-2.76158 3.11559 7.36154e-19)
(-2.76924 3.12426 -2.51907e-18)
(-2.77662 3.1326 5.29017e-18)
(-2.78372 3.14064 -2.76571e-18)
(-2.79056 3.14839 3.38361e-19)
(-2.79714 3.15584 1.3262e-18)
(-2.80347 3.16302 -2.59703e-18)
(-2.80956 3.16993 1.91401e-18)
(-2.81541 3.17657 0)
(-2.82103 3.18296 1.2253e-18)
(-2.82644 3.18909 0)
(-2.83162 3.19498 1.76569e-18)
(-2.83659 3.20063 -5.83735e-19)
(-2.84134 3.20604 -2.27237e-18)
(-2.8459 3.21122 5.56772e-19)
(-2.85025 3.21618 0)
(-2.8544 3.2209 0)
(-2.85835 3.22541 0)
(-2.86211 3.22969 5.16364e-19)
(-2.86567 3.23376 -2.0241e-18)
(-2.86905 3.23762 3.97829e-18)
(-2.87224 3.24126 -4.39199e-18)
(-2.87524 3.24469 -4.73096e-19)
(-2.87806 3.24791 9.42636e-19)
(-2.8807 3.25093 -1.84113e-18)
(-2.88315 3.25373 5.86817e-21)
(-2.88542 3.25633 1.77767e-18)
(-2.88751 3.25873 8.70383e-19)
(-2.88942 3.26092 8.53652e-19)
(-2.89116 3.26291 0)
(-2.89271 3.2647 2.45931e-18)
(-2.89408 3.26628 -6.0429e-21)
(-2.89527 3.26766 -1.58044e-18)
(-2.89629 3.26883 -7.72959e-19)
(-2.89712 3.2698 0)
(-2.89778 3.27057 0)
(-2.89825 3.27113 -7.26733e-19)
(-2.89855 3.27149 0)
(-2.89866 3.27164 -6.96761e-19)
(-2.8986 3.27158 -2.04295e-18)
(-2.89835 3.27132 6.73672e-19)
(-2.89792 3.27085 -6.46747e-19)
(-2.8973 3.27017 1.28058e-18)
(-2.8965 3.26928 -6.24595e-19)
(-2.89551 3.26818 1.22127e-18)
(-2.89434 3.26686 -1.19363e-18)
(-2.89297 3.26534 0)
(-2.89142 3.26359 0)
(-2.88968 3.26163 1.11255e-18)
(-2.88774 3.25945 0)
(-2.88561 3.25704 1.06008e-18)
(-2.88328 3.25442 -2.0686e-18)
(-2.88076 3.25157 0)
(-2.87804 3.24849 9.8371e-19)
(-2.87511 3.24519 0)
(-2.87199 3.24166 -9.34455e-19)
(-2.86866 3.23789 0)
(-1.46112 1.66233 1.27107e-17)
(-1.80553 2.0522 1.31542e-17)
(-1.95674 2.2231 -2.17002e-17)
(-2.05776 2.33796 5.20158e-21)
(-2.13412 2.42425 1.05552e-17)
(-2.19502 2.49327 -9.28297e-18)
(-2.24569 2.5506 -5.05216e-19)
(-2.28904 2.59964 7.6661e-18)
(-2.3269 2.64247 7.66357e-18)
(-2.36053 2.68048 -1.32069e-17)
(-2.39077 2.71466 4.08885e-19)
(-2.41824 2.7457 5.7594e-18)
(-2.44341 2.77414 0)
(-2.46664 2.80037 3.49475e-19)
(-2.4882 2.82471 3.34695e-19)
(-2.50831 2.84742 0)
(-2.52715 2.86869 4.93763e-18)
(-2.54487 2.88869 -4.8407e-21)
(-2.56158 2.90756 -4.30476e-18)
(-2.57739 2.92542 2.77086e-19)
(-2.59239 2.94235 0)
(-2.60664 2.95845 -3.63176e-18)
(-2.62022 2.97379 3.52621e-18)
(-2.63317 2.98842 -2.00333e-23)
(-2.64554 3.0024 -3.79573e-18)
(-2.65737 3.01578 4.15781e-18)
(-2.66871 3.0286 0)
(-2.67958 3.04089 0)
(-2.69 3.05269 -2.98449e-18)
(-2.70002 3.06403 4.8611e-21)
(-2.70964 3.07492 3.25241e-18)
(-2.71889 3.08541 0)
(-2.72779 3.09549 -3.09883e-18)
(-2.73635 3.10521 2.65532e-18)
(-2.74459 3.11456 -2.59212e-18)
(-2.75253 3.12356 2.5412e-18)
(-2.76017 3.13224 -3.54996e-19)
(-2.76752 3.1406 -2.43071e-18)
(-2.77461 3.14865 2.72639e-18)
(-2.78142 3.1564 0)
(-2.78799 3.16387 2.61303e-18)
(-2.7943 3.17106 -2.56668e-18)
(-2.80038 3.17798 0)
(-2.80621 3.18463 0)
(-2.81183 3.19103 -3.02062e-18)
(-2.81721 3.19717 1.78224e-18)
(-2.82238 3.20307 2.90753e-18)
(-2.82734 3.20873 -3.99809e-18)
(-2.83209 3.21415 2.24486e-18)
(-2.83663 3.21934 0)
(-2.84097 3.2243 0)
(-2.84511 3.22904 2.64766e-18)
(-2.84906 3.23355 -2.08418e-18)
(-2.85281 3.23785 -5.10804e-19)
(-2.85637 3.24192 0)
(-2.85974 3.24579 -2.45838e-18)
(-2.86292 3.24944 5.68266e-21)
(-2.86592 3.25287 1.42577e-18)
(-2.86873 3.2561 2.79043e-18)
(-2.87136 3.25912 -2.28753e-18)
(-2.87381 3.26194 8.96858e-19)
(-2.87608 3.26455 0)
(-2.87816 3.26695 -1.74847e-23)
(-2.88007 3.26915 0)
(-2.8818 3.27114 8.31162e-19)
(-2.88335 3.27293 8.12262e-19)
(-2.88472 3.27451 -1.60209e-18)
(-2.88591 3.27589 7.84005e-19)
(-2.88693 3.27707 7.68646e-19)
(-2.88776 3.27804 7.53458e-19)
(-2.88842 3.27881 -1.47382e-18)
(-2.88889 3.27938 2.17381e-18)
(-2.88919 3.27974 0)
(-2.88931 3.27989 6.94325e-19)
(-2.88924 3.27983 -6.7991e-19)
(-2.88899 3.27957 -1.33132e-18)
(-2.88856 3.2791 -6.51545e-19)
(-2.88795 3.27842 0)
(-2.88715 3.27753 6.23768e-19)
(-2.88617 3.27642 0)
(-2.885 3.27511 1.19309e-18)
(-2.88364 3.27357 0)
(-2.8821 3.27182 0)
(-2.88036 3.26986 -1.11043e-18)
(-2.87843 3.26767 3.18055e-21)
(-2.87631 3.26526 1.06203e-18)
(-2.87399 3.26263 1.5471e-23)
(-2.87147 3.25978 -1.01166e-18)
(-2.86876 3.25669 -9.86941e-19)
(-2.86585 3.25338 -1.92181e-18)
(-2.86273 3.24984 9.4157e-19)
(-2.85942 3.24607 0)
(-1.45619 1.66706 -1.26923e-17)
(-1.79982 2.05757 1.09285e-17)
(-1.9503 2.22914 0)
(-2.05109 2.34424 1.00112e-17)
(-2.12714 2.43081 -1.04643e-17)
(-2.18784 2.5 -6.76282e-23)
(-2.23833 2.5575 7.57329e-18)
(-2.28151 2.60667 -5.21653e-21)
(-2.31924 2.64961 -8.01987e-18)
(-2.35274 2.68773 0)
(-2.38286 2.722 -3.98335e-19)
(-2.41022 2.75312 -6.0533e-18)
(-2.4353 2.78163 5.77204e-18)
(-2.45843 2.80793 0)
(-2.4799 2.83233 -3.29715e-19)
(-2.49993 2.85509 -3.16343e-19)
(-2.51869 2.87641 0)
(-2.53634 2.89646 -4.38929e-18)
(-2.55298 2.91537 8.75371e-18)
(-2.56873 2.93326 -9.00077e-18)
(-2.58367 2.95023 8.44206e-18)
(-2.59786 2.96636 -5.15721e-19)
(-2.61138 2.98173 -3.47053e-18)
(-2.62428 2.99638 4.80894e-19)
(-2.6366 3.01039 0)
(-2.64839 3.02379 -4.54398e-19)
(-2.65968 3.03663 0)
(-2.67051 3.04895 3.87518e-18)
(-2.6809 3.06077 -3.78234e-18)
(-2.69087 3.07212 3.27522e-18)
(-2.70046 3.08303 -6.39865e-18)
(-2.70968 3.09353 3.51774e-18)
(-2.71855 3.10364 0)
(-2.72708 3.11336 2.98302e-18)
(-2.7353 3.12273 -6.57058e-18)
(-2.74321 3.13175 2.86017e-18)
(-2.75082 3.14044 1.67537e-24)
(-2.75816 3.14881 0)
(-2.76522 3.15687 -3.01706e-18)
(-2.77202 3.16464 5.03806e-21)
(-2.77856 3.17212 1.93624e-18)
(-2.78486 3.17932 0)
(-2.79091 3.18625 -2.47666e-18)
(-2.79674 3.19291 3.04249e-18)
(-2.80233 3.19932 0)
(-2.80771 3.20547 1.02536e-23)
(-2.81286 3.21138 -2.29515e-18)
(-2.81781 3.21705 3.94689e-18)
(-2.82254 3.22248 -2.77013e-18)
(-2.82707 3.22768 0)
(-2.8314 3.23265 5.335e-19)
(-2.83553 3.2374 -5.23838e-19)
(-2.83947 3.24192 0)
(-2.84321 3.24622 -2.01749e-18)
(-2.84676 3.25031 1.98656e-18)
(-2.85013 3.25418 4.87001e-19)
(-2.8533 3.25783 0)
(-2.85629 3.26128 9.39082e-19)
(-2.8591 3.26452 -4.61027e-19)
(-2.86173 3.26754 8.83625e-24)
(-2.86417 3.27036 8.85835e-19)
(-2.86643 3.27298 -1.74775e-18)
(-2.86851 3.27538 -8.56354e-19)
(-2.87042 3.27759 -8.40464e-19)
(-2.87214 3.27958 -8.24803e-19)
(-2.87369 3.28138 0)
(-2.87506 3.28297 7.93999e-19)
(-2.87625 3.28435 -7.78884e-19)
(-2.87726 3.28553 -1.52783e-18)
(-2.8781 3.28651 -7.49124e-19)
(-2.87875 3.28728 -1.4659e-18)
(-2.87923 3.28784 2.163e-18)
(-2.87953 3.2882 -1.40821e-18)
(-2.87964 3.28836 6.94522e-19)
(-2.87958 3.2883 2.02907e-18)
(-2.87934 3.28804 -6.66559e-19)
(-2.87891 3.28757 6.49689e-19)
(-2.8783 3.28689 -1.26894e-18)
(-2.87751 3.28599 1.24818e-18)
(-2.87653 3.28489 0)
(-2.87536 3.28357 -2.38358e-18)
(-2.87401 3.28203 -1.16555e-18)
(-2.87247 3.28028 1.13959e-18)
(-2.87074 3.2783 -2.2278e-18)
(-2.86882 3.27611 1.08848e-18)
(-2.8667 3.2737 -2.12346e-18)
(-2.86439 3.27106 2.08007e-18)
(-2.86189 3.2682 1.43415e-23)
(-2.85919 3.26511 9.86314e-19)
(-2.85628 3.26179 -3.18697e-21)
(-2.85318 3.25824 -9.41722e-19)
(-2.84987 3.25446 9.1507e-19)
(-1.45114 1.67184 -1.19321e-17)
(-1.79386 2.06308 -1.16104e-17)
(-1.94364 2.23528 4.88928e-21)
(-2.04416 2.35064 1.98781e-17)
(-2.11993 2.43748 -8.64342e-18)
(-2.18041 2.50686 9.09976e-18)
(-2.23071 2.56451 -7.49499e-18)
(-2.27374 2.61382 0)
(-2.31132 2.65688 4.39779e-19)
(-2.34469 2.69511 6.22232e-18)
(-2.37469 2.72947 -5.89601e-18)
(-2.40195 2.76067 7.46276e-19)
(-2.42693 2.78926 3.55385e-19)
(-2.44997 2.81563 -5.08732e-18)
(-2.47135 2.8401 5.52324e-18)
(-2.4913 2.86291 5.2928e-18)
(-2.50999 2.88429 -4.79184e-18)
(-2.52756 2.90438 4.60869e-18)
(-2.54414 2.92334 -4.44897e-18)
(-2.55982 2.94127 -2.68418e-19)
(-2.57469 2.95828 -4.15113e-18)
(-2.58883 2.97445 4.02456e-18)
(-2.6023 2.98984 4.8748e-19)
(-2.61514 3.00453 -4.73153e-19)
(-2.62741 3.01857 0)
(-2.63916 3.032 -3.57418e-18)
(-2.6504 3.04486 3.48359e-18)
(-2.66118 3.0572 -4.239e-19)
(-2.67153 3.06904 0)
(-2.68147 3.08041 3.62599e-18)
(-2.69102 3.09135 -3.54431e-18)
(-2.70021 3.10186 -3.84165e-18)
(-2.70904 3.11198 3.00782e-18)
(-2.71755 3.12173 -2.93633e-18)
(-2.72573 3.13111 3.23666e-18)
(-2.73361 3.14014 0)
(-2.7412 3.14885 3.44359e-19)
(-2.74851 3.15723 3.37288e-19)
(-2.75555 3.16531 -1.98039e-18)
(-2.76233 3.17309 5.1825e-18)
(-2.76885 3.18058 -6.40116e-19)
(-2.77513 3.1878 -4.35985e-18)
(-2.78116 3.19474 2.44629e-18)
(-2.78697 3.20141 1.19625e-18)
(-2.79255 3.20783 -2.35535e-18)
(-2.79791 3.214 5.7731e-19)
(-2.80305 3.21992 2.2642e-18)
(-2.80798 3.2256 -1.11534e-18)
(-2.8127 3.23104 2.7288e-18)
(-2.81722 3.23625 -1.61198e-18)
(-2.82154 3.24123 -8.75e-24)
(-2.82566 3.24598 0)
(-2.82958 3.25051 -2.03001e-18)
(-2.83331 3.25482 2.49842e-18)
(-2.83686 3.25891 0)
(-2.84021 3.26279 0)
(-2.84338 3.26646 1.88921e-18)
(-2.84636 3.26991 -9.3476e-19)
(-2.84916 3.27315 -2.28428e-18)
(-2.85178 3.27619 -1.34156e-18)
(-2.85422 3.27901 1.76323e-18)
(-2.85648 3.28163 -8.64327e-19)
(-2.85856 3.28404 8.45802e-19)
(-2.86046 3.28625 -8.36143e-19)
(-2.86218 3.28825 -1.63307e-18)
(-2.86372 3.29005 1.6088e-18)
(-2.86509 3.29164 -1.57608e-18)
(-2.86628 3.29303 0)
(-2.86729 3.29421 3.03202e-18)
(-2.86812 3.29519 -1.49169e-18)
(-2.86878 3.29597 -1.45714e-18)
(-2.86925 3.29653 7.18992e-19)
(-2.86955 3.29689 0)
(-2.86967 3.29705 6.88154e-19)
(-2.86961 3.29699 0)
(-2.86937 3.29673 6.60857e-19)
(-2.86894 3.29626 6.44308e-19)
(-2.86834 3.29557 -1.27128e-18)
(-2.86755 3.29468 0)
(-2.86658 3.29357 6.07806e-19)
(-2.86542 3.29225 2.37943e-18)
(-2.86407 3.29071 1.16406e-18)
(-2.86254 3.28895 -1.13865e-18)
(-2.86081 3.28697 1.50857e-23)
(-2.8589 3.28478 0)
(-2.85679 3.28236 -1.06389e-18)
(-2.85449 3.27971 -3.18948e-21)
(-2.85199 3.27684 -3.18623e-21)
(-2.8493 3.27375 0)
(-2.84641 3.27042 -9.67817e-19)
(-2.84332 3.26686 1.88573e-18)
(-2.84002 3.26307 -3.21363e-21)
(-1.44593 1.67667 -1.19155e-17)
(-1.78766 2.06873 -1.15672e-17)
(-1.93675 2.24152 2.13254e-17)
(-2.03699 2.35717 -9.86523e-18)
(-2.11246 2.44427 0)
(-2.17272 2.51384 0)
(-2.22283 2.57166 0)
(-2.2657 2.62111 7.39119e-18)
(-2.30314 2.66429 -6.94884e-18)
(-2.33638 2.70262 4.09385e-19)
(-2.36627 2.73708 6.19608e-18)
(-2.39342 2.76837 -3.72643e-19)
(-2.41829 2.79704 -1.15536e-17)
(-2.44124 2.82348 5.01526e-18)
(-2.46254 2.84801 -6.39515e-19)
(-2.48241 2.87089 5.21015e-18)
(-2.50102 2.89232 2.89911e-19)
(-2.51851 2.91247 -4.8233e-18)
(-2.53502 2.93147 0)
(-2.55064 2.94945 4.75067e-18)
(-2.56545 2.9665 -4.08806e-18)
(-2.57953 2.98271 4.94558e-19)
(-2.59294 2.99814 -4.79451e-19)
(-2.60573 3.01286 4.65348e-19)
(-2.61795 3.02693 0)
(-2.62965 3.04039 3.51533e-18)
(-2.64085 3.05328 -3.4263e-18)
(-2.65159 3.06564 4.16952e-19)
(-2.66189 3.07751 4.06493e-19)
(-2.67179 3.08891 -7.93142e-19)
(-2.6813 3.09986 3.482e-18)
(-2.69045 3.1104 -5.67274e-18)
(-2.69925 3.12054 2.95942e-18)
(-2.70772 3.1303 2.52788e-18)
(-2.71588 3.1397 -5.65839e-18)
(-2.72373 3.14876 2.77167e-18)
(-2.73129 3.15748 3.3897e-19)
(-2.73857 3.16588 -3.32055e-19)
(-2.74559 3.17397 2.60074e-18)
(-2.75234 3.18176 -2.23529e-18)
(-2.75884 3.18927 -1.24864e-18)
(-2.76509 3.1965 1.84317e-18)
(-2.77111 3.20345 -6.01956e-19)
(-2.7769 3.21014 2.36029e-18)
(-2.78246 3.21657 -2.32161e-18)
(-2.7878 3.22275 2.84321e-18)
(-2.79293 3.22868 -5.12694e-21)
(-2.79784 3.23437 -5.53917e-19)
(-2.80255 3.23982 -2.15832e-18)
(-2.80705 3.24504 -5.2935e-19)
(-2.81136 3.25003 1.55729e-18)
(-2.81547 3.25479 -2.0459e-18)
(-2.81938 3.25933 -5.01835e-19)
(-2.8231 3.26365 0)
(-2.82663 3.26775 -4.84411e-19)
(-2.82998 3.27164 -1.90104e-18)
(-2.83314 3.27531 2.34084e-18)
(-2.83611 3.27877 2.75383e-18)
(-2.83891 3.28202 -9.05539e-19)
(-2.84152 3.28506 0)
(-2.84395 3.28789 8.71255e-19)
(-2.8462 3.29051 2.5647e-18)
(-2.84828 3.29293 -1.68412e-18)
(-2.85017 3.29514 8.25621e-19)
(-2.85189 3.29715 -1.6187e-18)
(-2.85343 3.29895 5.83339e-21)
(-2.8548 3.30055 3.1296e-18)
(-2.85598 3.30194 0)
(-2.85699 3.30312 -1.12362e-23)
(-2.85782 3.30411 1.47533e-18)
(-2.85848 3.30488 -1.45356e-18)
(-2.85896 3.30545 0)
(-2.85926 3.30581 2.09074e-18)
(-2.85938 3.30596 -6.0958e-21)
(-2.85932 3.30591 -1.34523e-18)
(-2.85908 3.30565 6.54766e-19)
(-2.85866 3.30517 -6.47817e-19)
(-2.85806 3.30449 0)
(-2.85727 3.30359 0)
(-2.8563 3.30248 -7.9902e-24)
(-2.85515 3.30115 -1.55042e-23)
(-2.85381 3.29961 1.16179e-18)
(-2.85228 3.29785 -1.13694e-18)
(-2.85056 3.29587 3.18058e-21)
(-2.84866 3.29366 6.35523e-21)
(-2.84656 3.29124 3.19453e-18)
(-2.84427 3.28859 1.03987e-18)
(-2.84178 3.28571 1.01617e-18)