/*--------------------------------*- C++ -*----------------------------------*\
  =========                 |
  \\      /  F ield         | OpenFOAM: The Open Source CFD Toolbox
   \\    /   O peration     | Website:  https://openfoam.org
    \\  /    A nd           | Version:  10
     \\/     M anipulation  |
\*---------------------------------------------------------------------------*/
FoamFile
{
    format      ascii;
    class       volVectorField;
    location    "37000";
    object      Urel;
}
// * * * * * * * * * * * * * * * * * * * * * * * * * * * * * * * * * * * * * //

dimensions      [0 1 -1 0 0 0 0];

internalField   nonuniform List<vector> 
17808
(
(4.16228 -4.5634 -6.71172e-18)
(3.80814 -4.1708 -7.5227e-19)
(3.65006 -3.99689 4.86898e-18)
(3.54057 -3.8805 5.23871e-18)
(3.45813 -3.79043 -1.22963e-18)
(3.39125 -3.7177 -8.67043e-18)
(3.33506 -3.65634 4.35495e-18)
(3.28643 -3.60313 -4.62434e-18)
(3.24344 -3.55601 7.78244e-18)
(3.2048 -3.5136 -1.71951e-21)
(3.16961 -3.47494 -3.51448e-18)
(3.13722 -3.43933 2.51199e-18)
(3.10715 -3.40623 -3.60395e-18)
(3.07903 -3.37526 3.83379e-19)
(3.05256 -3.3461 0)
(3.02751 -3.3185 3.53588e-19)
(3.0037 -3.29224 -6.80876e-19)
(2.98098 -3.26718 -6.56476e-19)
(2.9592 -3.24316 -2.85094e-18)
(2.93828 -3.22007 2.49752e-21)
(2.91811 -3.19781 2.37321e-18)
(2.89862 -3.1763 0)
(2.87975 -3.15546 2.22746e-18)
(2.86142 -3.13522 -2.16474e-18)
(2.8436 -3.11555 2.10057e-18)
(2.82624 -3.09637 -2.55587e-18)
(2.8093 -3.07766 -4.97086e-19)
(2.79274 -3.05938 0)
(2.77653 -3.04148 -4.71572e-19)
(2.76065 -3.02393 -4.59649e-19)
(2.74506 -3.00672 1.79193e-18)
(2.72975 -2.98981 -1.31375e-18)
(2.71469 -2.97319 0)
(2.69987 -2.95682 0)
(2.68527 -2.9407 4.07483e-19)
(2.67086 -2.9248 1.98995e-18)
(2.65665 -2.90911 -1.16946e-18)
(2.64261 -2.89362 0)
(2.62873 -2.8783 -1.48838e-18)
(2.615 -2.86315 2.79382e-21)
(2.6014 -2.84816 2.14099e-18)
(2.58794 -2.83331 2.09271e-18)
(2.5746 -2.8186 -1.36813e-18)
(2.56136 -2.80401 6.69011e-19)
(2.54823 -2.78953 0)
(2.53519 -2.77516 -6.41505e-19)
(2.52224 -2.76089 1.88339e-18)
(2.50937 -2.74671 -2.4628e-18)
(2.49657 -2.73261 6.02709e-19)
(2.48384 -2.71859 0)
(2.47116 -2.70464 0)
(2.45855 -2.69075 1.69761e-18)
(2.44598 -2.67693 -5.56221e-19)
(2.43346 -2.66315 0)
(2.42098 -2.64942 5.32112e-19)
(2.40853 -2.63573 5.21129e-19)
(2.39612 -2.62208 -5.10317e-19)
(2.38372 -2.60845 -4.99669e-19)
(2.37136 -2.59486 -4.8921e-19)
(2.359 -2.58129 9.56328e-19)
(2.34666 -2.56773 -1.50652e-21)
(2.33434 -2.55419 9.16086e-19)
(2.32201 -2.54065 -8.99475e-19)
(2.30969 -2.52713 -8.78574e-19)
(2.29737 -2.5136 -1.71738e-18)
(2.28504 -2.50007 8.40599e-19)
(2.2727 -2.48653 -1.64561e-18)
(2.26035 -2.47298 1.60744e-18)
(2.24799 -2.45942 0)
(2.23561 -2.44584 7.67836e-19)
(2.2232 -2.43224 1.49892e-18)
(2.21077 -2.41862 -7.36e-19)
(2.19832 -2.40497 -7.17339e-19)
(2.18583 -2.39128 6.98914e-19)
(2.17331 -2.37756 -1.55383e-21)
(2.16075 -2.3638 -1.9975e-18)
(2.14815 -2.35 1.30084e-18)
(2.1355 -2.33616 0)
(2.12282 -2.32226 -6.19486e-19)
(2.11008 -2.30832 -1.80878e-18)
(2.09729 -2.29431 0)
(2.08444 -2.28026 0)
(2.07154 -2.26614 1.11441e-18)
(2.05857 -2.25195 0)
(2.04554 -2.2377 1.0564e-18)
(2.03244 -2.22337 0)
(2.01927 -2.20897 -2.18513e-23)
(2.00603 -2.19449 0)
(1.99271 -2.17993 0)
(1.97931 -2.16528 9.1934e-19)
(1.96583 -2.15055 1.78666e-18)
(1.95226 -2.13572 1.73555e-18)
(4.14863 -4.56416 -7.50917e-19)
(3.79898 -4.1716 7.43075e-19)
(3.64043 -4.00063 0)
(3.53257 -3.88418 0)
(3.45081 -3.79461 1.22548e-18)
(3.38424 -3.7224 -5.74612e-19)
(3.32821 -3.66149 4.32316e-18)
(3.27965 -3.60866 -3.56842e-18)
(3.23667 -3.56184 -4.82107e-19)
(3.19801 -3.51968 3.65537e-18)
(3.1628 -3.4812 -3.91222e-18)
(3.13038 -3.44574 8.28531e-19)
(3.10028 -3.41276 3.95769e-19)
(3.07213 -3.38187 -3.78913e-19)
(3.04564 -3.35277 0)
(3.02058 -3.32521 -3.49306e-19)
(2.99676 -3.29899 3.36237e-19)
(2.97402 -3.27394 3.24149e-19)
(2.95225 -3.24993 0)
(2.93132 -3.22684 0)
(2.91116 -3.20458 0)
(2.89167 -3.18306 -5.67227e-19)
(2.8728 -3.16221 0)
(2.85449 -3.14196 -5.34035e-19)
(2.83668 -3.12226 0)
(2.81933 -3.10307 5.04538e-19)
(2.8024 -3.08434 4.91014e-19)
(2.78585 -3.06602 0)
(2.76966 -3.0481 -1.86213e-18)
(2.75379 -3.03053 4.56843e-19)
(2.73822 -3.01329 1.33047e-18)
(2.72293 -2.99636 -4.32402e-19)
(2.70789 -2.9797 1.68755e-18)
(2.69309 -2.96331 -3.71194e-18)
(2.6785 -2.94716 1.21045e-18)
(2.66412 -2.93123 -3.93987e-19)
(2.64993 -2.91551 -7.70571e-19)
(2.63591 -2.89998 0)
(2.62205 -2.88464 0)
(2.60834 -2.86946 1.80298e-18)
(2.59477 -2.85443 -1.41439e-18)
(2.58133 -2.83955 -4.19446e-23)
(2.56801 -2.82481 -6.77369e-19)
(2.5548 -2.81018 -1.32676e-18)
(2.54169 -2.79568 -6.48374e-19)
(2.52868 -2.78128 1.91103e-18)
(2.51575 -2.76697 -1.24577e-18)
(2.5029 -2.75276 1.8344e-18)
(2.49013 -2.73863 -1.79449e-18)
(2.47742 -2.72458 1.17463e-18)
(2.46478 -2.7106 -1.1481e-18)
(2.45219 -2.69668 1.12789e-18)
(2.43965 -2.68282 -5.51883e-19)
(2.42716 -2.66901 0)
(2.4147 -2.65525 -5.29831e-19)
(2.40228 -2.64153 0)
(2.38989 -2.62785 0)
(2.37753 -2.61419 4.98177e-19)
(2.36519 -2.60057 1.51328e-21)
(2.35286 -2.58696 9.57339e-19)
(2.34055 -2.57338 -9.36025e-19)
(2.32825 -2.5598 9.1653e-19)
(2.31596 -2.54624 0)
(2.30367 -2.53268 0)
(2.29137 -2.51912 1.71786e-18)
(2.27908 -2.50556 -8.41286e-19)
(2.26677 -2.49199 1.64777e-18)
(2.25445 -2.47841 -1.56245e-21)
(2.24212 -2.46482 -7.8903e-19)
(2.22976 -2.45121 0)
(2.21739 -2.43758 -1.504e-18)
(2.20499 -2.42392 2.94305e-18)
(2.19257 -2.41024 -3.1262e-21)
(2.18011 -2.39652 -3.12952e-21)
(2.16762 -2.38277 -1.55704e-21)
(2.15509 -2.36898 6.68317e-19)
(2.14252 -2.35515 -1.30946e-18)
(2.12991 -2.34127 6.38222e-19)
(2.11725 -2.32735 1.24387e-18)
(2.10455 -2.31337 -6.08978e-19)
(2.09179 -2.29934 5.90753e-19)
(2.07898 -2.28524 -1.73388e-18)
(2.0661 -2.27109 1.68674e-18)
(2.05317 -2.25687 -3.12439e-21)
(2.04017 -2.24259 -1.06814e-18)
(2.02711 -2.22823 5.21598e-19)
(2.01398 -2.2138 -2.02491e-18)
(2.00077 -2.19929 0)
(1.98748 -2.18469 0)
(1.97412 -2.17001 -1.86435e-18)
(1.96067 -2.15524 -1.35791e-18)
(1.94714 -2.14038 -8.77791e-19)
(4.13581 -4.57046 1.50143e-18)
(3.78633 -4.17802 1.18655e-17)
(3.62789 -4.00744 -2.22379e-17)
(3.52152 -3.89009 1.04192e-17)
(3.44036 -3.80064 -6.08883e-19)
(3.37442 -3.72848 0)
(3.31892 -3.66762 0)
(3.27078 -3.61486 0)
(3.22813 -3.56814 -7.1567e-18)
(3.18974 -3.52606 7.23843e-18)
(3.15473 -3.48768 4.29662e-19)
(3.12248 -3.45229 1.06105e-22)
(3.09251 -3.41938 6.25271e-18)
(3.06446 -3.38855 -1.23468e-17)
(3.03805 -3.3595 5.74301e-18)
(3.01305 -3.33198 5.16808e-18)
(2.98928 -3.30579 -4.97834e-18)
(2.96659 -3.28076 0)
(2.94485 -3.25676 0)
(2.92396 -3.23368 0)
(2.90382 -3.21142 0)
(2.88437 -3.1899 1.11875e-18)
(2.86552 -3.16904 0)
(2.84723 -3.14878 5.26637e-19)
(2.82945 -3.12907 0)
(2.81212 -3.10986 -4.97576e-19)
(2.79521 -3.09111 0)
(2.77869 -3.07278 1.88484e-18)
(2.76252 -3.05483 -1.83926e-18)
(2.74667 -3.03724 4.48023e-19)
(2.73113 -3.01998 -4.37089e-19)
(2.71585 -3.00302 2.13195e-18)
(2.70084 -2.98634 -2.62661e-21)
(2.68606 -2.96992 -1.22247e-18)
(2.6715 -2.95374 1.19221e-18)
(2.65714 -2.93779 -1.16827e-18)
(2.64297 -2.92204 3.80461e-19)
(2.62898 -2.90648 0)
(2.61514 -2.89111 0)
(2.60146 -2.8759 -2.13801e-18)
(2.58791 -2.86085 2.74194e-21)
(2.5745 -2.84594 2.72315e-21)
(2.5612 -2.83116 2.01051e-18)
(2.54802 -2.81651 -1.3107e-18)
(2.53494 -2.80197 6.44163e-19)
(2.52195 -2.78754 0)
(2.50905 -2.7732 0)
(2.49623 -2.75896 0)
(2.48348 -2.7448 1.43635e-21)
(2.47081 -2.73072 5.82534e-19)
(2.45819 -2.71671 0)
(2.44563 -2.70276 5.58268e-19)
(2.43312 -2.68887 -1.09296e-18)
(2.42065 -2.67503 1.61051e-18)
(2.40822 -2.66123 1.04991e-18)
(2.39583 -2.64748 -1.03192e-18)
(2.38347 -2.63377 -1.00837e-18)
(2.37114 -2.62008 4.963e-19)
(2.35883 -2.60642 -4.84849e-19)
(2.34653 -2.59279 4.75027e-19)
(2.33425 -2.57917 9.30758e-19)
(2.32198 -2.56556 -9.11718e-19)
(2.30972 -2.55197 0)
(2.29745 -2.53838 0)
(2.28519 -2.52479 -2.09296e-23)
(2.27292 -2.5112 -1.6748e-18)
(2.26065 -2.4976 8.21929e-19)
(2.24836 -2.48399 -8.01301e-19)
(2.23606 -2.47036 2.35658e-18)
(2.22373 -2.45672 -1.55816e-21)
(2.21139 -2.44306 7.51546e-19)
(2.19903 -2.42937 -7.34892e-19)
(2.18663 -2.41565 0)
(2.17421 -2.4019 0)
(2.16175 -2.38812 0)
(2.14925 -2.3743 6.68689e-19)
(2.13672 -2.36043 -6.56161e-19)
(2.12414 -2.34652 -6.39161e-19)
(2.11152 -2.33257 0)
(2.09884 -2.31856 0)
(2.08612 -2.30449 -1.78038e-18)
(2.07334 -2.29037 2.89821e-18)
(2.0605 -2.27618 -2.10191e-23)
(2.0476 -2.26193 0)
(2.03464 -2.24761 -5.34984e-19)
(2.02161 -2.23322 3.13071e-21)
(2.00851 -2.21876 5.10626e-19)
(1.99534 -2.20421 -9.91187e-19)
(1.98209 -2.18958 -9.64706e-19)
(1.96876 -2.17487 1.40643e-18)
(1.95535 -2.16007 -3.10164e-21)
(1.94185 -2.14517 4.42333e-19)
(4.12461 -4.57978 1.05087e-17)
(3.77488 -4.18721 1.10941e-17)
(3.61693 -4.0158 -1.17646e-17)
(3.51122 -3.8978 6.4732e-19)
(3.43018 -3.80832 0)
(3.36455 -3.73594 0)
(3.30932 -3.67493 0)
(3.26143 -3.62208 8.00072e-18)
(3.21901 -3.57528 -1.51127e-17)
(3.18083 -3.53315 1.43117e-17)
(3.14601 -3.49473 -6.79842e-18)
(3.11392 -3.45932 6.06426e-18)
(3.0841 -3.42639 -6.17946e-18)
(3.05618 -3.39556 3.69309e-19)
(3.02988 -3.3665 6.01685e-18)
(3.00498 -3.33898 -5.10375e-18)
(2.9813 -3.31279 5.23306e-18)
(2.95868 -3.28776 -3.20254e-19)
(2.93701 -3.26376 -4.87195e-18)
(2.91618 -3.24067 -2.94135e-19)
(2.89609 -3.21841 0)
(2.87668 -3.19688 -1.10289e-18)
(2.85788 -3.17601 0)
(2.83963 -3.15574 0)
(2.82189 -3.13601 -4.53711e-18)
(2.80459 -3.11679 3.9265e-18)
(2.78772 -3.09802 0)
(2.77123 -3.07967 0)
(2.75509 -3.06171 0)
(2.73927 -3.04409 -8.83596e-19)
(2.72376 -3.02681 4.31069e-19)
(2.70852 -3.00982 0)
(2.69353 -2.99312 0)
(2.67878 -2.97668 0)
(2.66425 -2.96047 -2.35272e-18)
(2.64992 -2.94449 3.45752e-18)
(2.63577 -2.92871 0)
(2.62181 -2.91313 0)
(2.608 -2.89773 0)
(2.59434 -2.88249 3.16663e-18)
(2.58083 -2.86741 -5.41487e-21)
(2.56744 -2.85247 -6.75581e-18)
(2.55417 -2.83766 4.63301e-18)
(2.54102 -2.82298 -1.94832e-18)
(2.52796 -2.80841 0)
(2.515 -2.79395 6.22911e-19)
(2.50213 -2.77959 2.4396e-18)
(2.48934 -2.76531 -2.39712e-18)
(2.47662 -2.75112 -5.86843e-19)
(2.46397 -2.73701 2.87388e-18)
(2.45138 -2.72296 -1.13249e-18)
(2.43885 -2.70898 -1.10906e-18)
(2.42637 -2.69506 -1.08604e-18)
(2.41393 -2.68119 -1.45718e-21)
(2.40154 -2.66737 -1.56538e-18)
(2.38917 -2.65358 0)
(2.37684 -2.63984 4.99587e-19)
(2.36454 -2.62612 -9.83829e-19)
(2.35226 -2.61243 -1.44289e-18)
(2.33999 -2.59876 4.73379e-19)
(2.32774 -2.58511 9.24924e-19)
(2.3155 -2.57148 1.49913e-21)
(2.30327 -2.55785 3.02621e-21)
(2.29104 -2.54423 8.7148e-19)
(2.27881 -2.5306 -8.52148e-19)
(2.26657 -2.51698 8.34535e-19)
(2.25433 -2.50335 0)
(2.24207 -2.48971 -7.98488e-19)
(2.2298 -2.47605 -7.80019e-19)
(2.21751 -2.46237 1.53732e-21)
(2.20521 -2.44868 -1.49816e-18)
(2.19287 -2.43496 1.46862e-18)
(2.18051 -2.42121 0)
(2.16812 -2.40743 -1.55847e-21)
(2.15569 -2.39361 -1.37305e-18)
(2.14323 -2.37976 6.70193e-19)
(2.13073 -2.36586 6.54846e-19)
(2.11819 -2.35192 6.39662e-19)
(2.1056 -2.33793 0)
(2.09296 -2.32389 0)
(2.08027 -2.30979 1.19056e-18)
(2.06752 -2.29563 -2.32339e-18)
(2.05472 -2.28141 -1.13323e-18)
(2.04186 -2.26713 1.10511e-18)
(2.02893 -2.25277 1.61451e-18)
(2.01594 -2.23835 5.23451e-19)
(2.00287 -2.22385 1.02312e-18)
(1.98974 -2.20927 4.96716e-19)
(1.97652 -2.19461 9.67235e-19)
(1.96323 -2.17986 -4.73849e-19)
(1.94986 -2.16502 4.58029e-19)
(1.9364 -2.15009 -3.13332e-21)
(4.11294 -4.58959 1.27463e-17)
(3.76345 -4.19694 -1.18046e-17)
(3.60631 -4.02452 -1.03266e-17)
(3.50099 -3.90621 1.92967e-17)
(3.42013 -3.81658 -9.01108e-18)
(3.35477 -3.74396 9.5428e-18)
(3.29972 -3.68281 -1.68441e-17)
(3.252 -3.62983 5.10506e-21)
(3.20974 -3.58292 7.47566e-18)
(3.1717 -3.54071 0)
(3.13701 -3.50222 0)
(3.10505 -3.46675 -3.99411e-19)
(3.07534 -3.43378 -3.81108e-19)
(3.04752 -3.4029 3.6448e-19)
(3.02133 -3.37382 3.99777e-23)
(2.99652 -3.34626 -3.35431e-19)
(2.97292 -3.32005 -6.45317e-19)
(2.95039 -3.295 -2.24635e-23)
(2.92879 -3.27098 0)
(2.90802 -3.24788 2.89904e-19)
(2.888 -3.22559 4.48562e-18)
(2.86865 -3.20404 -3.80661e-18)
(2.8499 -3.18315 0)
(2.8317 -3.16287 4.6018e-18)
(2.814 -3.14313 -3.48196e-18)
(2.79676 -3.12388 -3.86456e-18)
(2.77992 -3.1051 3.76603e-18)
(2.76347 -3.08672 4.58186e-19)
(2.74737 -3.06874 0)
(2.73159 -3.0511 4.35496e-19)
(2.71611 -3.03379 0)
(2.7009 -3.01679 0)
(2.68595 -3.00006 -3.23948e-18)
(2.67123 -2.98359 2.77482e-18)
(2.65673 -2.96736 -7.7438e-19)
(2.64243 -2.95135 -3.02689e-18)
(2.62832 -2.93555 2.59612e-18)
(2.61439 -2.91994 -3.62607e-19)
(2.60061 -2.9045 -2.83733e-18)
(2.58699 -2.88924 2.78373e-18)
(2.5735 -2.87413 -2.7214e-18)
(2.56014 -2.85916 3.33873e-18)
(2.5469 -2.84432 -2.61251e-18)
(2.53378 -2.82961 5.43935e-21)
(2.52075 -2.81501 4.39681e-18)
(2.50783 -2.80052 -3.08167e-18)
(2.49498 -2.78613 0)
(2.48222 -2.77182 2.36532e-18)
(2.46954 -2.7576 -2.32507e-18)
(2.45692 -2.74346 0)
(2.44436 -2.72938 -5.58395e-19)
(2.43186 -2.71537 1.09533e-18)
(2.4194 -2.70141 -2.1457e-18)
(2.407 -2.68751 4.74136e-18)
(2.39463 -2.67366 -1.55293e-18)
(2.3823 -2.65984 -5.0672e-19)
(2.37 -2.64606 2.48177e-18)
(2.35773 -2.63231 9.68748e-19)
(2.34548 -2.61859 4.71938e-19)
(2.33325 -2.60489 -5.93375e-21)
(2.32103 -2.59121 -5.51175e-18)
(2.30882 -2.57754 -8.94527e-19)
(2.29662 -2.56388 6.01447e-21)
(2.28442 -2.55023 1.73302e-18)
(2.27222 -2.53657 -2.53977e-18)
(2.26002 -2.52291 -1.65478e-18)
(2.24781 -2.50925 4.58861e-21)
(2.23559 -2.49557 7.98258e-19)
(2.22335 -2.48189 -7.78643e-19)
(2.2111 -2.46818 1.52921e-18)
(2.19882 -2.45445 0)
(2.18652 -2.4407 -1.4619e-18)
(2.17419 -2.42691 7.17502e-19)
(2.16184 -2.4131 1.56929e-21)
(2.14945 -2.39925 1.37145e-18)
(2.13702 -2.38536 -6.69713e-19)
(2.12455 -2.37143 0)
(2.11204 -2.35746 -1.27954e-18)
(2.09949 -2.34343 0)
(2.08689 -2.32935 -1.22105e-18)
(2.07423 -2.31522 0)
(2.06152 -2.30103 5.83582e-19)
(2.04876 -2.28678 5.69562e-19)
(2.03593 -2.27246 -1.6609e-18)
(2.02304 -2.25807 -5.38939e-19)
(2.01008 -2.24361 -1.57953e-18)
(1.99706 -2.22908 -5.12159e-19)
(1.98396 -2.21446 1.00128e-18)
(1.97078 -2.19976 -4.86132e-19)
(1.95753 -2.18498 9.53076e-19)
(1.94419 -2.17011 -4.60839e-19)
(1.93077 -2.15514 -1.35173e-18)
(4.10058 -4.59967 0)
(3.75152 -4.20682 0)
(3.59522 -4.03349 1.02767e-17)
(3.49019 -3.91499 -5.28487e-21)
(3.4096 -3.82512 -1.01339e-17)
(3.34452 -3.7523 8.34548e-18)
(3.28969 -3.691 -7.821e-18)
(3.24215 -3.6379 0)
(3.20006 -3.59089 -4.6184e-19)
(3.16217 -3.54859 -7.42296e-18)
(3.12762 -3.51002 6.63286e-18)
(3.09579 -3.47449 7.88493e-19)
(3.0662 -3.44146 3.76011e-19)
(3.03849 -3.41054 -6.4688e-18)
(3.0124 -3.38141 5.16944e-18)
(2.98768 -3.35381 3.3068e-19)
(2.96418 -3.32756 3.18043e-19)
(2.94172 -3.30248 5.51293e-18)
(2.9202 -3.27843 -4.88245e-21)
(2.89951 -3.2553 -9.14104e-18)
(2.87956 -3.23299 4.42433e-18)
(2.86027 -3.21141 0)
(2.84158 -3.1905 -4.15108e-18)
(2.82344 -3.17019 4.9033e-21)
(2.80579 -3.15043 3.91991e-18)
(2.7886 -3.13116 4.76211e-19)
(2.77181 -3.11235 3.70533e-18)
(2.75541 -3.09395 -8.12559e-18)
(2.73935 -3.07594 7.0398e-18)
(2.72362 -3.05828 -4.98291e-21)
(2.70818 -3.04095 -3.77141e-18)
(2.69301 -3.02392 0)
(2.67809 -3.00716 0)
(2.66341 -2.99066 3.90418e-19)
(2.64895 -2.97441 3.81749e-19)
(2.63469 -2.95837 -7.46834e-19)
(2.62061 -2.94254 9.83432e-24)
(2.60671 -2.9269 3.5769e-19)
(2.59297 -2.91144 0)
(2.57938 -2.89615 -3.08469e-18)
(2.56592 -2.88101 2.01907e-18)
(2.5526 -2.86601 -2.63192e-18)
(2.53939 -2.85115 3.23043e-18)
(2.5263 -2.8364 2.52867e-18)
(2.51331 -2.82178 -2.48458e-18)
(2.50041 -2.80725 0)
(2.4876 -2.79283 0)
(2.47487 -2.77849 0)
(2.46222 -2.76424 0)
(2.44963 -2.75007 -5.63161e-19)
(2.4371 -2.73596 -1.65463e-18)
(2.42463 -2.72191 1.62885e-18)
(2.41221 -2.70793 0)
(2.39984 -2.69399 -5.21691e-19)
(2.38751 -2.68011 -2.04441e-18)
(2.37521 -2.66626 2.51348e-18)
(2.36294 -2.65245 4.92577e-19)
(2.3507 -2.63867 -1.23627e-23)
(2.33849 -2.62491 4.73963e-19)
(2.32629 -2.61118 0)
(2.3141 -2.59747 9.11844e-19)
(2.30193 -2.58376 0)
(2.28976 -2.57007 0)
(2.27759 -2.55638 -2.57565e-18)
(2.26543 -2.54269 4.21295e-18)
(2.25326 -2.529 -8.2885e-19)
(2.24108 -2.51531 8.09302e-19)
(2.22889 -2.5016 0)
(2.21669 -2.48787 7.76791e-19)
(2.20447 -2.47413 7.57749e-19)
(2.19223 -2.46037 -2.98022e-18)
(2.17997 -2.44658 1.462e-18)
(2.16767 -2.43277 0)
(2.15535 -2.41892 0)
(2.143 -2.40504 6.83693e-19)
(2.13061 -2.39111 0)
(2.11817 -2.37715 6.5403e-19)
(2.1057 -2.36314 -6.363e-19)
(2.09318 -2.34908 1.25321e-18)
(2.08062 -2.33497 -6.09179e-19)
(2.068 -2.3208 1.79162e-18)
(2.05533 -2.30657 0)
(2.0426 -2.29229 -5.67412e-19)
(2.02981 -2.27793 5.56979e-19)
(2.01696 -2.26351 0)
(2.00404 -2.24901 -5.30282e-19)
(1.99105 -2.23444 1.54525e-18)
(1.97799 -2.21979 0)
(1.96486 -2.20506 0)
(1.95164 -2.19024 -1.43051e-18)
(1.93834 -2.17533 2.32639e-18)
(1.92496 -2.16033 9.0549e-19)
(4.08782 -4.61026 0)
(3.73929 -4.21701 -7.33406e-19)
(3.5838 -4.04287 6.81701e-19)
(3.47899 -3.92418 6.34793e-19)
(3.3987 -3.83404 8.8651e-18)
(3.33387 -3.76103 -8.82584e-18)
(3.27924 -3.69958 1.081e-22)
(3.2319 -3.64634 -7.74832e-18)
(3.18997 -3.59922 7.76168e-18)
(3.15224 -3.55682 -6.90073e-18)
(3.11783 -3.51816 1.30918e-17)
(3.08613 -3.48255 -3.94081e-19)
(3.05666 -3.44945 -5.01661e-21)
(3.02907 -3.41847 -5.675e-18)
(3.00308 -3.38928 0)
(2.97847 -3.36164 0)
(2.95505 -3.33534 5.01229e-18)
(2.93269 -3.31021 -9.96251e-18)
(2.91125 -3.28613 4.66238e-18)
(2.89064 -3.26296 -4.49964e-18)
(2.87076 -3.24061 4.35772e-18)
(2.85154 -3.21901 0)
(2.83292 -3.19806 -4.08813e-18)
(2.81484 -3.17772 2.9804e-18)
(2.79725 -3.15793 3.85554e-18)
(2.78011 -3.13863 -4.22325e-18)
(2.76338 -3.11979 0)
(2.74703 -3.10137 4.44605e-19)
(2.73102 -3.08333 0)
(2.71534 -3.06564 0)
(2.69994 -3.04828 4.12535e-19)
(2.68482 -3.03122 -3.22025e-18)
(2.66995 -3.01444 3.15117e-18)
(2.65531 -2.99792 -2.69056e-18)
(2.64089 -2.98163 3.01236e-18)
(2.62666 -2.96557 7.36154e-19)
(2.61263 -2.94971 -2.51907e-18)
(2.59876 -2.93404 5.29017e-18)
(2.58506 -2.91855 -2.76571e-18)
(2.5715 -2.90323 3.38361e-19)
(2.55808 -2.88806 1.3262e-18)
(2.5448 -2.87303 -2.59703e-18)
(2.53163 -2.85814 1.91401e-18)
(2.51857 -2.84337 0)
(2.50561 -2.82871 1.2253e-18)
(2.49275 -2.81415 0)
(2.47997 -2.7997 1.76569e-18)
(2.46728 -2.78533 -5.83735e-19)
(2.45466 -2.77105 -2.27237e-18)
(2.4421 -2.75684 5.56772e-19)
(2.42961 -2.7427 0)
(2.41717 -2.72863 0)
(2.40479 -2.71461 0)
(2.39245 -2.70064 5.16364e-19)
(2.38015 -2.68672 -2.0241e-18)
(2.36789 -2.67284 3.97829e-18)
(2.35565 -2.659 -4.39199e-18)
(2.34345 -2.64518 -4.73096e-19)
(2.33126 -2.63139 9.42636e-19)
(2.3191 -2.61763 -1.84113e-18)
(2.30695 -2.60388 5.86817e-21)
(2.29481 -2.59015 1.77767e-18)
(2.28268 -2.57642 8.70383e-19)
(2.27055 -2.5627 8.53652e-19)
(2.25842 -2.54898 0)
(2.24628 -2.53525 2.45931e-18)
(2.23414 -2.52152 -6.0429e-21)
(2.22199 -2.50778 -1.58044e-18)
(2.20982 -2.49402 -7.72959e-19)
(2.19763 -2.48024 0)
(2.18543 -2.46645 0)
(2.1732 -2.45263 -7.26733e-19)
(2.16095 -2.43878 0)
(2.14866 -2.42489 -6.96761e-19)
(2.13634 -2.41097 -2.04295e-18)
(2.12399 -2.39702 6.73672e-19)
(2.11159 -2.38302 -6.46747e-19)
(2.09916 -2.36897 1.28058e-18)
(2.08668 -2.35488 -6.24595e-19)
(2.07415 -2.34073 1.22127e-18)
(2.06157 -2.32653 -1.19363e-18)
(2.04894 -2.31226 0)
(2.03625 -2.29794 0)
(2.0235 -2.28355 1.11255e-18)
(2.01068 -2.26909 0)
(1.9978 -2.25456 1.06008e-18)
(1.98485 -2.23995 -2.0686e-18)
(1.97183 -2.22526 0)
(1.95874 -2.21049 9.8371e-19)
(1.94556 -2.19563 0)
(1.93231 -2.18069 -9.34455e-19)
(1.91897 -2.16565 0)
(4.07471 -4.62135 1.27107e-17)
(3.72684 -4.22757 1.31542e-17)
(3.57213 -4.05269 -2.17002e-17)
(3.46753 -3.93377 5.20158e-21)
(3.38755 -3.84335 1.05552e-17)
(3.32294 -3.77015 -9.28297e-18)
(3.26851 -3.70854 -5.05216e-19)
(3.22134 -3.65516 7.6661e-18)
(3.17957 -3.60791 7.66357e-18)
(3.14198 -3.5654 -1.32069e-17)
(3.10771 -3.52664 4.08885e-19)
(3.07613 -3.49094 5.7594e-18)
(3.04678 -3.45776 0)
(3.0193 -3.42671 3.49475e-19)
(2.99342 -3.39745 3.34695e-19)
(2.9689 -3.36975 0)
(2.94558 -3.34339 4.93763e-18)
(2.92331 -3.31822 -4.8407e-21)
(2.90195 -3.29408 -4.30476e-18)
(2.88142 -3.27087 2.77086e-19)
(2.86162 -3.24848 0)
(2.84247 -3.22684 -3.63176e-18)
(2.82392 -3.20586 3.52621e-18)
(2.80591 -3.18548 -2.00333e-23)
(2.78838 -3.16565 -3.79573e-18)
(2.7713 -3.14632 4.15781e-18)
(2.75463 -3.12745 0)
(2.73834 -3.10899 0)
(2.72238 -3.09092 -2.98449e-18)
(2.70675 -3.0732 4.8611e-21)
(2.6914 -3.05581 3.25241e-18)
(2.67633 -3.03872 0)
(2.6615 -3.02191 -3.09883e-18)
(2.64691 -3.00536 2.65532e-18)
(2.63253 -2.98904 -2.59212e-18)
(2.61835 -2.97295 2.5412e-18)
(2.60436 -2.95706 -3.54996e-19)
(2.59053 -2.94136 -2.43071e-18)
(2.57687 -2.92584 2.72639e-18)
(2.56335 -2.91049 0)
(2.54998 -2.89529 2.61303e-18)
(2.53673 -2.88023 -2.56668e-18)
(2.52359 -2.8653 0)
(2.51057 -2.8505 0)
(2.49765 -2.83581 -3.02062e-18)
(2.48483 -2.82123 1.78224e-18)
(2.47209 -2.80674 2.90753e-18)
(2.45943 -2.79234 -3.99809e-18)
(2.44684 -2.77802 2.24486e-18)
(2.43433 -2.76378 0)
(2.42187 -2.74961 0)
(2.40947 -2.7355 2.64766e-18)
(2.39712 -2.72145 -2.08418e-18)
(2.38482 -2.70745 -5.10804e-19)
(2.37255 -2.6935 0)
(2.36032 -2.67959 -2.45838e-18)
(2.34813 -2.66571 5.68266e-21)
(2.33596 -2.65186 1.42577e-18)
(2.32381 -2.63804 2.79043e-18)
(2.31168 -2.62424 -2.28753e-18)
(2.29956 -2.61046 8.96858e-19)
(2.28746 -2.59669 0)
(2.27536 -2.58293 -1.74847e-23)
(2.26327 -2.56917 0)
(2.25118 -2.55542 8.31162e-19)
(2.23908 -2.54166 8.12262e-19)
(2.22697 -2.52789 -1.60209e-18)
(2.21486 -2.51412 7.84005e-19)
(2.20273 -2.50032 7.68646e-19)
(2.19058 -2.48651 7.53458e-19)
(2.17841 -2.47268 -1.47382e-18)
(2.16622 -2.45882 2.17381e-18)
(2.154 -2.44494 0)
(2.14175 -2.43102 6.94325e-19)
(2.12947 -2.41707 -6.7991e-19)
(2.11716 -2.40307 -1.33132e-18)
(2.1048 -2.38904 -6.51545e-19)
(2.0924 -2.37496 0)
(2.07996 -2.36082 6.23768e-19)
(2.06747 -2.34664 0)
(2.05493 -2.3324 1.19309e-18)
(2.04234 -2.3181 0)
(2.02969 -2.30374 0)
(2.01698 -2.28931 -1.11043e-18)
(2.00421 -2.27482 3.18055e-21)
(1.99137 -2.26025 1.06203e-18)
(1.97846 -2.2456 1.5471e-23)
(1.96548 -2.23088 -1.01166e-18)
(1.95243 -2.21607 -9.86941e-19)
(1.93929 -2.20117 -1.92181e-18)
(1.92608 -2.18619 9.4157e-19)
(1.91278 -2.17111 0)
(4.06115 -4.63285 -1.26923e-17)
(3.71409 -4.23842 1.09285e-17)
(3.56012 -4.06286 0)
(3.45577 -3.9437 1.00112e-17)
(3.37609 -3.853 -1.04643e-17)
(3.31171 -3.7796 -6.76282e-23)
(3.25747 -3.71782 7.57329e-18)
(3.21047 -3.66429 -5.21653e-21)
(3.16886 -3.61692 -8.01987e-18)
(3.13141 -3.57429 0)
(3.09727 -3.53543 -3.98335e-19)
(3.06581 -3.49964 -6.0533e-18)
(3.03658 -3.46637 5.77204e-18)
(3.0092 -3.43524 0)
(2.98342 -3.40591 -3.29715e-19)
(2.959 -3.37814 -3.16343e-19)
(2.93577 -3.35172 0)
(2.91359 -3.32649 -4.38929e-18)
(2.89232 -3.3023 8.75371e-18)
(2.87186 -3.27904 -9.00077e-18)
(2.85214 -3.2566 8.44206e-18)
(2.83307 -3.23491 -5.15721e-19)
(2.81459 -3.21388 -3.47053e-18)
(2.79664 -3.19346 4.80894e-19)
(2.77918 -3.17359 0)
(2.76217 -3.15423 -4.54398e-19)
(2.74556 -3.13532 0)
(2.72932 -3.11683 3.87518e-18)
(2.71343 -3.09872 -3.78234e-18)
(2.69784 -3.08097 3.27522e-18)
(2.68255 -3.06354 -6.39865e-18)
(2.66753 -3.04642 3.51774e-18)
(2.65276 -3.02957 0)
(2.63821 -3.01299 2.98302e-18)
(2.62388 -2.99664 -6.57058e-18)
(2.60975 -2.98051 2.86017e-18)
(2.5958 -2.9646 1.67537e-24)
(2.58202 -2.94887 0)
(2.5684 -2.93332 -3.01706e-18)
(2.55492 -2.91793 5.03806e-21)
(2.54159 -2.9027 1.93624e-18)
(2.52838 -2.88761 0)
(2.51529 -2.87265 -2.47666e-18)
(2.50231 -2.85781 3.04249e-18)
(2.48943 -2.84309 0)
(2.47664 -2.82847 1.02536e-23)
(2.46394 -2.81395 -2.29515e-18)
(2.45132 -2.79952 3.94689e-18)
(2.43877 -2.78518 -2.77013e-18)
(2.42629 -2.7709 0)
(2.41387 -2.7567 5.335e-19)
(2.40151 -2.74256 -5.23838e-19)
(2.3892 -2.72847 0)
(2.37693 -2.71444 -2.01749e-18)
(2.3647 -2.70045 1.98656e-18)
(2.35251 -2.68651 4.87001e-19)
(2.34035 -2.67259 0)
(2.32822 -2.65871 9.39082e-19)
(2.31611 -2.64486 -4.61027e-19)
(2.30402 -2.63102 8.83625e-24)
(2.29194 -2.61721 8.85835e-19)
(2.27987 -2.6034 -1.74775e-18)
(2.26781 -2.58961 -8.56354e-19)
(2.25576 -2.57582 -8.40464e-19)
(2.2437 -2.56203 -8.24803e-19)
(2.23164 -2.54823 0)
(2.21957 -2.53443 7.93999e-19)
(2.20749 -2.52062 -7.78884e-19)
(2.1954 -2.50679 -1.52783e-18)
(2.18329 -2.49294 -7.49124e-19)
(2.17116 -2.47908 -1.4659e-18)
(2.15901 -2.46518 2.163e-18)
(2.14683 -2.45126 -1.40821e-18)
(2.13462 -2.43731 6.94522e-19)
(2.12238 -2.42332 2.02907e-18)
(2.11011 -2.40929 -6.66559e-19)
(2.09779 -2.39521 6.49689e-19)
(2.08543 -2.3811 -1.26894e-18)
(2.07303 -2.36693 1.24818e-18)
(2.06058 -2.35271 0)
(2.04808 -2.33843 -2.38358e-18)
(2.03553 -2.32409 -1.16555e-18)
(2.02292 -2.30969 1.13959e-18)
(2.01025 -2.29523 -2.2278e-18)
(1.99752 -2.28069 1.08848e-18)
(1.98472 -2.26609 -2.12346e-18)
(1.97186 -2.2514 2.08007e-18)
(1.95892 -2.23664 1.43415e-23)
(1.94591 -2.22179 9.86314e-19)
(1.93282 -2.20685 -3.18697e-21)
(1.91965 -2.19183 -9.41722e-19)
(1.9064 -2.17671 9.1507e-19)
(4.04714 -4.64473 -1.19321e-17)
(3.70099 -4.24956 -1.16104e-17)
(3.54773 -4.07336 4.88928e-21)
(3.44366 -3.95392 1.98781e-17)
(3.36429 -3.86294 -8.64342e-18)
(3.30013 -3.78935 9.09976e-18)
(3.24609 -3.7274 -7.49499e-18)
(3.19927 -3.67372 0)
(3.15781 -3.62622 4.39779e-19)
(3.12051 -3.58347 6.22232e-18)
(3.08649 -3.54451 -5.89601e-18)
(3.05516 -3.50862 7.46276e-19)
(3.02603 -3.47527 3.55385e-19)
(2.99877 -3.44405 -5.08732e-18)
(2.97309 -3.41465 5.52324e-18)
(2.94876 -3.3868 5.2928e-18)
(2.92563 -3.36032 -4.79184e-18)
(2.90353 -3.33502 4.60869e-18)
(2.88234 -3.31077 -4.44897e-18)
(2.86197 -3.28745 -2.68418e-19)
(2.84232 -3.26497 -4.15113e-18)
(2.82333 -3.24322 4.02456e-18)
(2.80492 -3.22215 4.8748e-19)
(2.78705 -3.20169 -4.73153e-19)
(2.76966 -3.18177 0)
(2.75271 -3.16236 -3.57418e-18)
(2.73616 -3.14341 3.48359e-18)
(2.71998 -3.12488 -4.239e-19)
(2.70415 -3.10674 0)
(2.68862 -3.08895 3.62599e-18)
(2.67339 -3.07148 -3.54431e-18)
(2.65842 -3.05432 -3.84165e-18)
(2.6437 -3.03744 3.00782e-18)
(2.6292 -3.02082 -2.93633e-18)
(2.61492 -3.00444 3.23666e-18)
(2.60084 -2.98828 0)
(2.58694 -2.97233 3.44359e-19)
(2.5732 -2.95657 3.37288e-19)
(2.55963 -2.94098 -1.98039e-18)
(2.5462 -2.92556 5.1825e-18)
(2.53291 -2.9103 -6.40116e-19)
(2.51975 -2.89517 -4.35985e-18)
(2.5067 -2.88018 2.44629e-18)
(2.49376 -2.86531 1.19625e-18)
(2.48092 -2.85056 -2.35535e-18)
(2.46817 -2.83591 5.7731e-19)
(2.45552 -2.82135 2.2642e-18)
(2.44294 -2.80689 -1.11534e-18)
(2.43043 -2.79251 2.7288e-18)
(2.41799 -2.7782 -1.61198e-18)
(2.40561 -2.76396 -8.75e-24)
(2.39329 -2.74979 0)
(2.38101 -2.73567 -2.03001e-18)
(2.36879 -2.7216 2.49842e-18)
(2.3566 -2.70758 0)
(2.34445 -2.6936 0)
(2.33233 -2.67965 1.88921e-18)
(2.32023 -2.66574 -9.3476e-19)
(2.30816 -2.65185 -2.28428e-18)
(2.29611 -2.63798 -1.34156e-18)
(2.28407 -2.62413 1.76323e-18)
(2.27204 -2.61029 -8.64327e-19)
(2.26002 -2.59646 8.45802e-19)
(2.248 -2.58263 -8.36143e-19)
(2.23598 -2.5688 -1.63307e-18)
(2.22396 -2.55497 1.6088e-18)
(2.21193 -2.54114 -1.57608e-18)
(2.1999 -2.52729 0)
(2.18784 -2.51342 3.03202e-18)
(2.17577 -2.49954 -1.49169e-18)
(2.16368 -2.48564 -1.45714e-18)
(2.15157 -2.47171 7.18992e-19)
(2.13943 -2.45775 0)
(2.12726 -2.44376 6.88154e-19)
(2.11506 -2.42973 0)
(2.10283 -2.41566 6.60857e-19)
(2.09055 -2.40155 6.44308e-19)
(2.07824 -2.38739 -1.27128e-18)
(2.06588 -2.37319 0)
(2.05347 -2.35893 6.07806e-19)
(2.04101 -2.34461 2.37943e-18)
(2.0285 -2.33024 1.16406e-18)
(2.01593 -2.3158 -1.13865e-18)
(2.00331 -2.3013 1.50857e-23)
(1.99062 -2.28672 0)
(1.97787 -2.27208 -1.06389e-18)
(1.96504 -2.25735 -3.18948e-21)
(1.95215 -2.24255 -3.18623e-21)
(1.93918 -2.22766 0)
(1.92614 -2.21269 -9.67817e-19)
(1.91301 -2.19762 1.88573e-18)
(1.8998 -2.18246 -3.21363e-21)
(4.03266 -4.657 -1.19155e-17)
(3.68752 -4.26099 -1.15672e-17)
(3.53496 -4.08418 2.13254e-17)
(3.43119 -3.96446 -9.86523e-18)
(3.35212 -3.8732 0)
(3.2882 -3.7994 0)
(3.23436 -3.73728 0)
(3.18771 -3.68345 7.39119e-18)
(3.14641 -3.63581 -6.94884e-18)
(3.10925 -3.59295 4.09385e-19)
(3.07537 -3.55388 6.19608e-18)
(3.04415 -3.51788 -3.72643e-19)
(3.01514 -3.48444 -1.15536e-17)
(2.98799 -3.45314 5.01526e-18)
(2.9624 -3.42365 -6.39515e-19)
(2.93818 -3.39574 5.21015e-18)
(2.91514 -3.36918 2.89911e-19)
(2.89313 -3.34382 -4.8233e-18)
(2.87203 -3.31951 0)
(2.85174 -3.29613 4.75067e-18)
(2.83217 -3.27358 -4.08806e-18)
(2.81325 -3.25179 4.94558e-19)
(2.79492 -3.23066 -4.79451e-19)
(2.77711 -3.21015 4.65348e-19)
(2.75979 -3.19019 0)
(2.74291 -3.17073 3.51533e-18)
(2.72643 -3.15174 -3.4263e-18)
(2.71031 -3.13316 4.16952e-19)
(2.69454 -3.11497 4.06493e-19)
(2.67907 -3.09714 -7.93142e-19)
(2.6639 -3.07964 3.482e-18)
(2.64899 -3.06244 -5.67274e-18)
(2.63432 -3.04553 2.95942e-18)
(2.61988 -3.02887 2.52788e-18)
(2.60565 -3.01245 -5.65839e-18)
(2.59162 -2.99625 2.77167e-18)
(2.57777 -2.98026 3.3897e-19)
(2.56409 -2.96446 -3.32055e-19)
(2.55056 -2.94884 2.60074e-18)
(2.53718 -2.93339 -2.23529e-18)
(2.52394 -2.91809 -1.24864e-18)
(2.51082 -2.90293 1.84317e-18)
(2.49781 -2.88791 -6.01956e-19)
(2.48492 -2.873 2.36029e-18)
(2.47213 -2.85821 -2.32161e-18)
(2.45942 -2.84353 2.84321e-18)
(2.44681 -2.82894 -5.12694e-21)
(2.43427 -2.81444 -5.53917e-19)
(2.42181 -2.80003 -2.15832e-18)
(2.40941 -2.78568 -5.2935e-19)
(2.39707 -2.77141 1.55729e-18)
(2.38479 -2.7572 -2.0459e-18)
(2.37256 -2.74305 -5.01835e-19)
(2.36037 -2.72895 0)
(2.34822 -2.71489 -4.84411e-19)
(2.33611 -2.70087 -1.90104e-18)
(2.32403 -2.68689 2.34084e-18)
(2.31198 -2.67294 2.75383e-18)
(2.29995 -2.65901 -9.05539e-19)
(2.28794 -2.64511 0)
(2.27594 -2.63122 8.71255e-19)
(2.26395 -2.61735 2.5647e-18)
(2.25197 -2.60348 -1.68412e-18)
(2.23999 -2.58962 8.25621e-19)
(2.22802 -2.57575 -1.6187e-18)
(2.21603 -2.56189 5.83339e-21)
(2.20405 -2.54801 3.1296e-18)
(2.19205 -2.53413 0)
(2.18004 -2.52023 -1.12362e-23)
(2.16801 -2.50631 1.47533e-18)
(2.15596 -2.49236 -1.45356e-18)
(2.14389 -2.4784 0)
(2.13179 -2.4644 2.09074e-18)
(2.11967 -2.45037 -6.0958e-21)
(2.10751 -2.4363 -1.34523e-18)
(2.09531 -2.4222 6.54766e-19)
(2.08308 -2.40805 -6.47817e-19)
(2.07081 -2.39386 0)
(2.05849 -2.37961 0)
(2.04613 -2.36531 -7.9902e-24)
(2.03371 -2.35096 -1.55042e-23)
(2.02125 -2.33654 1.16179e-18)
(2.00872 -2.32207 -1.13694e-18)
(1.99614 -2.30752 3.18058e-21)
(1.9835 -2.29291 6.35523e-21)
(1.97079 -2.27822 3.19453e-18)
(1.95801 -2.26346 1.03987e-18)