/*--------------------------------*- C++ -*----------------------------------*\
  =========                 |
  \\      /  F ield         | OpenFOAM: The Open Source CFD Toolbox
   \\    /   O peration     | Website:  https://openfoam.org
    \\  /    A nd           | Version:  10
     \\/     M anipulation  |
\*---------------------------------------------------------------------------*/
FoamFile
{
    format      ascii;
    class       volScalarField;
    location    "19000";
    object      p;
}
// * * * * * * * * * * * * * * * * * * * * * * * * * * * * * * * * * * * * * //

dimensions      [0 2 -2 0 0 0 0];

internalField   nonuniform List<scalar> 
17922
(
12.5666
12.4687
12.3691
12.2676
12.1642
12.059
11.9519
11.8428
11.7318
11.6188
11.5038
11.3868
11.2677
11.1465
11.0232
10.8977
10.7701
10.6403
10.5083
10.3741
10.2376
10.0988
9.95765
9.81419
9.66835
9.52012
9.36947
9.21637
9.06216
8.90952
8.75975
8.61281
8.46865
8.32722
8.18847
8.05235
7.91882
7.78783
7.65934
7.53329
7.40963
7.28833
7.16932
7.05256
6.93801
6.82563
6.71536
6.60718
6.50103
6.39688
6.29468
6.1944
6.096
5.99944
5.90468
5.81169
5.72043
5.63086
5.54296
5.45668
5.372
5.28888
5.20729
5.1272
5.04859
4.97141
4.89564
4.82126
4.74823
4.67654
4.60614
4.53702
4.46915
4.40251
4.33707
4.27281
4.2097
4.14773
4.08687
4.02709
3.96838
3.91071
3.85405
3.79838
3.74367
3.68989
3.63704
3.58512
3.53412
3.48408
3.43498
3.38678
3.33945
12.5663
12.4685
12.3688
12.2673
12.164
12.0588
11.9516
11.8426
11.7316
11.6186
11.5035
11.3865
11.2674
11.1462
11.0229
10.8975
10.7699
10.6401
10.5081
10.3738
10.2373
10.0985
9.95738
9.81391
9.66807
9.51984
9.36919
9.21609
9.06188
8.90923
8.75947
8.61253
8.46837
8.32694
8.18819
8.05208
7.91854
7.78756
7.65907
7.53302
7.40937
7.28806
7.16905
7.05229
6.93775
6.82537
6.7151
6.60692
6.50078
6.39663
6.29443
6.19415
6.09575
5.99919
5.90444
5.81145
5.72019
5.63063
5.54273
5.45645
5.37177
5.28866
5.20707
5.12699
5.04837
4.9712
4.89543
4.82106
4.74803
4.67634
4.60595
4.53683
4.46897
4.40233
4.33689
4.27263
4.20953
4.14756
4.0867
4.02693
3.96822
3.91055
3.8539
3.79822
3.74351
3.68974
3.63689
3.58496
3.53397
3.48393
3.43485
3.38667
3.33936
12.566
12.4682
12.3685
12.267
12.1637
12.0585
11.9513
11.8423
11.7312
11.6182
11.5032
11.3862
11.2671
11.1459
11.0226
10.8971
10.7695
10.6397
10.5077
10.3735
10.237
10.0982
9.95703
9.81355
9.66771
9.51948
9.36882
9.21572
9.0615
8.90885
8.75908
8.61214
8.46798
8.32655
8.1878
8.05168
7.91814
7.78715
7.65866
7.53261
7.40896
7.28765
7.16864
7.05188
6.93733
6.82495
6.71469
6.6065
6.50035
6.3962
6.29401
6.19373
6.09533
5.99877
5.90401
5.81102
5.71977
5.6302
5.5423
5.45603
5.37135
5.28823
5.20665
5.12656
5.04795
4.97078
4.89502
4.82064
4.74762
4.67592
4.60553
4.53642
4.46855
4.40192
4.33648
4.27223
4.20912
4.14716
4.0863
4.02653
3.96782
3.91015
3.85349
3.79782
3.7431
3.68932
3.63647
3.58454
3.53354
3.48352
3.43445
3.38628
3.33898
12.5657
12.4679
12.3682
12.2667
12.1634
12.0582
11.951
11.842
11.7309
11.6179
11.5029
11.3859
11.2668
11.1456
11.0223
10.8968
10.7692
10.6394
10.5074
10.3731
10.2366
10.0978
9.95667
9.81319
9.66735
9.51911
9.36845
9.21534
9.06112
8.90847
8.75869
8.61175
8.46758
8.32615
8.18739
8.05127
7.91773
7.78674
7.65825
7.5322
7.40854
7.28723
7.16822
7.05146
6.93691
6.82452
6.71426
6.60607
6.49993
6.39578
6.29358
6.1933
6.0949
5.99834
5.90358
5.81059
5.71934
5.62977
5.54187
5.4556
5.37092
5.28781
5.20622
5.12614
5.04753
4.97035
4.89459
4.82022
4.7472
4.6755
4.60511
4.536
4.46814
4.4015
4.33607
4.27182
4.20872
4.14675
4.0859
4.02613
3.96742
3.90975
3.8531
3.79742
3.7427
3.68892
3.63606
3.58413
3.53313
3.48312
3.43408
3.38591
3.33863
12.5655
12.4676
12.368
12.2665
12.1631
12.0579
11.9508
11.8417
11.7307
11.6177
11.5026
11.3856
11.2665
11.1453
11.022
10.8965
10.7689
10.6391
10.5071
10.3728
10.2363
10.0975
9.95634
9.81286
9.66701
9.51877
9.3681
9.21499
9.06077
8.90811
8.75833
8.61139
8.46722
8.32578
8.18702
8.05089
7.91736
7.78637
7.65787
7.53182
7.40816
7.28684
7.16783
7.05107
6.93652
6.82413
6.71387
6.60568
6.49953
6.39538
6.29318
6.1929
6.0945
5.99794
5.90319
5.8102
5.71894
5.62938
5.54147
5.4552
5.37052
5.28741
5.20583
5.12574
5.04713
4.96996
4.8942
4.81983
4.74681
4.67512
4.60473
4.53562
4.46776
4.40112
4.33569
4.27144
4.20834
4.14638
4.08552
4.02576
3.96705
3.90939
3.85273
3.79705
3.74233
3.68854
3.63569
3.58375
3.53275
3.48275
3.43372
3.38557
3.3383
12.5652
12.4674
12.3677
12.2662
12.1629
12.0576
11.9505
11.8414
11.7304
11.6174
11.5024
11.3853
11.2662
11.145
11.0217
10.8962
10.7686
10.6388
10.5068
10.3725
10.236
10.0972
9.95604
9.81255
9.6667
9.51845
9.36778
9.21467
9.06044
8.90778
8.758
8.61104
8.46687
8.32543
8.18667
8.05054
7.917
7.78601
7.65751
7.53145
7.40779
7.28648
7.16746
7.0507
6.93615
6.82376
6.71349
6.60531
6.49916
6.395
6.29281
6.19253
6.09413
5.99756
5.90281
5.80982
5.71856
5.629
5.54109
5.45482
5.37015
5.28703
5.20545
5.12537
5.04676
4.96958
4.89383
4.81945
4.74643
4.67474
4.60436
4.53525
4.46739
4.40076
4.33533
4.27107
4.20798
4.14602
4.08516
4.0254
3.9667
3.90903
3.85237
3.79669
3.74197
3.68818
3.63532
3.58338
3.53238
3.48239
3.43338
3.38524
3.33799
12.565
12.4671
12.3675
12.266
12.1626
12.0574
11.9502
11.8412
11.7301
11.6171
11.5021
11.3851
11.2659
11.1447
11.0214
10.896
10.7683
10.6385
10.5065
10.3722
10.2357
10.0969
9.95574
9.81226
9.6664
9.51815
9.36747
9.21436
9.06013
8.90746
8.75767
8.61072
8.46654
8.3251
8.18633
8.0502
7.91666
7.78567
7.65717
7.53111
7.40745
7.28613
7.16711
7.05035
6.93579
6.82341
6.71314
6.60495
6.4988
6.39464
6.29244
6.19216
6.09376
5.9972
5.90244
5.80945
5.71819
5.62863
5.54073
5.45446
5.36978
5.28667
5.20508
5.125
5.04639
4.96922
4.89346
4.81909
4.74607
4.67438
4.604
4.53489
4.46703
4.4004
4.33497
4.27072
4.20763
4.14567
4.08482
4.02505
3.96635
3.90868
3.85202
3.79634
3.74161
3.68782
3.63495
3.58301
3.53201
3.48204
3.43304
3.38493
3.33768
12.5648
12.4669
12.3672
12.2657
12.1624
12.0572
11.95
11.8409
11.7299
11.6169
11.5019
11.3848
11.2657
11.1445
11.0212
10.8957
10.7681
10.6383
10.5062
10.372
10.2354
10.0966
9.95547
9.81198
9.66612
9.51786
9.36718
9.21406
9.05983
8.90716
8.75737
8.61041
8.46623
8.32478
8.18602
8.04988
7.91634
7.78534
7.65684
7.53078
7.40711
7.2858
7.16678
7.05001
6.93546
6.82307
6.7128
6.60461
6.49845
6.3943
6.2921
6.19182
6.09341
5.99685
5.90209
5.8091
5.71784
5.62828
5.54038
5.45411
5.36943
5.28631
5.20473
5.12465
5.04604
4.96887
4.89311
4.81874
4.74572
4.67404
4.60365
4.53454
4.46669
4.40006
4.33463
4.27038
4.20729
4.14533
4.08448
4.02472
3.96601
3.90834
3.85168
3.796
3.74127
3.68747
3.6346
3.58266
3.53167
3.4817
3.43272
3.38462
3.33739
12.5645
12.4667
12.367
12.2655
12.1622
12.0569
11.9498
11.8407
11.7297
11.6167
11.5016
11.3846
11.2655
11.1443
11.0209
10.8955
10.7678
10.638
10.506
10.3717
10.2352
10.0964
9.95521
9.81171
9.66585
9.51759
9.36691
9.21379
9.05955
8.90687
8.75708
8.61012
8.46594
8.32449
8.18572
8.04958
7.91603
7.78503
7.65653
7.53047
7.4068
7.28548
7.16646
7.04969
6.93514
6.82274
6.71247
6.60428
6.49813
6.39397
6.29177
6.19149
6.09308
5.99652
5.90176
5.80877
5.71751
5.62794
5.54004
5.45377
5.36909
5.28598
5.2044
5.12431
5.0457
4.96854
4.89278
4.81841
4.74539
4.6737
4.60332
4.53421
4.46635
4.39972
4.3343
4.27005
4.20696
4.145
4.08415
4.02439
3.96569
3.90802
3.85135
3.79566
3.74093
3.68713
3.63425
3.58231
3.53133
3.48138
3.43242
3.38433
3.33711
12.5643
12.4665
12.3668
12.2653
12.162
12.0567
11.9496
11.8405
11.7295
11.6165
11.5014
11.3844
11.2652
11.144
11.0207
10.8953
10.7676
10.6378
10.5058
10.3715
10.235
10.0961
9.95497
9.81147
9.6656
9.51734
9.36665
9.21353
9.05928
8.90661
8.75681
8.60985
8.46566
8.3242
8.18543
8.04929
7.91574
7.78474
7.65624
7.53017
7.4065
7.28518
7.16616
7.04939
6.93483
6.82244
6.71216
6.60397
6.49781
6.39366
6.29145
6.19117
6.09276
5.9962
5.90144
5.80845
5.71719
5.62762
5.53972
5.45345
5.36877
5.28566
5.20407
5.12399
5.04538
4.96821
4.89246
4.81808
4.74507
4.67338
4.603
4.53389
4.46603
4.3994
4.33398
4.26973
4.20664
4.14469
4.08384
4.02407
3.96537
3.9077
3.85103
3.79534
3.7406
3.68679
3.63392
3.58198
3.531
3.48107
3.43212
3.38405
3.33684
12.5642
12.4663
12.3666
12.2651
12.1618
12.0565
11.9494
11.8403
11.7293
11.6163
11.5012
11.3842
11.265
11.1438
11.0205
10.895
10.7674
10.6376
10.5056
10.3713
10.2347
10.0959
9.95474
9.81124
9.66537
9.5171
9.36641
9.21328
9.05903
8.90636
8.75656
8.60959
8.4654
8.32394
8.18516
8.04902
7.91547
7.78447
7.65596
7.52989
7.40622
7.2849
7.16587
7.0491
6.93454
6.82214
6.71187
6.60368
6.49752
6.39336
6.29116
6.19087
6.09246
5.9959
5.90114
5.80814
5.71688
5.62732
5.53941
5.45314
5.36846
5.28535
5.20376
5.12368
5.04507
4.9679
4.89215
4.81777
4.74476
4.67307
4.60269
4.53358
4.46573
4.3991
4.33367
4.26943
4.20634
4.14438
4.08353
4.02377
3.96507
3.90739
3.85072
3.79502
3.74028
3.68647
3.63358
3.58165
3.53069
3.48078
3.43184
3.38378
3.33659
12.564
12.4661
12.3665
12.265
12.1616
12.0564
11.9492
11.8401
11.7291
11.6161
11.5011
11.384
11.2649
11.1436
11.0203
10.8948
10.7672
10.6374
10.5054
10.3711
10.2345
10.0957
9.95453
9.81102
9.66515
9.51688
9.36619
9.21305
9.0588
8.90612
8.75632
8.60934
8.46515
8.32369
8.18491
8.04877
7.91521
7.78421
7.6557
7.52963
7.40596
7.28463
7.1656
7.04883
6.93427
6.82187
6.71159
6.6034
6.49724
6.39308
6.29087
6.19058
6.09218
5.99561
5.90085
5.80785
5.71659
5.62702
5.53912
5.45285
5.36817
5.28505
5.20347
5.12339
5.04478
4.96761
4.89185
4.81748
4.74446
4.67277
4.60239
4.53328
4.46543
4.3988
4.33338
4.26913
4.20604
4.14409
4.08324
4.02348
3.96477
3.90709
3.85042
3.79471
3.73996
3.68615
3.63326
3.58132
3.53039
3.48051
3.43158
3.38353
3.33636
12.5638
12.466
12.3663
12.2648
12.1614
12.0562
11.949
11.84
11.7289
11.6159
11.5009
11.3838
11.2647
11.1435
11.0201
10.8947
10.767
10.6372
10.5052
10.3709
10.2343
10.0955
9.95433
9.81082
9.66494
9.51667
9.36598
9.21284
9.05859
8.9059
8.75609
8.60912
8.46492
8.32346
8.18468
8.04853
7.91497
7.78397
7.65545
7.52938
7.40571
7.28438
7.16535
7.04857
6.93401
6.82161
6.71133
6.60313
6.49697
6.39281
6.2906
6.19031
6.0919
5.99534
5.90057
5.80758
5.71631
5.62675
5.53884
5.45257
5.36789
5.28477
5.20319
5.1231
5.04449
4.96732
4.89157
4.81719
4.74418
4.67249
4.60211
4.533
4.46514
4.39852
4.33309
4.26885
4.20576
4.1438
4.08295
4.02319
3.96448
3.9068
3.85012
3.79441
3.73965
3.68583
3.63294
3.58099
3.5301
3.48026
3.43133
3.3833
3.33613
12.5637
12.4658
12.3661
12.2646
12.1613
12.056
11.9489
11.8398
11.7288
11.6158
11.5007
11.3837
11.2645
11.1433
11.02
10.8945
10.7669
10.637
10.505
10.3707
10.2342
10.0953
9.95414
9.81063
9.66475
9.51648
9.36578
9.21264
9.05838
8.90569
8.75588
8.60891
8.46471
8.32324
8.18446
8.0483
7.91475
7.78374
7.65522
7.52915
7.40547
7.28414
7.16511
7.04833
6.93377
6.82136
6.71108
6.60288
6.49672
6.39256
6.29035
6.19006
6.09165
5.99508
5.90031
5.80731
5.71605
5.62648
5.53858
5.4523
5.36762
5.2845
5.20292
5.12283
5.04422
4.96705
4.89129
4.81692
4.7439
4.67222
4.60183
4.53273
4.46487
4.39824
4.33282
4.26858
4.20549
4.14353
4.08268
4.02291
3.9642
3.90652
3.84983
3.79412
3.73935
3.68553
3.63263
3.58069
3.52983
3.48002
3.4311
3.38307
3.33592
12.5635
12.4657
12.366
12.2645
12.1611
12.0559
11.9488
11.8397
11.7286
11.6156
11.5006
11.3835
11.2644
11.1432
11.0198
10.8943
10.7667
10.6369
10.5048
10.3705
10.234
10.0951
9.95398
9.81046
9.66458
9.5163
9.3656
9.21246
9.0582
8.9055
8.75569
8.60871
8.46451
8.32304
8.18425
8.0481
7.91454
7.78353
7.65501
7.52893
7.40525
7.28392
7.16489
7.04811
6.93354
6.82113
6.71085
6.60265
6.49649
6.39232
6.29011
6.18982
6.0914
5.99483
5.90007
5.80707
5.7158
5.62623
5.53832
5.45205
5.36736
5.28425
5.20266
5.12258
5.04397
4.96679
4.89104
4.81666
4.74364
4.67196
4.60157
4.53247
4.46461
4.39798
4.33256
4.26831
4.20522
4.14327
4.08242
4.02265
3.96393
3.90625
3.84955
3.79383
3.73906
3.68523
3.63233
3.58041
3.52957
3.47978
3.43088
3.38286
3.33573
12.5634
12.4655
12.3659
12.2644
12.161
12.0558
11.9486
11.8395
11.7285
11.6155
11.5004
11.3834
11.2642
11.143
11.0197
10.8942
10.7666
10.6367
10.5047
10.3704
10.2338
10.095
9.95382
9.81031
9.66442
9.51614
9.36544
9.21229
9.05803
8.90533
8.75551
8.60853
8.46432
8.32285
8.18406
8.0479
7.91434
7.78333
7.65481
7.52873
7.40505
7.28371
7.16468
7.0479
6.93333
6.82092
6.71064
6.60243
6.49626
6.3921
6.28988
6.18959
6.09118
5.9946
5.89983
5.80683
5.71557
5.62599
5.53809
5.45181
5.36712
5.28401
5.20242
5.12233
5.04372
4.96655
4.89079
4.81641
4.7434
4.67171
4.60132
4.53222
4.46436
4.39773
4.33231
4.26806
4.20497
4.14301
4.08216
4.02239
3.96368
3.90598
3.84928
3.79356
3.73878
3.68494
3.63204
3.58014
3.52933
3.47956
3.43067
3.38267
3.33554
12.9371
12.8463
12.7537
12.6593
12.5633
12.4654
12.3657
12.2642
12.1609
12.0556
11.9485
11.8394
11.7284
11.6154
11.5003
11.3833
11.2641
11.1429
11.0196
10.8941
10.7664
10.6366
10.5046
10.3703
10.2337
10.0949
9.95368
9.81016
9.66428
9.51599
9.36529
9.21213
9.05787
8.90517
8.75535
8.60836
8.46415
8.32268
8.18389
8.04773
7.91416
7.78315
7.65463
7.52855
7.40486
7.28352
7.16449
7.0477
6.93313
6.82072
6.71043
6.60223
6.49606
6.39189
6.28967
6.18938
6.09096
5.99439
5.89962
5.80661
5.71534
5.62577
5.53786
5.45158
5.3669
5.28378
5.20219
5.1221
5.04349
4.96632
4.89056
4.81618
4.74316
4.67147
4.60109
4.53198
4.46412
4.39749
4.33207
4.26782
4.20473
4.14277
4.08192
4.02215
3.96342
3.90572
3.84902
3.79328
3.7385
3.68465
3.63176
3.57989
3.52911
3.47935
3.43048
3.38249
3.33538
12.937
12.8461
12.7535
12.6592
12.5631
12.4653
12.3656
12.2641
12.1608
12.0555
11.9484
11.8393
11.7283
11.6153
11.5002
11.3831
11.264
11.1428
11.0194
10.894
10.7663
10.6365
10.5044
10.3701
10.2336
10.0947
9.95356
9.81004
9.66414
9.51586
9.36515
9.21199
9.05773
8.90502
8.7552
8.60821
8.464
8.32252
8.18373
8.04756
7.914
7.78298
7.65446
7.52837
7.40469
7.28335
7.16431
7.04752
6.93295
6.82053
6.71025
6.60204
6.49587
6.39169
6.28948
6.18918
6.09076
5.99418
5.89941
5.80641
5.71514
5.62556
5.53765
5.45137
5.36668
5.28356
5.20197
5.12189
5.04327
4.96609
4.89033
4.81596
4.74294
4.67125
4.60086
4.53175
4.46389
4.39727
4.33184
4.26759
4.2045
4.14254
4.08168
4.02191
3.96318
3.90547
3.84876
3.79302
3.73822
3.68437
3.63148
3.57966
3.52893
3.47917
3.4303
3.38233
3.33523
12.9369
12.846
12.7534
12.6591
12.5631
12.4652
12.3655
12.264
12.1607
12.0554
11.9483
11.8392
11.7282
11.6152
11.5001
11.383
11.2639
11.1427
11.0193
10.8939
10.7662
10.6364
10.5043
10.37
10.2335
10.0946
9.95344
9.80992
9.66403
9.51574
9.36503
9.21187
9.0576
8.90489
8.75507
8.60807
8.46386
8.32238
8.18358
8.04741
7.91385
7.78283
7.6543
7.52822
7.40453
7.28319
7.16414
7.04736
6.93278
6.82036
6.71007
6.60186
6.49569
6.39151
6.28929
6.18899
6.09057
5.994
5.89922
5.80622
5.71494
5.62537
5.53745
5.45117
5.36648
5.28336
5.20177
5.12168
5.04306
4.96589
4.89012
4.81575
4.74272
4.67103
4.60065
4.53154
4.46368
4.39705
4.33162
4.26737
4.20428
4.14232
4.08146
4.02168
3.96294
3.90523
3.84851
3.79275
3.73795
3.68409
3.63121
3.57944
3.52876
3.479
3.43015
3.38218
3.33509
13.1995
13.1136
13.026
12.9368
12.8459
12.7534
12.659
12.563
12.4651
12.3655
12.264
12.1606
12.0554
11.9482
11.8391
11.7281
11.6151
11.5
11.383
11.2638
11.1426
11.0193
10.8938
10.7661
10.6363
10.5042
10.3699
10.2334
10.0945
9.95334
9.80982
9.66392
9.51563
9.36492
9.21176
9.05748
8.90477
8.75495
8.60795
8.46373
8.32225
8.18345
8.04728
7.91371
7.78269
7.65416
7.52808
7.40438
7.28304
7.16399
7.0472
6.93262
6.82021
6.70991
6.6017
6.49552
6.39135
6.28913
6.18882
6.0904
5.99382
5.89904
5.80604
5.71476
5.62518
5.53727
5.45098
5.36629
5.28317
5.20158
5.12149
5.04287
4.96569
4.88993
4.81555
4.74252
4.67083
4.60044
4.53133
4.46347
4.39684
4.33141
4.26716
4.20407
4.1421
4.08124
4.02146
3.96272
3.905
3.84827
3.7925
3.73769
3.68384
3.63098
3.57925
3.52859
3.47884
3.43
3.38205
3.33497
13.1994
13.1135
13.0259
12.9367
12.8459
12.7533
12.659
12.5629
12.465
12.3654
12.2639
12.1605
12.0553
11.9481
11.8391
11.728
11.615
11.5
11.3829
11.2638
11.1425
11.0192
10.8937
10.7661
10.6362
10.5042
10.3699
10.2333
10.0944
9.95326
9.80973
9.66383
9.51554
9.36482
9.21166
9.05738
8.90467
8.75484
8.60784
8.46362
8.32213
8.18333
8.04716
7.91359
7.78257
7.65404
7.52795
7.40425
7.28291
7.16386
7.04707
6.93248
6.82006
6.70977
6.60155
6.49538
6.3912
6.28897
6.18867
6.09024
5.99366
5.89888
5.80587
5.71459
5.62501
5.5371
5.45081
5.36612
5.28299
5.2014
5.1213
5.04268
4.96551
4.88974
4.81536
4.74234
4.67064
4.60025
4.53114
4.46328
4.39665
4.33122
4.26696
4.20387
4.1419
4.08103
4.02124
3.9625
3.90477
3.84803
3.79226
3.73744
3.68359
3.63077
3.57907
3.52843
3.4787
3.42987
3.38193
3.33486
13.1993
13.1134
13.0259
12.9367
12.8458
12.7532
12.6589
12.5628
12.465
12.3653
12.2638
12.1605
12.0552
11.9481
11.839
11.728
11.6149
11.4999
11.3828
11.2637
11.1425
11.0191
10.8936
10.766
10.6362
10.5041
10.3698
10.2332
10.0944
9.95318
9.80965
9.66375
9.51546
9.36474
9.21157
9.05729
8.90458
8.75475
8.60774
8.46352
8.32203
8.18322
8.04706
7.91348
7.78246
7.65392
7.52783
7.40414
7.28279
7.16374
7.04694
6.93236
6.81994
6.70964
6.60142
6.49524
6.39106
6.28883
6.18853
6.0901
5.99351
5.89873
5.80572
5.71444
5.62486
5.53694
5.45065
5.36596
5.28283
5.20123
5.12114
5.04251
4.96533
4.88957
4.81518
4.74216
4.67046
4.60007
4.53096
4.46309
4.39646
4.33103
4.26678
4.20368
4.1417
4.08083
4.02104
3.96228
3.90454
3.84779
3.79201
3.73719
3.68334
3.63058
3.57894
3.52831
3.47858
3.42976
3.38183
3.33477
13.1993
13.1134
13.0258
12.9366
12.8458
12.7532
12.6589
12.5628
12.4649
12.3653
12.2638
12.1604
12.0552
11.948
11.839
11.7279
11.6149
11.4999
11.3828
11.2636
11.1424
11.0191
10.8936
10.7659
10.6361
10.504
10.3697
10.2332
10.0943
9.95312
9.80959
9.66369
9.51539
9.36467
9.2115
9.05722
8.9045
8.75467
8.60766
8.46344
8.32194
8.18313
8.04696
7.91339
7.78236
7.65383
7.52773
7.40404
7.28268
7.16363
7.04683
6.93224
6.81982
6.70952
6.6013
6.49512
6.39093
6.28871
6.1884
6.08997
5.99338
5.8986
5.80558
5.7143
5.62471
5.53679
5.4505
5.36581
5.28267
5.20108
5.12098
5.04236
4.96517
4.8894
4.81502
4.74199
4.67029
4.5999
4.53079
4.46292
4.39629
4.33085
4.2666
4.20349
4.14152
4.08064
4.02084
3.96208
3.90433
3.84757
3.79178
3.73695
3.68311
3.63041
3.57883
3.5282
3.47848
3.42967
3.38175
3.3347
13.1992
13.1133
13.0258
12.9366
12.8457
12.7531
12.6588
12.5628
12.4649
12.3652
12.2637
12.1604
12.0552
11.948
11.8389
11.7279
11.6149
11.4998
11.3827
11.2636
11.1424
11.019
10.8936
10.7659
10.6361
10.504
10.3697
10.2331
10.0943
9.95307
9.80954
9.66364
9.51534
9.36461
9.21144
9.05716
8.90444
8.7546
8.60759
8.46336
8.32187
8.18306
8.04689
7.91331
7.78228
7.65374
7.52765
7.40395
7.28259
7.16354
7.04674
6.93215
6.81972
6.70942
6.60119
6.49501
6.39082
6.28859
6.18828
6.08985
5.99326
5.89847
5.80545
5.71417
5.62458
5.53666
5.45037
5.36567
5.28253
5.20093
5.12084
5.04221
4.96502
4.88925
4.81487
4.74184
4.67014
4.59974
4.53063
4.46276
4.39612
4.33069
4.26643
4.20332
4.14134
4.08046
4.02065
3.96188
3.90412
3.84735
3.79155
3.73672
3.68292
3.63027
3.57872
3.52809
3.47839
3.42959
3.38168
3.33465
13.1992
13.1133
13.0258
12.9366
12.8457
12.7531
12.6588
12.5627
12.4649
12.3652
12.2637
12.1604
12.0551
11.948
11.8389
11.7279
11.6148
11.4998
11.3827
11.2636
11.1424
11.019
10.8935
10.7659
10.636
10.504
10.3697
10.2331
10.0942
9.95304
9.8095
9.6636
9.51529
9.36457
9.2114
9.05711
8.90439
8.75455
8.60754
8.46331
8.32181
8.183
8.04682
7.91325
7.78221
7.65367
7.52758
7.40387
7.28252
7.16346
7.04666
6.93206
6.81963
6.70933
6.6011
6.49492
6.39073
6.28849
6.18818
6.08974
5.99315
5.89836
5.80534
5.71406
5.62447
5.53654
5.45024
5.36554
5.28241
5.2008
5.1207
5.04207
4.96489
4.88911
4.81473
4.7417
4.66999
4.5996
4.53048
4.46261
4.39597
4.33053
4.26627
4.20316
4.14118
4.08029
4.02047
3.96169
3.90392
3.84714
3.79133
3.73651
3.68276
3.63017
3.57862
3.52801
3.47831
3.42953
3.38163
3.33461
13.1992
13.1133
13.0257
12.9366
12.8457
12.7531
12.6588
12.5627
12.4649
12.3652
12.2637
12.1604
12.0551
11.948
11.8389
11.7278
11.6148
11.4998
11.3827
11.2636
11.1423
11.019
10.8935
10.7659
10.636
10.504
10.3697
10.2331
10.0942
9.95302
9.80948
9.66357
9.51527
9.36454
9.21136
9.05707
8.90435
8.75451
8.60749
8.46326
8.32176
8.18295
8.04677
7.91319
7.78216
7.65362
7.52752
7.40381
7.28245
7.16339
7.04659
6.93199
6.81956
6.70925
6.60102
6.49483
6.39064
6.28841
6.18809
6.08965
5.99306
5.89827
5.80524
5.71395
5.62436
5.53643
5.45013
5.36543
5.28229
5.20069
5.12058
5.04195
4.96476
4.88899
4.8146
4.74156
4.66986
4.59946
4.53034
4.46247
4.39583
4.33039
4.26612
4.20301
4.14102
4.08012
4.02029
3.9615
3.90372
3.84693
3.79111
3.7363
3.68263
3.6301
3.57856
3.52795
3.47826
3.42948
3.3816
3.33459
13.1992
13.1133
13.0257
12.9366
12.8457
12.7531
12.6588
12.5627
12.4649
12.3652
12.2637
12.1604
12.0551
11.948
11.8389
11.7278
11.6148
11.4998
11.3827
11.2636
11.1423
11.019
10.8935
10.7659
10.636
10.5039
10.3696
10.2331
10.0942
9.953
9.80947
9.66356
9.51525
9.36452
9.21134
9.05705
8.90432
8.75448
8.60746
8.46323
8.32173
8.18291
8.04673
7.91316
7.78212
7.65357
7.52747
7.40376
7.2824
7.16334
7.04653
6.93194
6.8195
6.70919
6.60096
6.49477
6.39057
6.28833
6.18801
6.08957
5.99298
5.89818
5.80516
5.71386
5.62427
5.53634
5.45004
5.36533
5.28219
5.20058
5.12048
5.04184
4.96465
4.88887
4.81448
4.74144
4.66974
4.59934
4.53021
4.46234
4.3957
4.33025
4.26598
4.20287
4.14087
4.07997
4.02013
3.96132
3.90353
3.84673
3.79092
3.73613
3.68252
3.63004
3.5785
3.5279
3.47823
3.42946
3.38158
3.33458
13.1992
13.1133
13.0257
12.9366
12.8457
12.7531
12.6588
12.5627
12.4649
12.3652
12.2637
12.1604
12.0551
11.948
11.8389
11.7279
11.6148
11.4998
11.3827
11.2636
11.1423
11.019
10.8935
10.7659
10.636
10.504
10.3696
10.2331
10.0942
9.953
9.80946
9.66355
9.51524
9.36451
9.21133
9.05704
8.90431
8.75446
8.60745
8.46321
8.32171
8.18289
8.04671
7.91313
7.78209
7.65354
7.52744
7.40373
7.28237
7.1633
7.04649
6.93189
6.81946
6.70914
6.60091
6.49471
6.39052
6.28827
6.18795
6.08951
5.99291
5.89811
5.80508
5.71379
5.62419
5.53626
5.44995
5.36524
5.2821
5.20049
5.12038
5.04174
4.96455
4.88877
4.81438
4.74134
4.66963
4.59923
4.5301
4.46222
4.39558
4.33013
4.26586
4.20273
4.14073
4.07982
4.01997
3.96115
3.90335
3.84654
3.79073
3.73601
3.68246
3.62999
3.57846
3.52787
3.47821
3.42946
3.38159
3.3346
13.1992
13.1133
13.0258
12.9366
12.8457
12.7531
12.6588
12.5627
12.4649
12.3652
12.2637
12.1604
12.0551
11.948
11.8389
11.7279
11.6149
11.4998
11.3827
11.2636
11.1424
11.019
10.8935
10.7659
10.636
10.504
10.3697
10.2331
10.0942
9.95302
9.80948
9.66356
9.51525
9.36452
9.21134
9.05704
8.90431
8.75446
8.60744
8.46321
8.3217
8.18288
8.0467
7.91312
7.78208
7.65353
7.52742
7.40371
7.28234
7.16328
7.04647
6.93186
6.81942
6.70911
6.60087
6.49467
6.39047
6.28823
6.1879
6.08946
5.99285
5.89805
5.80502
5.71372
5.62412
5.53619
5.44988
5.36517
5.28202
5.20041
5.1203
5.04166
4.96446
4.88868
4.81428
4.74124
4.66953
4.59912
4.53
4.46212
4.39547
4.33002
4.26574
4.20261
4.1406
4.07968
4.01982
3.96099
3.90317
3.84635
3.79056
3.73592
3.68244
3.62997
3.57845
3.52787
3.47822
3.42947
3.38161
3.33463
13.1992
13.1133
13.0258
12.9366
12.8457
12.7532
12.6588
12.5628
12.4649
12.3653
12.2638
12.1604
12.0552
11.948
11.839
11.7279
11.6149
11.4998
11.3828
11.2636
11.1424
11.019
10.8936
10.7659
10.6361
10.504
10.3697
10.2331
10.0942
9.95304
9.8095
9.66358
9.51527
9.36454
9.21135
9.05706
8.90432
8.75447
8.60745
8.46322
8.32171
8.18289
8.0467
7.91312
7.78208
7.65353
7.52742
7.4037
7.28233
7.16327
7.04645
6.93185
6.81941
6.70909
6.60085
6.49465
6.39044
6.2882
6.18787
6.08942
5.99281
5.89801
5.80498
5.71367
5.62407
5.53613
5.44982
5.36511
5.28196
5.20034
5.12023
5.04159
4.96439
4.8886
4.8142
4.74116
4.66945
4.59904
4.5299
4.46202
4.39537
4.32991
4.26563
4.2025
4.14048
4.07954
4.01967
3.96083
3.90301
3.84619
3.79043
3.73586
3.68242
3.62996
3.57845
3.52788
3.47824
3.4295
3.38166
3.33469
13.1993
13.1134
13.0258
12.9367
12.8458
12.7532
12.6589
12.5628
12.465
12.3653
12.2638
12.1605
12.0552
11.9481
11.839
11.728
11.6149
11.4999
11.3828
11.2637
11.1424
11.0191
10.8936
10.7659
10.6361
10.504
10.3697
10.2331
10.0943
9.95308
9.80953
9.66362
9.5153
9.36457
9.21138
9.05708
8.90435
8.7545
8.60748
8.46324
8.32173
8.1829
8.04672
7.91313
7.78209
7.65354
7.52743
7.40371
7.28234
7.16327
7.04645
6.93184
6.8194
6.70908
6.60084
6.49463
6.39043
6.28818
6.18785
6.08939
5.99278
5.89798
5.80494
5.71364
5.62403
5.53609
5.44977
5.36506
5.28191
5.20029
5.12017
5.04153
4.96432
4.88854
4.81413
4.74109
4.66937
4.59896
4.52982
4.46194
4.39528
4.32982
4.26554
4.20239
4.14036
4.07942
4.01953
3.96068
3.90284
3.84604
3.79035
3.73585
3.68243
3.62997
3.57847
3.52791
3.47828
3.42956
3.38172
3.33476
13.1993
13.1134
13.0259
12.9367
12.8458
12.7533
12.6589
12.5629
12.465
12.3654
12.2639
12.1605
12.0553
11.9481
11.839
11.728
11.615
11.4999
11.3829
11.2637
11.1425
11.0191
10.8937
10.766
10.6362
10.5041
10.3698
10.2332
10.0943
9.95312
9.80958
9.66366
9.51535
9.36461
9.21142
9.05712
8.90439
8.75453
8.60751
8.46327
8.32176
8.18293
8.04675
7.91316
7.78211
7.65356
7.52745
7.40373
7.28236
7.16328
7.04646
6.93185
6.81941
6.70908
6.60084
6.49463
6.39042
6.28817
6.18784
6.08938
5.99277
5.89796
5.80492
5.71361
5.624
5.53606
5.44974
5.36502
5.28187
5.20024
5.12013
5.04148
4.96427
4.88848
4.81408
4.74103
4.66931
4.5989
4.52976
4.46187
4.39521
4.32974
4.26545
4.2023
4.14026
4.0793
4.0194
3.96054
3.9027
3.84591
3.79031
3.73587
3.68246
3.63001
3.57852
3.52797
3.47835
3.42963
3.3818
3.33485
13.1994
13.1135
13.026
12.9368
12.8459
12.7533
12.659
12.5629
12.4651
12.3654
12.2639
12.1606
12.0553
11.9482
11.8391
11.7281
11.615
11.5
11.3829
11.2638
11.1426
11.0192
10.8937
10.7661
10.6362
10.5041
10.3698
10.2333
10.0944
9.95318
9.80963
9.66372
9.5154
9.36466
9.21147
9.05717
8.90444
8.75458
8.60756
8.46331
8.3218
8.18298
8.04679
7.9132
7.78215
7.6536
7.52748
7.40376
7.28239
7.16331
7.04649
6.93188
6.81943
6.7091
6.60086
6.49465
6.39043
6.28818
6.18784
6.08938
5.99277
5.89796
5.80491
5.7136
5.62399
5.53604
5.44972
5.365
5.28184
5.20022
5.12009
5.04144
4.96424
4.88844
4.81403
4.74098
4.66926
4.59884
4.5297
4.46181
4.39515
4.32968
4.26537
4.20221
4.14016
4.07919
4.01928
3.96041
3.90257
3.84584
3.79031
3.73591
3.6825
3.63006
3.57858
3.52804
3.47843
3.42973
3.38191
3.33497
13.1994
13.1136
13.026
12.9368
12.846
12.7534
12.6591
12.563
12.4652
12.3655
12.264
12.1606
12.0554
11.9483
11.8392
11.7281
11.6151
11.5001
11.383
11.2639
11.1426
11.0193
10.8938
10.7661
10.6363
10.5042
10.3699
10.2333
10.0944
9.95325
9.8097
9.66378
9.51547
9.36473
9.21154
9.05723
8.9045
8.75464
8.60761
8.46337
8.32186
8.18303
8.04685
7.91325
7.7822
7.65365
7.52753
7.40381
7.28243
7.16335
7.04653
6.93191
6.81946
6.70913
6.60088
6.49467
6.39046
6.2882
6.18786
6.0894
5.99278
5.89796
5.80492
5.7136
5.62399
5.53604
5.44971
5.36499
5.28183
5.2002
5.12007
5.04142
4.96421
4.88841
4.814
4.74095
4.66923
4.5988
4.52966
4.46177
4.39509
4.32962
4.26531
4.20214
4.14007
4.07909
4.01917
3.96029
3.90246
3.84581
3.79036
3.73597
3.68256
3.63013
3.57867
3.52814
3.47854
3.42984
3.38204
3.3351
13.1995
13.1136
13.0261
12.9369
12.846
12.7535
12.6592
12.5631
12.4652
12.3656
12.2641
12.1607
12.0555
11.9483
11.8393
11.7282
11.6152
11.5002
11.3831
11.2639
11.1427
11.0194
10.8939
10.7662
10.6364
10.5043
10.37
10.2334
10.0945
9.95333
9.80978
9.66386
9.51554
9.3648
9.21161
9.05731
8.90457
8.75471
8.60769
8.46344
8.32193
8.1831
8.04691
7.91332
7.78227
7.65371
7.52759
7.40387
7.28249
7.16341
7.04658
6.93196
6.81951
6.70918
6.60093
6.49471
6.39049
6.28823
6.18789
6.08943
5.9928
5.89799
5.80494
5.71362
5.624
5.53605
5.44972
5.36499
5.28183
5.2002
5.12007
5.04141
4.9642
4.8884
4.81399
4.74093
4.6692
4.59878
4.52963
4.46173
4.39506
4.32957
4.26525
4.20207
4.14
4.079
4.01907
3.96019
3.9024
3.84583
3.79043
3.73605
3.68265
3.63023
3.57878
3.52826
3.47867
3.42998
3.38218
3.33526
13.2839
13.1996
13.1137
13.0262
12.937
12.8461
12.7536
12.6593
12.5632
12.4653
12.3657
12.2642
12.1608
12.0556
11.9484
11.8394
11.7283
11.6153
11.5003
11.3832
11.264
11.1428
11.0195
10.894
10.7663
10.6365
10.5044
10.3701
10.2335
10.0946
9.95342
9.80987
9.66395
9.51563
9.36489
9.2117
9.05739
8.90465
8.7548
8.60777
8.46352
8.32201
8.18318
8.047
7.9134
7.78235
7.65378
7.52766
7.40394
7.28256
7.16348
7.04665
6.93203
6.81957
6.70924
6.60098
6.49477
6.39054
6.28828
6.18794
6.08947
5.99284
5.89802
5.80497
5.71365
5.62403
5.53607
5.44974
5.36501
5.28184
5.20021
5.12008
5.04142
4.9642
4.8884
4.81398
4.74092
4.66919
4.59877
4.52962
4.46171
4.39503
4.32954
4.26521
4.20202
4.13993
4.07892
4.01898
3.9601
3.9024
3.84591
3.79053
3.73615
3.68276
3.63035
3.57891
3.5284
3.47882
3.43014
3.38236
3.33544
13.284
13.1997
13.1138
13.0263
12.9371
12.8462
12.7537
12.6594
12.5633
12.4654
12.3658
12.2643
12.1609
12.0557
11.9485
11.8395
11.7284
11.6154
11.5004
11.3833
11.2641
11.1429
11.0196
10.8941
10.7664
10.6366
10.5045
10.3702
10.2336
10.0947
9.95352
9.80997
9.66405
9.51573
9.36499
9.2118
9.05749
8.90475
8.75489
8.60786
8.46362
8.32211
8.18328
8.04709
7.91349
7.78244
7.65387
7.52775
7.40402
7.28264
7.16356
7.04673
6.9321
6.81965
6.70931
6.60105
6.49483
6.39061
6.28834
6.18799
6.08952
5.9929
5.89807
5.80502
5.71369
5.62407
5.53611
5.44977
5.36504
5.28187
5.20023
5.1201
5.04144
4.96422
4.88841
4.814
4.74093
4.6692
4.59877
4.52961
4.4617
4.39501
4.32952
4.26518
4.20197
4.13987
4.07885
4.0189
3.96006
3.90245
3.84603
3.79065
3.73627
3.6829
3.6305
3.57906
3.52857
3.479
3.43033
3.38255
3.33564
13.2841
13.1998
13.1139
13.0264
12.9372
12.8464
12.7538
12.6595
12.5634
12.4655
12.3659
12.2644
12.161
12.0558
11.9487
11.8396
11.7285
11.6155
11.5005
11.3834
11.2643
11.143
11.0197
10.8942
10.7665
10.6367
10.5046
10.3703
10.2337
10.0948
9.95363
9.81008
9.66416
9.51584
9.3651
9.21191
9.0576
8.90486
8.755
8.60797
8.46373
8.32221
8.18338
8.04719
7.9136
7.78254
7.65397
7.52785
7.40412
7.28274
7.16365
7.04682
6.93219
6.81973
6.7094
6.60114
6.49491
6.39069
6.28842
6.18807
6.08959
5.99296
5.89814
5.80508
5.71375
5.62412
5.53616
5.44982
5.36509
5.28191
5.20027
5.12014
5.04147
4.96425
4.88844
4.81402
4.74096
4.66922
4.59879
4.52962
4.46171
4.39501
4.32951
4.26516
4.20194
4.13982
4.07879
4.01885
3.96009
3.90256
3.84616
3.79078
3.73642
3.68306
3.63067
3.57924
3.52876
3.4792
3.43054
3.38277
13.2842
13.2
13.1141
13.0265
12.9374
12.8465
12.7539
12.6596
12.5635
12.4657
12.366
12.2645
12.1612
12.0559
11.9488
11.8397
11.7287
11.6156
11.5006
11.3835
11.2644
11.1431
11.0198
10.8943
10.7667
10.6368
10.5047
10.3704
10.2338
10.095
9.95375
9.8102
9.66428
9.51596
9.36522
9.21203
9.05772
8.90498
8.75512