/*--------------------------------*- C++ -*----------------------------------*\
  =========                 |
  \\      /  F ield         | OpenFOAM: The Open Source CFD Toolbox
   \\    /   O peration     | Website:  https://openfoam.org
    \\  /    A nd           | Version:  10
     \\/     M anipulation  |
\*---------------------------------------------------------------------------*/
FoamFile
{
    format      ascii;
    class       volSymmTensorField;
    location    "0";
    object      shearStress;
}
// * * * * * * * * * * * * * * * * * * * * * * * * * * * * * * * * * * * * * //

dimensions      [0 2 -2 0 0 0 0];

internalField   nonuniform List<symmTensor> 
13200
(
(0.00279089 0.000434874 -0 -0.000995554 -0 -0.00179533)
(-0.000273026 0.000409531 2.81155e-22 0.000546052 -2.37739e-22 -0.000273026)
(-0.000269749 0.000404615 -6.24176e-22 0.000539498 5.29793e-22 -0.000269749)
(-0.000266188 0.000399275 4.40573e-22 0.000532376 -3.80162e-22 -0.000266188)
(-0.00026233 0.000393488 -3.89258e-22 0.00052466 3.40982e-22 -0.00026233)
(-0.000258161 0.000387235 1.71699e-22 0.000516322 -1.51591e-22 -0.000258161)
(-0.000253671 0.000380501 -2.13179e-24 0.000507343 -1.37945e-24 -0.000253671)
(-0.000248851 0.000373271 -2.64209e-22 0.000497703 2.47521e-22 -0.000248852)
(-0.000243696 0.000365539 2.37052e-22 0.000487392 -2.15723e-22 -0.000243696)
(-0.000238203 0.000357299 2.04756e-22 0.000476406 -1.95742e-22 -0.000238203)
(-0.000232374 0.000348556 -0 0.000464748 -0 -0.000232374)
(-0.000226215 0.000339319 -0 0.00045243 -0 -0.000226215)
(-0.000219738 0.000329604 1.36265e-22 0.000439476 -1.45651e-22 -0.000219738)
(-0.000212958 0.000319436 -1.18371e-22 0.000425917 1.26524e-22 -0.000212959)
(-0.000205899 0.000308847 1.0271e-22 0.000411798 -1.17763e-22 -0.000205899)
(-0.000198586 0.000297879 6.48373e-26 0.000397171 -4.12748e-24 -0.000198586)
(-0.000191051 0.000286578 -7.6624e-23 0.000382102 9.13493e-23 -0.000191051)
(-0.000183332 0.000275001 -0 0.000366665 -0 -0.000183332)
(-0.00017547 0.000263208 -4.62802e-22 0.000350939 6.03253e-22 -0.00017547)
(-0.000167508 0.000251267 -3.96832e-22 0.000335015 5.42595e-22 -0.000167508)
(-0.000159909 0.000239868 -0 0.000319818 -0 -0.000159909)
(-0.00015336 0.000230042 -0 0.000306719 -0 -0.00015336)
(-0.000147963 0.000221946 -0 0.000295926 -0 -0.000147963)
(-0.000143464 0.000215197 2.37836e-22 0.000286929 -3.81559e-22 -0.000143464)
(-0.000139677 0.000209516 1.26058e-22 0.000279355 -2.16356e-22 -0.000139678)
(-0.000136464 0.000204695 -1.37402e-22 0.000272928 2.35826e-22 -0.000136464)
(-0.000133718 0.000200576 -0 0.000267436 -0 -0.000133718)
(-0.000131357 0.000197035 -3.29825e-22 0.000262715 6.01794e-22 -0.000131358)
(-0.000129318 0.000193976 3.62259e-22 0.000258637 -6.60973e-22 -0.000129318)
(-0.000127548 0.000191321 5.01625e-22 0.000255097 -9.35794e-22 -0.000127549)
(-0.000126007 0.000189009 -8.79657e-22 0.000252014 1.66322e-21 -0.000126007)
(-0.00012466 0.000186988 4.85543e-22 0.00024932 -9.23657e-22 -0.00012466)
(-0.000123479 0.000185217 -5.36911e-22 0.000246959 1.04245e-21 -0.00012348)
(-0.000122442 0.000183661 1.18811e-21 0.000244884 -2.31666e-21 -0.000122442)
(-0.000121528 0.00018229 -6.57908e-22 0.000243057 1.2883e-21 -0.000121528)
(-0.000120722 0.000181081 -0 0.000241444 -0 -0.000120722)
(-0.000120009 0.000180012 -0 0.000240019 -0 -0.00012001)
(-0.000119378 0.000179066 -5.7897e-23 0.000238757 1.12416e-22 -0.000119379)
(-0.000118819 0.000178227 -0 0.000237639 -0 -0.00011882)
(-0.000118323 0.000177482 1.14414e-21 0.000236646 -2.31702e-21 -0.000118323)
(0.0030553 0.000105726 -0 -0.00152766 -0 -0.00152764)
(1.42142e-05 -1.24164e-05 -0 -2.71981e-05 -0 1.29839e-05)
(1.42341e-05 -1.22783e-05 6.03879e-19 -2.72506e-05 -4.98099e-19 1.30165e-05)
(1.42576e-05 -1.21119e-05 -0 -2.73129e-05 -0 1.30553e-05)
(1.42851e-05 -1.19117e-05 -3.19316e-19 -2.73864e-05 2.68423e-19 1.31012e-05)
(1.43172e-05 -1.16716e-05 5.6575e-19 -2.74724e-05 -4.83202e-19 1.31552e-05)
(1.4354e-05 -1.13846e-05 2.4381e-19 -2.75724e-05 -2.17908e-19 1.32184e-05)
(1.43958e-05 -1.10423e-05 -2.15504e-19 -2.76876e-05 1.96412e-19 1.32917e-05)
(1.44427e-05 -1.06356e-05 -3.80586e-19 -2.78187e-05 3.54357e-19 1.3376e-05)
(1.44942e-05 -1.0154e-05 -6.90705e-19 -2.79661e-05 6.38961e-19 1.34718e-05)
(1.45496e-05 -9.58599e-06 6.00594e-19 -2.81291e-05 -5.85683e-19 1.35795e-05)
(1.46073e-05 -8.91886e-06 1.5767e-20 -2.8306e-05 8.84085e-22 1.36987e-05)
(1.46649e-05 -8.13893e-06 4.63914e-19 -2.84932e-05 -4.65284e-19 1.38283e-05)
(1.47189e-05 -7.2327e-06 -0 -2.86848e-05 -0 1.39659e-05)
(1.47641e-05 -6.18686e-06 1.44929e-18 -2.88719e-05 -1.54919e-18 1.41079e-05)
(1.47941e-05 -4.98934e-06 -6.23033e-19 -2.90427e-05 7.15795e-19 1.42486e-05)
(1.48004e-05 -3.63165e-06 5.4094e-19 -2.91812e-05 -6.21479e-19 1.43808e-05)
(1.47733e-05 -2.11026e-06 -0 -2.92682e-05 -0 1.44949e-05)
(1.47018e-05 -4.29216e-07 -4.51218e-19 -2.92814e-05 5.02615e-19 1.45796e-05)
(1.45749e-05 1.39788e-06 3.33922e-19 -2.91978e-05 -4.77673e-19 1.46229e-05)
(1.46859e-05 -1.50879e-07 -0 -2.92753e-05 -0 1.45894e-05)
(1.4802e-05 -3.9922e-06 -0 -2.91503e-05 -0 1.43483e-05)
(1.475e-05 -6.5771e-06 -0 -2.88066e-05 -0 1.40566e-05)
(1.46519e-05 -8.34017e-06 -1.17706e-18 -2.84473e-05 1.82761e-18 1.37954e-05)
(1.45522e-05 -9.56835e-06 1.6859e-18 -2.81345e-05 -2.69481e-18 1.35822e-05)
(1.4465e-05 -1.04422e-05 -9.16558e-19 -2.78794e-05 1.43898e-18 1.34144e-05)
(1.4393e-05 -1.10754e-05 1.5811e-21 -2.76771e-05 -3.39619e-20 1.32841e-05)
(1.43353e-05 -1.15414e-05 -1.05376e-18 -2.75187e-05 1.78829e-18 1.31834e-05)
(1.42896e-05 -1.1889e-05 -0 -2.73952e-05 -0 1.31056e-05)
(1.42536e-05 -1.2151e-05 -1.4149e-18 -2.7299e-05 2.51684e-18 1.30454e-05)
(1.42253e-05 -1.23503e-05 -1.44932e-21 -2.7224e-05 3.11314e-20 1.29987e-05)
(1.42029e-05 -1.25032e-05 1.52287e-18 -2.71654e-05 -2.73409e-18 1.29625e-05)
(1.41855e-05 -1.2621e-05 -0 -2.71196e-05 -0 1.29341e-05)
(1.41717e-05 -1.27124e-05 -0 -2.70837e-05 -0 1.2912e-05)
(1.41616e-05 -1.27836e-05 2.63562e-19 -2.70558e-05 -4.74331e-19 1.28943e-05)
(1.41519e-05 -1.28394e-05 2.27136e-18 -2.7033e-05 -4.2477e-18 1.28811e-05)
(1.41449e-05 -1.28832e-05 -2.51539e-18 -2.70154e-05 4.70408e-18 1.28705e-05)
(1.41407e-05 -1.29174e-05 8.47126e-20 -2.70021e-05 -1.64482e-19 1.28614e-05)
(1.41357e-05 -1.29446e-05 -0 -2.69908e-05 -0 1.28551e-05)
(1.43763e-05 -1.29484e-05 -5.2184e-20 -2.71031e-05 1.02266e-19 1.27268e-05)
(0.00304981 0.00017366 -1.30822e-21 -0.00152492 1.19509e-23 -0.00152489)
(1.49543e-05 -1.0661e-05 2.52788e-18 -2.80537e-05 -2.00259e-18 1.30994e-05)
(1.49652e-05 -1.05118e-05 -1.78253e-18 -2.8098e-05 1.45738e-18 1.31327e-05)
(1.49779e-05 -1.0332e-05 1.58982e-18 -2.81503e-05 -1.29151e-18 1.31723e-05)
(1.49924e-05 -1.01158e-05 3.48361e-19 -2.82116e-05 -2.92839e-19 1.32191e-05)
(1.50086e-05 -9.85672e-06 -1.24976e-18 -2.82828e-05 1.0532e-18 1.32742e-05)
(1.50265e-05 -9.54691e-06 2.21438e-18 -2.83648e-05 -1.91583e-18 1.33383e-05)
(1.50453e-05 -9.17782e-06 -1.95623e-18 -2.84579e-05 1.69248e-18 1.34126e-05)
(1.50646e-05 -8.7395e-06 -8.55192e-19 -2.85623e-05 7.90139e-19 1.34977e-05)
(1.50831e-05 -8.22083e-06 3.8084e-18 -2.86772e-05 -3.48304e-18 1.35941e-05)
(1.50988e-05 -7.60968e-06 2.60696e-21 -2.88006e-05 -3.41654e-20 1.37018e-05)
(1.51093e-05 -6.89287e-06 -1.16717e-18 -2.89294e-05 1.10546e-18 1.38201e-05)
(1.51104e-05 -6.05667e-06 -1.04186e-18 -2.90579e-05 1.013e-18 1.39475e-05)
(1.50975e-05 -5.08714e-06 1.85812e-18 -2.91784e-05 -1.86091e-18 1.40809e-05)
(1.50636e-05 -3.97147e-06 -1.57901e-18 -2.92797e-05 1.68785e-18 1.42161e-05)
(1.50009e-05 -2.69904e-06 -0 -2.93472e-05 -0 1.43463e-05)
(1.48995e-05 -1.26337e-06 -2.47735e-18 -2.93628e-05 2.75376e-18 1.44633e-05)
(1.47488e-05 3.35493e-07 -0 -2.93052e-05 -0 1.45563e-05)
(1.45378e-05 2.0889e-06 1.78918e-18 -2.91513e-05 -2.24079e-18 1.46135e-05)
(1.42567e-05 3.97737e-06 -7.82899e-19 -2.88787e-05 1.02958e-18 1.4622e-05)
(1.44986e-05 2.37783e-06 -3.73818e-21 -2.91169e-05 4.89905e-20 1.46183e-05)
(1.49298e-05 -1.64387e-06 7.87978e-19 -2.9365e-05 -1.08267e-18 1.44352e-05)
(1.50791e-05 -4.38749e-06 -1.70585e-18 -2.92468e-05 2.41888e-18 1.41677e-05)
(1.51119e-05 -6.27252e-06 8.69215e-19 -2.90273e-05 -1.32823e-18 1.39153e-05)
(1.51e-05 -7.59098e-06 2.27021e-20 -2.88046e-05 -1.84448e-20 1.37046e-05)
(1.50736e-05 -8.53106e-06 1.02657e-18 -2.86101e-05 -1.62533e-18 1.35364e-05)
(1.50445e-05 -9.21348e-06 -0 -2.84495e-05 -0 1.34051e-05)
(1.50179e-05 -9.71626e-06 1.23732e-18 -2.83208e-05 -1.96301e-18 1.33029e-05)
(1.49952e-05 -1.00914e-05 2.64382e-18 -2.82189e-05 -4.39488e-18 1.32237e-05)
(1.49762e-05 -1.03744e-05 -2.15059e-18 -2.81386e-05 3.5982e-18 1.31624e-05)
(1.49608e-05 -1.05898e-05 -8.14537e-19 -2.80755e-05 1.34374e-18 1.31147e-05)
(1.49483e-05 -1.07549e-05 -0 -2.80259e-05 -0 1.30776e-05)
(1.4938e-05 -1.08824e-05 4.94888e-19 -2.79868e-05 -8.32078e-19 1.30487e-05)
(1.49308e-05 -1.09809e-05 -4.81624e-18 -2.79565e-05 8.3826e-18 1.30257e-05)
(1.49246e-05 -1.10578e-05 1.00825e-20 -2.79325e-05 6.57473e-20 1.30079e-05)
(1.49193e-05 -1.11181e-05 5.22422e-18 -2.79134e-05 -9.18527e-18 1.2994e-05)
(1.49147e-05 -1.11654e-05 -0 -2.7898e-05 -0 1.29833e-05)
(1.49118e-05 -1.12026e-05 -2.06019e-19 -2.78863e-05 3.57516e-19 1.29744e-05)
(1.49113e-05 -1.12316e-05 -7.13609e-18 -2.78778e-05 1.28051e-17 1.29666e-05)
(1.50905e-05 -1.12339e-05 8.17518e-18 -2.79598e-05 -1.46583e-17 1.28693e-05)
(0.003042 0.000238852 -0 -0.00152101 -0 -0.00152099)
(1.55336e-05 -8.91284e-06 -1.12516e-18 -2.87426e-05 8.75388e-19 1.3209e-05)
(1.55348e-05 -8.75278e-06 -4.9426e-19 -2.87778e-05 3.93915e-19 1.32429e-05)
(1.55356e-05 -8.55993e-06 3.55132e-18 -2.88189e-05 -2.85033e-18 1.32833e-05)
(1.55356e-05 -8.32815e-06 -6.29683e-18 -2.88665e-05 5.09117e-18 1.33309e-05)
(1.55342e-05 -8.05039e-06 3.47844e-18 -2.89211e-05 -2.84483e-18 1.33868e-05)
(1.5531e-05 -7.71851e-06 -0 -2.89829e-05 -0 1.34519e-05)
(1.55246e-05 -7.32323e-06 -1.1068e-18 -2.90515e-05 9.28671e-19 1.35269e-05)
(1.55134e-05 -6.85421e-06 9.80911e-19 -2.9126e-05 -8.57212e-19 1.36126e-05)
(1.54954e-05 -6.2998e-06 -3.41723e-18 -2.92045e-05 3.02985e-18 1.37091e-05)
(1.54675e-05 -5.6473e-06 1.52271e-18 -2.92838e-05 -1.32925e-18 1.38163e-05)
(1.54259e-05 -4.88311e-06 1.32642e-18 -2.93589e-05 -1.21893e-18 1.3933e-05)
(1.53651e-05 -3.99341e-06 2.3684e-18 -2.94224e-05 -2.23419e-18 1.40573e-05)
(1.52791e-05 -2.96463e-06 -2.02388e-18 -2.94644e-05 2.02691e-18 1.41853e-05)
(1.51592e-05 -1.78473e-06 -0 -2.94711e-05 -0 1.4312e-05)
(1.49963e-05 -4.44655e-07 1.57342e-18 -2.9426e-05 -1.68738e-18 1.44296e-05)
(1.47793e-05 1.05906e-06 1.3278e-18 -2.93083e-05 -1.5293e-18 1.4529e-05)
(1.44977e-05 2.72262e-06 -1.21792e-18 -2.90959e-05 1.31045e-18 1.45982e-05)
(1.41407e-05 4.53187e-06 3.13044e-18 -2.87654e-05 -3.64563e-18 1.46246e-05)
(1.37008e-05 6.46134e-06 -0 -2.82963e-05 -0 1.45955e-05)
(1.40773e-05 4.82839e-06 8.40996e-19 -2.87013e-05 -1.10919e-18 1.4624e-05)
(1.48405e-05 6.61455e-07 -8.89587e-19 -2.93465e-05 1.17327e-18 1.45059e-05)
(1.52069e-05 -2.22409e-06 1.85727e-18 -2.9474e-05 -2.63359e-18 1.4267e-05)
(1.53826e-05 -4.22286e-06 2.02358e-18 -2.94087e-05 -2.92983e-18 1.40261e-05)
(1.54672e-05 -5.62732e-06 -4.32986e-18 -2.92863e-05 6.34209e-18 1.3819e-05)
(1.55075e-05 -6.63158e-06 -1.19638e-18 -2.9159e-05 1.78574e-18 1.36515e-05)
(1.55262e-05 -7.36142e-06 2.5366e-18 -2.90455e-05 -3.90183e-18 1.35193e-05)
(1.55339e-05 -7.89981e-06 -1.34095e-18 -2.895e-05 2.06218e-18 1.34161e-05)
(1.55364e-05 -8.30191e-06 8.03574e-21 -2.88721e-05 -7.65008e-20 1.33358e-05)
(1.55365e-05 -8.60523e-06 -4.11015e-18 -2.88098e-05 6.54567e-18 1.32733e-05)
(1.55352e-05 -8.83631e-06 8.88078e-19 -2.876e-05 -1.46506e-18 1.32247e-05)
(1.55335e-05 -9.01342e-06 1.02352e-18 -2.87204e-05 -1.62509e-18 1.3187e-05)
(1.55329e-05 -9.14984e-06 2.53055e-20 -2.86898e-05 2.6442e-21 1.31569e-05)
(1.55306e-05 -9.25615e-06 -4.28966e-18 -2.86646e-05 7.09722e-18 1.31341e-05)
(1.55288e-05 -9.33894e-06 5.75962e-18 -2.86449e-05 -9.51769e-18 1.31161e-05)
(1.55285e-05 -9.40328e-06 -3.82725e-19 -2.86299e-05 6.25371e-19 1.31014e-05)
(1.5528e-05 -9.45383e-06 6.21342e-18 -2.86179e-05 -1.05095e-17 1.30899e-05)
(1.55273e-05 -9.49371e-06 -1.40264e-17 -2.86083e-05 2.37446e-17 1.3081e-05)
(1.55247e-05 -9.5256e-06 1.66072e-17 -2.85996e-05 -2.82114e-17 1.30749e-05)
(1.56497e-05 -9.53037e-06 -9.64322e-18 -2.86551e-05 1.64225e-17 1.30054e-05)
(0.00303216 0.000301368 -8.49216e-23 -0.00151609 -2.05312e-21 -0.00151607)
(1.59637e-05 -7.18484e-06 6.1971e-19 -2.92765e-05 -4.76267e-19 1.33128e-05)
(1.59541e-05 -7.01423e-06 4.45364e-18 -2.93014e-05 -3.44126e-18 1.33474e-05)
(1.59417e-05 -6.80876e-06 -4.94744e-18 -2.93301e-05 3.81838e-18 1.33884e-05)
(1.59258e-05 -6.5619e-06 -1.77203e-18 -2.93626e-05 1.37993e-18 1.34368e-05)
(1.59055e-05 -6.26609e-06 3.11271e-18 -2.93989e-05 -2.51091e-18 1.34934e-05)
(1.58792e-05 -5.91286e-06 -2.75266e-18 -2.94383e-05 2.22048e-18 1.35591e-05)
(1.58451e-05 -5.49248e-06 -1.26049e-18 -2.94797e-05 1.00493e-18 1.36346e-05)
(1.58007e-05 -4.99399e-06 -2.1608e-18 -2.95212e-05 1.8438e-18 1.37205e-05)
(1.5743e-05 -4.40528e-06 1.9043e-18 -2.95597e-05 -1.62493e-18 1.38167e-05)
(1.56676e-05 -3.71337e-06 -1.66332e-18 -2.95904e-05 1.48876e-18 1.39228e-05)
(1.55695e-05 -2.90452e-06 -0 -2.96067e-05 -0 1.40372e-05)
(1.54417e-05 -1.96492e-06 6.52273e-20 -2.9599e-05 8.61637e-21 1.41574e-05)
(1.52767e-05 -8.81334e-07 -2.32309e-18 -2.95554e-05 2.19169e-18 1.42787e-05)
(1.50646e-05 3.56688e-07 4.07182e-18 -2.94598e-05 -3.96136e-18 1.43952e-05)
(1.47948e-05 1.75596e-06 -3.5574e-18 -2.92931e-05 3.57648e-18 1.44983e-05)
(1.44561e-05 3.31693e-06 -0 -2.90335e-05 -0 1.45774e-05)
(1.40375e-05 5.03103e-06 2.60388e-18 -2.86576e-05 -2.90845e-18 1.46201e-05)
(1.35304e-05 6.87866e-06 -1.00202e-18 -2.81435e-05 1.35054e-18 1.46131e-05)
(1.29302e-05 8.82806e-06 -7.90981e-21 -2.74738e-05 5.95434e-20 1.45436e-05)
(1.34423e-05 7.17969e-06 -9.48493e-19 -2.80488e-05 1.25079e-18 1.46065e-05)
(1.45496e-05 2.90519e-06 6.08537e-18 -2.91097e-05 -7.71378e-18 1.45601e-05)
(1.51467e-05 -1.03746e-07 -4.3537e-18 -2.95012e-05 5.69269e-18 1.43544e-05)
(1.54765e-05 -2.20677e-06 2.32646e-18 -2.96039e-05 -3.12542e-18 1.41274e-05)
(1.56657e-05 -3.69206e-06 -0 -2.95913e-05 -0 1.39257e-05)
(1.57789e-05 -4.75708e-06 -1.0198e-19 -2.95384e-05 -1.34873e-20 1.37595e-05)
(1.58491e-05 -5.53299e-06 -1.46561e-18 -2.94762e-05 2.09337e-18 1.36272e-05)
(1.58945e-05 -6.10591e-06 -0 -2.94176e-05 -0 1.3523e-05)
(1.59246e-05 -6.53399e-06 3.43274e-18 -2.93664e-05 -5.19207e-18 1.34418e-05)
(1.59453e-05 -6.85721e-06 -3.75434e-18 -2.93237e-05 5.6785e-18 1.33784e-05)
(1.59602e-05 -7.10318e-06 -0 -2.9289e-05 -0 1.33288e-05)
(1.59702e-05 -7.29209e-06 3.44636e-18 -2.92606e-05 -5.34065e-18 1.32904e-05)
(1.59778e-05 -7.43787e-06 -1.06751e-17 -2.9238e-05 1.673e-17 1.32602e-05)
(1.59836e-05 -7.55079e-06 5.55521e-18 -2.922e-05 -8.72853e-18 1.32364e-05)
(1.5988e-05 -7.63875e-06 3.27978e-20 -2.92058e-05 4.33859e-21 1.32177e-05)
(1.5991e-05 -7.70776e-06 1.2876e-18 -2.91942e-05 -2.03938e-18 1.32032e-05)
(1.59934e-05 -7.76191e-06 -7.1042e-18 -2.91851e-05 1.14115e-17 1.31917e-05)
(1.59948e-05 -7.80457e-06 7.87364e-18 -2.91776e-05 -1.26435e-17 1.31828e-05)
(1.59982e-05 -7.83772e-06 -8.79945e-19 -2.91728e-05 1.41303e-18 1.31746e-05)
(1.60611e-05 -7.85193e-06 3.16503e-19 -2.91982e-05 -5.26509e-19 1.31371e-05)
(0.00302054 0.00036128 -3.37179e-21 -0.00151028 3.3031e-22 -0.00151026)
(1.62557e-05 -5.48827e-06 5.56053e-18 -2.96667e-05 -4.10267e-18 1.3411e-05)
(1.62343e-05 -5.30753e-06 4.94951e-18 -2.96805e-05 -3.73392e-18 1.34461e-05)
(1.62077e-05 -5.08981e-06 1.09516e-18 -2.96955e-05 -8.83931e-19 1.34878e-05)
(1.61749e-05 -4.82826e-06 3.76264e-21 -2.97116e-05 -2.35486e-20 1.35367e-05)
(1.6134e-05 -4.51514e-06 -1.74675e-18 -2.97278e-05 1.34748e-18 1.35939e-05)
(1.60826e-05 -4.14145e-06 -0 -2.97427e-05 -0 1.36602e-05)
(1.60188e-05 -3.69685e-06 2.68683e-18 -2.97547e-05 -2.197e-18 1.37359e-05)
(1.59384e-05 -3.17024e-06 2.40628e-18 -2.97602e-05 -2.00051e-18 1.38217e-05)
(1.58379e-05 -2.54909e-06 -2.12042e-18 -2.9755e-05 1.76286e-18 1.39172e-05)
(1.57112e-05 -1.82014e-06 3.75788e-18 -2.97329e-05 -3.26813e-18 1.40216e-05)
(1.55524e-05 -9.69524e-07 -3.30046e-18 -2.96852e-05 2.87032e-18 1.41328e-05)
(1.5353e-05 1.61053e-08 -2.87714e-18 -2.96007e-05 2.63778e-18 1.42477e-05)
(1.51036e-05 1.14886e-06 -2.64911e-18 -2.94647e-05 2.3638e-18 1.43611e-05)
(1.4794e-05 2.43816e-06 -2.17789e-18 -2.92595e-05 2.11655e-18 1.44655e-05)
(1.44116e-05 3.88771e-06 5.87182e-18 -2.89636e-05 -5.84816e-18 1.4552e-05)
(1.39459e-05 5.49417e-06 6.88884e-18 -2.85545e-05 -6.95645e-18 1.46085e-05)
(1.33868e-05 7.24393e-06 7.4369e-18 -2.80088e-05 -7.84066e-18 1.4622e-05)
(1.27278e-05 9.11167e-06 -6.24206e-18 -2.73066e-05 6.96537e-18 1.45788e-05)
(1.19684e-05 1.10598e-05 6.59386e-18 -2.64353e-05 -7.37492e-18 1.44669e-05)
(1.26149e-05 9.41404e-06 1.05541e-17 -2.71809e-05 -1.24358e-17 1.4566e-05)
(1.4073e-05 5.07155e-06 -2.16842e-18 -2.86706e-05 2.7522e-18 1.45976e-05)
(1.49124e-05 1.95933e-06 2.33494e-18 -2.93421e-05 -3.15543e-18 1.44297e-05)
(1.54062e-05 -2.37572e-07 -2.53178e-18 -2.96256e-05 3.40124e-18 1.42194e-05)
(1.57077e-05 -1.79781e-06 2.77803e-18 -2.97321e-05 -3.78619e-18 1.40244e-05)
(1.58992e-05 -2.92058e-06 2.95643e-18 -2.97598e-05 -4.2248e-18 1.38606e-05)
(1.60255e-05 -3.73983e-06 -4.90703e-18 -2.9754e-05 6.82308e-18 1.37285e-05)
(1.61116e-05 -4.34545e-06 1.73318e-18 -2.97355e-05 -2.47913e-18 1.36239e-05)
(1.61716e-05 -4.79874e-06 -1.97636e-18 -2.97135e-05 2.78819e-18 1.35419e-05)
(1.62145e-05 -5.14123e-06 -0 -2.96923e-05 -0 1.34778e-05)
(1.62461e-05 -5.40197e-06 4.69264e-18 -2.96736e-05 -6.94121e-18 1.34275e-05)
(1.62696e-05 -5.60195e-06 -5.15852e-18 -2.96578e-05 7.63031e-18 1.33882e-05)
(1.62869e-05 -5.75643e-06 -4.25699e-18 -2.96444e-05 6.45275e-18 1.33576e-05)
(1.63006e-05 -5.87619e-06 1.89278e-17 -2.96338e-05 -2.85771e-17 1.33332e-05)
(1.63105e-05 -5.96978e-06 -1.39176e-17 -2.96249e-05 2.11166e-17 1.33144e-05)
(1.63178e-05 -6.04299e-06 3.81383e-20 -2.96176e-05 6.07154e-21 1.32997e-05)
(1.63249e-05 -6.09997e-06 1.60844e-17 -2.96123e-05 -2.47669e-17 1.32874e-05)
(1.63287e-05 -6.14531e-06 -3.81064e-17 -2.96074e-05 5.87035e-17 1.32786e-05)
(1.63328e-05 -6.18087e-06 6.22355e-19 -2.96039e-05 -8.63753e-19 1.32711e-05)
(1.63432e-05 -6.20721e-06 2.27543e-17 -2.96046e-05 -3.528e-17 1.32613e-05)
(0.00300739 0.000418665 1.76325e-21 -0.00150371 -1.26546e-21 -0.00150369)
(1.64212e-05 -3.83224e-06 -0 -2.99249e-05 -0 1.35037e-05)
(1.63874e-05 -3.64164e-06 4.10726e-18 -2.99267e-05 -3.04467e-18 1.35393e-05)
(1.63454e-05 -3.41227e-06 -4.86941e-18 -2.9927e-05 3.58905e-18 1.35816e-05)
(1.62942e-05 -3.13674e-06 4.03875e-20 -2.99252e-05 7.47703e-21 1.3631e-05)
(1.62312e-05 -2.80692e-06 -1.94294e-18 -2.99198e-05 1.48637e-18 1.36885e-05)
(1.61531e-05 -2.4137e-06 3.39992e-18 -2.99082e-05 -2.61176e-18 1.37552e-05)
(1.60573e-05 -1.9462e-06 -0 -2.98882e-05 -0 1.38309e-05)
(1.59385e-05 -1.39303e-06 2.69653e-18 -2.98548e-05 -2.13852e-18 1.39163e-05)
(1.57921e-05 -7.41302e-07 -0 -2.98026e-05 -0 1.40105e-05)
(1.5611e-05 2.22572e-08 -0 -2.97235e-05 -0 1.41125e-05)
(1.53873e-05 9.11218e-07 -0 -2.96072e-05 -0 1.42199e-05)
(1.51121e-05 1.93861e-06 -0 -2.94403e-05 -0 1.43283e-05)
(1.47737e-05 3.11508e-06 5.62306e-18 -2.92059e-05 -5.15783e-18 1.44322e-05)
(1.43614e-05 4.44796e-06 -2.49804e-18 -2.88844e-05 2.36399e-18 1.4523e-05)
(1.38623e-05 5.93786e-06 -2.12839e-18 -2.84529e-05 2.14129e-18 1.45906e-05)
(1.32659e-05 7.57719e-06 -7.45512e-18 -2.78881e-05 7.52828e-18 1.46221e-05)
(1.25643e-05 9.3472e-06 -6.43714e-18 -2.7168e-05 6.73995e-18 1.46038e-05)
(1.17541e-05 1.12165e-05 -0 -2.62763e-05 -0 1.45222e-05)
(1.084e-05 1.31422e-05 -9.40731e-18 -2.5206e-05 1.06552e-17 1.4366e-05)
(1.16169e-05 1.15171e-05 -1.61904e-17 -2.61196e-05 1.87174e-17 1.45028e-05)
(1.34274e-05 7.14719e-06 7.49715e-20 -2.80456e-05 1.3943e-20 1.46182e-05)
(1.45182e-05 3.9538e-06 -2.23676e-20 -2.90107e-05 1.20334e-19 1.44925e-05)
(1.51847e-05 1.67461e-06 2.88353e-18 -2.94866e-05 -3.61781e-18 1.43019e-05)
(1.56055e-05 4.56427e-08 -0 -2.97209e-05 -0 1.41154e-05)
(1.58809e-05 -1.13079e-06 -3.38235e-18 -2.98356e-05 4.51704e-18 1.39548e-05)
(1.60669e-05 -1.99124e-06 7.33071e-18 -2.98905e-05 -9.86724e-18 1.38236e-05)
(1.61965e-05 -2.62854e-06 -2.02447e-18 -2.99153e-05 2.67543e-18 1.37188e-05)
(1.62887e-05 -3.10571e-06 6.53974e-18 -2.9925e-05 -9.14258e-18 1.36363e-05)
(1.63559e-05 -3.46624e-06 -2.35328e-18 -2.99273e-05 3.32365e-18 1.35714e-05)
(1.64056e-05 -3.74112e-06 -0 -2.99261e-05 -0 1.35205e-05)
(1.64425e-05 -3.95228e-06 -1.48444e-18 -2.99233e-05 2.07419e-18 1.34808e-05)
(1.64707e-05 -4.11517e-06 -1.61282e-17 -2.99203e-05 2.32352e-17 1.34495e-05)
(1.6492e-05 -4.24162e-06 1.6053e-17 -2.99171e-05 -2.30999e-17 1.34251e-05)
(1.65094e-05 -4.33978e-06 1.38294e-17 -2.99148e-05 -2.01898e-17 1.34054e-05)
(1.65224e-05 -4.41682e-06 -3.60685e-17 -2.99125e-05 5.28013e-17 1.33901e-05)
(1.65313e-05 -4.47781e-06 2.05856e-17 -2.991e-05 -3.02337e-17 1.33786e-05)
(1.65387e-05 -4.52566e-06 -6.85737e-19 -2.99081e-05 9.9171e-19 1.33694e-05)
(1.65448e-05 -4.56316e-06 7.61783e-19 -2.99067e-05 -1.10579e-18 1.33619e-05)
(1.65031e-05 -4.60592e-06 2.74362e-17 -2.98835e-05 -4.08825e-17 1.33804e-05)
(0.00299292 0.000473601 2.80906e-21 -0.00149647 -1.97725e-21 -0.00149645)
(1.64715e-05 -2.224e-06 -6.82807e-18 -3.00626e-05 4.81603e-18 1.35912e-05)
(1.64243e-05 -2.02402e-06 -4.57662e-18 -3.00514e-05 3.29206e-18 1.36272e-05)
(1.63662e-05 -1.78344e-06 -1.20341e-20 -3.0036e-05 5.69735e-20 1.36698e-05)
(1.62952e-05 -1.49471e-06 2.41295e-18 -3.0015e-05 -1.72885e-18 1.37198e-05)
(1.62088e-05 -1.14907e-06 -0 -2.99863e-05 -0 1.37775e-05)
(1.61021e-05 -7.37308e-07 -3.78045e-18 -2.99464e-05 2.8833e-18 1.38443e-05)
(1.59724e-05 -2.48126e-07 3.36428e-18 -2.9892e-05 -2.51307e-18 1.39197e-05)
(1.58128e-05 3.29935e-07 5.95672e-18 -2.9817e-05 -4.66332e-18 1.40043e-05)
(1.56177e-05 1.01006e-06 -1.05169e-17 -2.97145e-05 8.31431e-18 1.40968e-05)
(1.53789e-05 1.8054e-06 4.67305e-18 -2.95746e-05 -3.77128e-18 1.41958e-05)
(1.5087e-05 2.72917e-06 -0 -2.93852e-05 -0 1.42982e-05)
(1.47316e-05 3.79352e-06 7.2596e-18 -2.91307e-05 -6.14729e-18 1.43992e-05)
(1.43006e-05 5.00748e-06 -3.16508e-18 -2.87925e-05 2.82788e-18 1.44919e-05)
(1.37814e-05 6.37568e-06 -2.83131e-18 -2.83488e-05 2.53869e-18 1.45674e-05)
(1.31624e-05 7.89576e-06 -7.3215e-18 -2.77763e-05 6.69043e-18 1.46139e-05)
(1.24333e-05 9.55502e-06 -2.07992e-18 -2.70514e-05 1.97681e-18 1.46181e-05)
(1.15894e-05 1.13294e-05 -7.29384e-18 -2.61549e-05 7.1981e-18 1.45655e-05)
(1.06307e-05 1.3182e-05 3.10395e-18 -2.50743e-05 -3.28466e-18 1.44436e-05)
(9.56866e-06 1.50652e-05 3.07244e-20 -2.38106e-05 -1.4546e-19 1.42419e-05)
(1.04703e-05 1.34776e-05 7.551e-18 -2.48876e-05 -8.70896e-18 1.44173e-05)
(1.26295e-05 9.1212e-06 3.01525e-18 -2.72513e-05 -3.13067e-18 1.46218e-05)
(1.3978e-05 5.86934e-06 3.00066e-18 -2.8521e-05 -3.53905e-18 1.4543e-05)
(1.4825e-05 3.52022e-06 3.25539e-18 -2.91998e-05 -4.03677e-18 1.43749e-05)
(1.53715e-05 1.82956e-06 -3.48436e-18 -2.95701e-05 4.32071e-18 1.41985e-05)
(1.57356e-05 6.03627e-07 -0 -2.97778e-05 -0 1.40422e-05)
(1.59852e-05 -2.95634e-07 -4.13085e-18 -2.98977e-05 5.39844e-18 1.39125e-05)
(1.6161e-05 -9.62367e-07 8.99389e-18 -2.9969e-05 -1.18322e-17 1.3808e-05)
(1.62877e-05 -1.46186e-06 -7.41617e-18 -3.00127e-05 9.77953e-18 1.3725e-05)
(1.63801e-05 -1.84016e-06 -1.35031e-17 -3.00399e-05 1.83247e-17 1.36598e-05)
(1.64494e-05 -2.12843e-06 -4.30883e-20 -3.00576e-05 2.03994e-19 1.36083e-05)
(1.65009e-05 -2.34994e-06 1.47326e-17 -3.0069e-05 -2.01704e-17 1.35681e-05)
(1.6541e-05 -2.52074e-06 1.63206e-17 -3.00771e-05 -2.26621e-17 1.35361e-05)
(1.65707e-05 -2.65369e-06 -1.80112e-17 -3.00822e-05 2.50284e-17 1.35115e-05)
(1.65943e-05 -2.75717e-06 1.09295e-18 -3.0086e-05 -1.55842e-18 1.34918e-05)
(1.66125e-05 -2.83808e-06 1.25296e-18 -3.00888e-05 -1.72796e-18 1.34763e-05)
(1.66266e-05 -2.90163e-06 -0 -3.00907e-05 -0 1.34641e-05)
(1.66384e-05 -2.95137e-06 7.46143e-19 -3.00925e-05 -1.07907e-18 1.34541e-05)
(1.66466e-05 -2.99108e-06 2.61757e-17 -3.00933e-05 -3.73024e-17 1.34467e-05)
(1.65524e-05 -3.05515e-06 -2.90216e-17 -3.00469e-05 4.14059e-17 1.34944e-05)
(0.00297733 0.000526172 -9.93545e-22 -0.00148868 6.75464e-22 -0.00148866)
(1.64175e-05 -6.69585e-07 1.90429e-18 -3.0091e-05 -1.30701e-18 1.36736e-05)
(1.6356e-05 -4.60699e-07 -3.38733e-18 -3.0066e-05 2.34934e-18 1.371e-05)
(1.62809e-05 -2.09404e-07 -5.98067e-18 -3.00338e-05 4.26765e-18 1.37529e-05)
(1.61894e-05 9.21137e-08 2.62398e-18 -2.99924e-05 -1.88067e-18 1.3803e-05)
(1.60778e-05 4.52568e-07 -0 -2.99388e-05 -0 1.3861e-05)
(1.59412e-05 8.81725e-07 -0 -2.98688e-05 -0 1.39276e-05)
(1.57753e-05 1.39104e-06 -7.40693e-18 -2.97778e-05 5.56909e-18 1.40025e-05)
(1.55729e-05 1.99233e-06 -0 -2.96586e-05 -0 1.40857e-05)
(1.53263e-05 2.69844e-06 5.75053e-18 -2.95024e-05 -4.54246e-18 1.41761e-05)
(1.50269e-05 3.52269e-06 -5.07929e-18 -2.92982e-05 4.09912e-18 1.42713e-05)
(1.46635e-05 4.47738e-06 -0 -2.90314e-05 -0 1.43679e-05)
(1.42246e-05 5.57341e-06 -7.88237e-18 -2.86848e-05 6.67465e-18 1.44602e-05)
(1.36972e-05 6.81839e-06 -3.50515e-18 -2.82377e-05 3.05167e-18 1.45404e-05)
(1.30686e-05 8.2138e-06 6.02535e-18 -2.76671e-05 -5.31433e-18 1.45985e-05)
(1.23273e-05 9.75303e-06 1.31845e-17 -2.69491e-05 -1.2098e-17 1.46218e-05)
(1.14652e-05 1.14188e-05 -0 -2.60616e-05 -0 1.45964e-05)
(1.04807e-05 1.31816e-05 1.81846e-18 -2.49884e-05 -2.01815e-18 1.45077e-05)
(9.37947e-06 1.49994e-05 -1.20121e-17 -2.37231e-05 1.18281e-17 1.43436e-05)
(8.17832e-06 1.68213e-05 -5.76018e-18 -2.22742e-05 6.03468e-18 1.40959e-05)
(9.19658e-06 1.52873e-05 2.7991e-18 -2.35068e-05 -2.98878e-18 1.43102e-05)
(1.16961e-05 1.09848e-05 -1.22511e-17 -2.63043e-05 1.39959e-17 1.46082e-05)
(1.33055e-05 7.69827e-06 -6.80706e-18 -2.78866e-05 7.75147e-18 1.4581e-05)
(1.43395e-05 5.29253e-06 -0 -2.87778e-05 -0 1.44383e-05)
(1.50176e-05 3.5478e-06 -0 -2.92916e-05 -0 1.4274e-05)
(1.54747e-05 2.27664e-06 -0 -2.95978e-05 -0 1.41231e-05)
(1.57917e-05 1.34215e-06 -0 -2.9787e-05 -0 1.39953e-05)
(1.60164e-05 6.47332e-07 5.95789e-20 -2.99078e-05 7.65823e-20 1.38915e-05)
(1.6179e-05 1.25869e-07 -2.84375e-18 -2.99875e-05 3.71231e-18 1.38085e-05)
(1.62989e-05 -2.68666e-07 -5.29615e-20 -3.00417e-05 2.24561e-19 1.37427e-05)
(1.63886e-05 -5.699e-07 9.95036e-18 -3.00794e-05 -1.30447e-17 1.36908e-05)
(1.64558e-05 -8.01389e-07 3.74326e-18 -3.0106e-05 -4.85936e-18 1.36502e-05)
(1.65076e-05 -9.7985e-07 1.42556e-17 -3.01256e-05 -1.9099e-17 1.3618e-05)
(1.65472e-05 -1.11864e-06 -3.6069e-17 -3.01399e-05 4.83215e-17 1.35927e-05)
(1.65774e-05 -1.2271e-06 1.99529e-17 -3.01504e-05 -2.6811e-17 1.3573e-05)
(1.66012e-05 -1.31172e-06 -2.35384e-17 -3.01585e-05 3.19784e-17 1.35573e-05)
(1.66208e-05 -1.3777e-06 -4.88012e-20 -3.01651e-05 2.06921e-19 1.35443e-05)
(1.66347e-05 -1.43024e-06 2.90032e-17 -3.01696e-05 -3.94934e-17 1.35349e-05)
(1.66452e-05 -1.47186e-06 -9.62603e-19 -3.01728e-05 1.29508e-18 1.35276e-05)
(1.65085e-05 -1.55728e-06 -2.10693e-18 -3.01087e-05 2.89619e-18 1.36002e-05)
(0.00296079 0.00057646 -7.38616e-22 -0.0014804 2.78247e-21 -0.00148038)
(1.62698e-05 8.26777e-07 -2.07055e-18 -3.00208e-05 1.42112e-18 1.37511e-05)
(1.61935e-05 1.04409e-06 1.11145e-17 -2.99812e-05 -7.68311e-18 1.37877e-05)
(1.61003e-05 1.30543e-06 -6.58986e-18 -2.99312e-05 4.54785e-18 1.38309e-05)
(1.59871e-05 1.61886e-06 8.77937e-18 -2.98682e-05 -6.22064e-18 1.38811e-05)
(1.5849e-05 1.99319e-06 -5.19664e-18 -2.97881e-05 3.67713e-18 1.39391e-05)
(1.56811e-05 2.43873e-06 -4.65502e-18 -2.96863e-05 3.3311e-18 1.40053e-05)
(1.54772e-05 2.96675e-06 4.06087e-18 -2.95565e-05 -3.01895e-18 1.40793e-05)
(1.52296e-05 3.58929e-06 -7.31237e-18 -2.93905e-05 5.4125e-18 1.41609e-05)
(1.49295e-05 4.31911e-06 6.43224e-18 -2.9178e-05 -4.95714e-18 1.42485e-05)
(1.45665e-05 5.16888e-06 -5.6531e-18 -2.89057e-05 4.35668e-18 1.43393e-05)
(1.41287e-05 6.15042e-06 -0 -2.85577e-05 -0 1.4429e-05)
(1.36035e-05 7.27311e-06 -4.46318e-18 -2.81147e-05 3.51321e-18 1.45113e-05)
(1.29769e-05 8.54191e-06 3.94509e-18 -2.75544e-05 -3.27072e-18 1.45775e-05)
(1.22366e-05 9.95545e-06 -1.02345e-17 -2.68529e-05 8.63223e-18 1.46163e-05)
(1.13722e-05 1.15029e-05 1.1882e-17 -2.59866e-05 -1.04936e-17 1.46144e-05)
(1.03781e-05 1.31618e-05 1.02854e-17 -2.49353e-05 -9.37596e-18 1.45572e-05)
(9.25697e-06 1.48975e-05 6.46758e-18 -2.36874e-05 -6.27102e-18 1.44304e-05)
(8.02058e-06 1.66636e-05 2.97815e-17 -2.22435e-05 -2.92159e-17 1.4223e-05)
(6.69162e-06 1.84066e-05 -0 -2.06206e-05 -0 1.3929e-05)
(7.81692e-06 1.69408e-05 -3.11257e-18 -2.19994e-05 3.34395e-18 1.41825e-05)
(1.06432e-05 1.27313e-05 3.41206e-18 -2.52209e-05 -3.66571e-18 1.45778e-05)
(1.25149e-05 9.43442e-06 7.37229e-18 -2.71213e-05 -8.39514e-18 1.46064e-05)
(1.37404e-05 6.98572e-06 8.17266e-18 -2.82327e-05 -9.24045e-18 1.44923e-05)
(1.45553e-05 5.19469e-06 -4.46038e-18 -2.88971e-05 5.01684e-18 1.43418e-05)
(1.511e-05 3.88314e-06 -4.71987e-18 -2.93072e-05 5.58373e-18 1.41973e-05)
(1.5497e-05 2.91554e-06 5.22826e-18 -2.95695e-05 -6.2309e-18 1.40724e-05)
(1.57736e-05 2.19556e-06 -5.56153e-18 -2.97429e-05 6.94041e-18 1.39693e-05)
(1.59741e-05 1.65397e-06 -0 -2.98608e-05 -0 1.38867e-05)
(1.61222e-05 1.24349e-06 -0 -2.99431e-05 -0 1.38209e-05)
(1.62339e-05 9.30922e-07 3.68852e-18 -3.00023e-05 -4.74984e-18 1.37684e-05)
(1.63178e-05 6.90197e-07 -2.06137e-17 -3.00451e-05 2.64767e-17 1.37273e-05)
(1.63813e-05 5.03573e-07 2.27843e-17 -3.00765e-05 -2.92066e-17 1.36952e-05)
(1.64311e-05 3.59347e-07 -0 -3.01005e-05 -0 1.36694e-05)
(1.64697e-05 2.4712e-07 -0 -3.01187e-05 -0 1.3649e-05)
(1.64992e-05 1.58807e-07 -1.57334e-18 -3.01324e-05 2.0208e-18 1.36332e-05)
(1.65222e-05 8.92944e-08 -0 -3.0143e-05 -0 1.36208e-05)
(1.65411e-05 3.49575e-08 -3.44391e-17 -3.01515e-05 4.54473e-17 1.36104e-05)
(1.65542e-05 -8.60262e-09 3.71616e-17 -3.01574e-05 -4.90323e-17 1.36032e-05)
(1.63764e-05 -1.18719e-07 3.77799e-17 -3.00772e-05 -5.02266e-17 1.37008e-05)
(0.00294346 0.000624548 1.09033e-21 -0.00147174 -7.26155e-22 -0.00147172)
(1.60388e-05 2.26185e-06 -0 -2.98624e-05 -0 1.38237e-05)