/*--------------------------------*- C++ -*----------------------------------*\
  =========                 |
  \\      /  F ield         | OpenFOAM: The Open Source CFD Toolbox
   \\    /   O peration     | Website:  https://openfoam.org
    \\  /    A nd           | Version:  10
     \\/     M anipulation  |
\*---------------------------------------------------------------------------*/
FoamFile
{
    format      ascii;
    class       volSymmTensorField;
    location    "0";
    object      shearStress;
}
// * * * * * * * * * * * * * * * * * * * * * * * * * * * * * * * * * * * * * //

dimensions      [0 2 -2 0 0 0 0];

internalField   nonuniform List<symmTensor> 
20625
(
(-0.000673602 -0.00386765 -0 0.00124348 -0 -0.000569876)
(-0.000400372 -0.00765253 -1.41208e-18 0.000990711 5.61469e-17 -0.000590339)
(-0.000318443 -0.00758739 -2.58978e-18 0.000825309 1.02973e-16 -0.000506866)
(-0.000231066 -0.00751229 2.37484e-18 0.000648707 -9.4426e-17 -0.000417641)
(-0.000138019 -0.00742592 -2.19099e-18 0.000460502 1.74256e-16 -0.000322483)
(-3.91715e-05 -0.00732684 3.99455e-18 0.000260323 -3.17698e-16 -0.000221151)
(6.57034e-05 -0.00721349 -1.81889e-18 4.77599e-05 1.44661e-16 -0.000113463)
(0.000176661 -0.00708419 -3.35856e-18 -0.000177441 1.33534e-16 7.8036e-07)
(0.000294016 -0.00693715 -0 -0.000415749 -0 0.000121732)
(0.000417614 -0.00677049 -5.67288e-18 -0.000667116 3.38836e-16 0.000249501)
(0.00054754 -0.00658224 2.56647e-18 -0.000931681 -2.04107e-16 0.000384141)
(0.000683811 -0.00637036 -0 -0.00120948 -0 0.000525672)
(0.000826254 -0.00613282 -0 -0.00150035 -0 0.000674092)
(0.000974918 -0.00586756 -0 -0.00180424 -0 0.000829319)
(0.00112925 -0.00557261 -0 -0.00212034 -0 0.000991087)
(0.00128939 -0.00524606 -0 -0.00244885 -0 0.00115946)
(0.00145516 -0.00488617 -0 -0.00278927 -0 0.00133411)
(0.0016256 -0.00449143 -0 -0.00314003 -0 0.00151443)
(0.00180025 -0.00406058 -0 -0.0035002 -0 0.00169995)
(0.00197915 -0.00359264 -0 -0.00386971 -0 0.00189056)
(0.00216153 -0.00308706 -0 -0.00424708 -0 0.00208555)
(0.00234649 -0.00254371 -0 -0.00463069 -0 0.0022842)
(0.00253404 -0.00196286 -1.65172e-17 -0.00502032 7.30719e-16 0.00248628)
(0.00272296 -0.00134536 -6.57598e-20 -0.00541363 5.22562e-18 0.00269066)
(0.00291243 -0.000692531 1.50852e-18 -0.00580897 -1.19939e-16 0.00289654)
(0.00312546 -0.00125874 -0 -0.0062207 -0 0.00309524)
(0.00333937 -0.00274237 1.34353e-17 -0.0066111 -5.33993e-16 0.00327173)
(0.00351851 -0.00386556 1.4651e-17 -0.00694105 -5.82302e-16 0.00342254)
(0.00366997 -0.00472601 -0 -0.00722231 -0 0.00355234)
(0.00379932 -0.00539195 -0 -0.00746429 -0 0.00366497)
(0.00391114 -0.00591191 2.40132e-18 -0.00767467 -1.90904e-16 0.00376352)
(0.00400782 -0.00632104 -5.18027e-18 -0.00785771 4.11827e-16 0.00384989)
(0.00409185 -0.00664517 -2.84899e-18 -0.00801772 1.93358e-18 0.00392587)
(0.00416581 -0.00690348 -0 -0.00815895 -0 0.00399314)
(0.00423067 -0.00711042 -4.95883e-20 -0.0082836 2.70979e-16 0.00405293)
(0.00428818 -0.00727699 7.32701e-18 -0.00839433 -8.73679e-16 0.00410615)
(0.00433927 -0.00741162 -7.94163e-18 -0.00849293 6.31335e-16 0.00415366)
(0.0043841 -0.00752085 -0 -0.00858035 -0 0.00419625)
(0.00442485 -0.00760975 -4.74964e-18 -0.00865926 1.88758e-16 0.00423441)
(0.00446147 -0.00768232 -5.17951e-18 -0.00873017 2.05841e-16 0.0042687)
(0.00449298 -0.00774176 -0 -0.00879289 -0 0.00429992)
(0.00452291 -0.0077905 -0 -0.00885052 -0 0.00432761)
(0.00454924 -0.00783059 -0 -0.00890207 -0 0.00435283)
(0.00457208 -0.00786364 -3.66245e-18 -0.00894803 1.4555e-16 0.00437594)
(0.00459469 -0.00789089 -0 -0.00899084 -0 0.00439615)
(0.00461349 -0.00791344 -0 -0.00902853 -0 0.00441505)
(0.00462929 -0.00793214 -1.90452e-17 -0.00906202 1.51399e-15 0.00443273)
(0.00464755 -0.00794757 2.32671e-17 -0.00909473 -1.74665e-15 0.00444719)
(0.00466106 -0.00796043 1.41207e-18 -0.00912276 -5.61164e-17 0.00446169)
(0.00488033 -0.00796717 -0 -0.00925169 -0 0.00437136)
(0.00699263 -0.00297549 -0 -0.0137101 -0 0.00671744)
(0.00715541 -0.00664899 -4.27924e-18 -0.0137903 5.78185e-17 0.00663489)
(0.00715032 -0.00658405 2.67164e-18 -0.0137849 -1.06228e-16 0.00663463)
(0.00714443 -0.00650917 -2.44991e-18 -0.0137788 9.74109e-17 0.00663435)
(0.0071377 -0.00642306 1.79946e-17 -0.0137718 -5.40133e-16 0.00663406)
(0.00713003 -0.00632426 -2.4311e-17 -0.0137637 6.50894e-16 0.00663371)
(0.00712121 -0.00621124 -2.25914e-17 -0.0137546 6.04843e-16 0.00663339)
(0.00711127 -0.00608231 5.82568e-17 -0.0137443 -1.51471e-15 0.00663303)
(0.0070999 -0.00593569 -3.77342e-17 -0.0137325 1.01024e-15 0.00663262)
(0.00708706 -0.0057695 3.15392e-17 -0.0137193 -8.06541e-16 0.0066322)
(0.00707259 -0.00558177 -0 -0.0137044 -0 0.00663177)
(0.0070564 -0.00537048 -1.46908e-17 -0.0136877 3.93291e-16 0.00663132)
(0.00703823 -0.00513358 -4.491e-18 -0.0136691 3.53014e-18 0.00663085)
(0.00701787 -0.00486906 -0 -0.0136482 -0 0.00663032)
(0.00699554 -0.00457489 -0 -0.0136254 -0 0.00662984)
(0.00697047 -0.00424923 -2.72861e-17 -0.0135997 5.50477e-16 0.00662923)
(0.00694293 -0.00389033 -4.41422e-17 -0.0135715 1.01662e-15 0.00662855)
(0.00691294 -0.00349664 1.70545e-17 -0.0135409 -4.56531e-16 0.00662794)
(0.00688037 -0.0030669 4.20819e-17 -0.0135079 -8.4892e-16 0.00662749)
(0.0068449 -0.0026002 -0 -0.0134718 -0 0.0066269)
(0.00680647 -0.00209596 -3.53871e-17 -0.0134327 7.13837e-16 0.00662621)
(0.00676544 -0.00155401 -0 -0.0133911 -0 0.00662562)
(0.0067211 -0.000974737 1.51146e-17 -0.0133458 -6.0079e-16 0.0066247)
(0.00667431 -0.000358857 5.45761e-17 -0.0132983 -1.10085e-15 0.00662399)
(0.00662523 0.000292319 -0 -0.0132488 -0 0.00662352)
(0.00666693 -0.000272588 5.00465e-17 -0.0132899 -1.00944e-15 0.00662292)
(0.00677733 -0.00175264 7.07278e-18 -0.0133998 -9.35956e-18 0.00662246)
(0.00686094 -0.00287312 -3.72042e-17 -0.0134831 1.19192e-15 0.0066222)
(0.00692518 -0.00373148 3.2449e-17 -0.0135473 -6.54467e-16 0.00662207)
(0.00697485 -0.0043958 -0 -0.0135968 -0 0.00662191)
(0.00701322 -0.00491454 -2.94172e-17 -0.0136348 7.87269e-16 0.00662155)
(0.00704346 -0.00532272 3.14165e-17 -0.0136647 -8.40772e-16 0.00662126)
(0.00706772 -0.00564606 -1.71171e-17 -0.0136889 2.31162e-16 0.00662115)
(0.00708694 -0.00590374 3.80367e-17 -0.013708 -1.01792e-15 0.00662104)
(0.00710221 -0.0061102 -4.77803e-17 -0.0137231 1.36862e-15 0.0066209)
(0.0071145 -0.00627638 3.73109e-17 -0.0137353 -9.00396e-16 0.00662077)
(0.00712428 -0.00641072 -1.62236e-17 -0.0137449 3.27195e-16 0.00662064)
(0.00713273 -0.00651966 -5.36509e-17 -0.0137532 1.43575e-15 0.00662048)
(0.00713919 -0.00660837 4.35159e-17 -0.0137596 -1.35534e-15 0.0066204)
(0.00714408 -0.00668082 5.34324e-18 -0.0137645 -2.12348e-16 0.00662039)
(0.00714904 -0.00674006 -6.94835e-17 -0.0137692 1.85943e-15 0.00662012)
(0.00715192 -0.00678875 1.50935e-16 -0.0137722 -4.03913e-15 0.00662025)
(0.00715532 -0.00682873 -8.20229e-17 -0.0137754 2.19499e-15 0.00662005)
(0.0071582 -0.00686165 -8.62419e-17 -0.0137781 2.25883e-15 0.00661991)
(0.00715908 -0.00688893 2.03851e-16 -0.0137793 -5.40166e-15 0.00662023)
(0.00716127 -0.0069114 5.40817e-19 -0.0137812 -1.44671e-17 0.00661997)
(0.00716352 -0.00692997 -1.16118e-16 -0.0137831 3.10736e-15 0.00661959)
(0.0071636 -0.00694547 1.24517e-16 -0.0137835 -3.29744e-15 0.00661993)
(0.00716466 -0.00695829 -1.33862e-16 -0.0137844 3.63892e-15 0.00661974)
(0.00733466 -0.00695942 1.51201e-16 -0.0138696 -4.04618e-15 0.0065349)
(0.00707162 -0.00227178 -0 -0.0135721 -0 0.00650051)
(0.00720434 -0.0057085 5.91727e-18 -0.0136357 -1.19399e-16 0.00643131)
(0.00719614 -0.00564389 -0 -0.0136272 -0 0.00643106)
(0.00718668 -0.00556941 -0 -0.0136175 -0 0.00643078)
(0.00717577 -0.00548375 3.60729e-17 -0.0136063 -5.51872e-16 0.00643049)
(0.00716342 -0.00538546 -0 -0.0135936 -0 0.00643018)
(0.00714925 -0.00527301 -7.65481e-17 -0.0135791 1.24646e-15 0.00642986)
(0.00713306 -0.00514474 -1.51064e-17 -0.0135626 3.00764e-16 0.00642954)
(0.00711479 -0.00499885 6.34201e-17 -0.013544 -1.03268e-15 0.00642919)
(0.00709401 -0.0048335 -7.09576e-17 -0.0135228 1.20146e-15 0.0064288)
(0.00707058 -0.00464671 5.32659e-17 -0.013499 -8.67313e-16 0.0064284)
(0.00704419 -0.00443649 -0 -0.0134721 -0 0.00642794)
(0.00701466 -0.00420078 1.17824e-16 -0.0134421 -1.84735e-15 0.00642747)
(0.00698178 -0.00393755 -4.09901e-17 -0.0134088 6.67398e-16 0.00642702)
(0.00694514 -0.00364487 -3.84639e-17 -0.0133716 6.26245e-16 0.00642646)
(0.00690465 -0.00332081 6.25649e-17 -0.0133306 -1.12822e-15 0.00642595)
(0.00686002 -0.00296368 2.58126e-17 -0.0132854 -5.20739e-16 0.00642539)
(0.00681121 -0.00257192 -0 -0.013236 -0 0.00642481)
(0.00675782 -0.00214432 -4.3412e-17 -0.013182 8.75754e-16 0.00642421)
(0.00669998 -0.0016799 9.25114e-17 -0.0131236 -1.19615e-15 0.00642364)
(0.0066376 -0.00117811 5.87271e-17 -0.0130607 -1.09816e-15 0.00642312)
(0.00657034 -0.000638845 -0 -0.0129927 -0 0.00642239)
(0.0064987 -6.2354e-05 -0 -0.0129205 -0 0.0064218)
(0.00642237 0.000550511 -5.63012e-17 -0.0128435 1.13565e-15 0.0064211)
(0.00634154 0.00119844 -0 -0.0127617 -0 0.0064202)
(0.00641056 0.00063617 -5.16285e-17 -0.0128304 1.04135e-15 0.00641982)
(0.00659234 -0.000836863 -0 -0.013012 -0 0.00641969)
(0.00672953 -0.00195211 -0 -0.0131488 -0 0.00641931)
(0.00683452 -0.00280649 2.33495e-17 -0.0132534 1.07918e-17 0.00641887)
(0.00691588 -0.00346772 4.46482e-17 -0.0133345 -7.26736e-16 0.00641861)
(0.00697954 -0.00398399 -0 -0.0133981 -0 0.00641852)
(0.00702965 -0.00439022 -0 -0.0134481 -0 0.00641844)
(0.00706912 -0.00471209 2.11849e-16 -0.0134873 -3.35602e-15 0.00641818)
(0.00710046 -0.00496861 -1.2683e-16 -0.0135184 2.06432e-15 0.00641795)
(0.00712574 -0.0051741 5.73222e-17 -0.0135435 -1.15207e-15 0.00641776)
(0.00714584 -0.00533953 -3.34789e-16 -0.0135635 5.5685e-15 0.0064177)
(0.00716258 -0.00547319 1.3214e-16 -0.0135802 -2.34612e-15 0.0064176)
(0.00717588 -0.00558165 -1.81788e-16 -0.0135934 2.95877e-15 0.00641754)
(0.00718655 -0.00566996 7.67477e-17 -0.013604 -1.17169e-15 0.00641745)
(0.00719537 -0.00574205 -1.90862e-18 -0.0136127 3.10522e-17 0.00641733)
(0.00720235 -0.00580109 5.03922e-16 -0.0136196 -8.10959e-15 0.00641728)
(0.00720918 -0.00584942 -5.11422e-16 -0.0136261 8.32375e-15 0.00641692)
(0.00721318 -0.00588933 -1.86487e-18 -0.0136303 3.03403e-17 0.00641711)
(0.00721637 -0.00592224 3.25826e-16 -0.0136336 -5.2433e-15 0.00641725)
(0.00722093 -0.0059492 -8.36814e-18 -0.0136376 1.68763e-16 0.00641672)
(0.00722337 -0.00597163 -3.89493e-16 -0.0136402 6.26817e-15 0.00641679)
(0.00722506 -0.00599022 -1.82361e-18 -0.0136421 2.96691e-17 0.006417)
(0.00722735 -0.00600555 -1.78381e-17 -0.0136442 2.48079e-16 0.00641687)
(0.00722983 -0.00601822 4.79627e-16 -0.0136463 -7.73708e-15 0.00641645)
(0.00736519 -0.00601642 -0 -0.0137142 -0 0.00634897)
(0.00708588 -0.00161587 -2.4203e-17 -0.0133773 2.4895e-16 0.00629146)
(0.00719181 -0.00483095 -3.57133e-16 -0.0134258 4.17809e-15 0.00623403)
(0.00718052 -0.00476683 1.5212e-16 -0.0134144 -1.79387e-15 0.00623383)
(0.00716769 -0.00469288 -3.97819e-17 -0.0134013 4.12904e-16 0.00623358)
(0.00715296 -0.00460781 -1.57137e-16 -0.0133863 1.90453e-15 0.00623332)
(0.00713596 -0.00451024 1.17148e-16 -0.013369 -1.38142e-15 0.00623304)
(0.00711658 -0.00439861 -0 -0.0133493 -0 0.0062327)
(0.00709442 -0.00427126 -0 -0.0133268 -0 0.00623235)
(0.00706929 -0.00412643 4.0047e-17 -0.0133013 -5.45114e-16 0.00623199)
(0.00704091 -0.00396224 -8.26583e-17 -0.0132725 9.7467e-16 0.0062316)
(0.00700877 -0.00377679 9.61728e-18 -0.01324 9.19554e-18 0.00623121)
(0.0069727 -0.00356804 1.4021e-16 -0.0132035 -1.65323e-15 0.00623081)
(0.00693229 -0.00333399 -1.19214e-16 -0.0131627 1.50874e-15 0.00623037)
(0.00688711 -0.00307263 6.69066e-17 -0.013117 -6.94342e-16 0.00622992)
(0.00683694 -0.002782 -0 -0.0130663 -0 0.00622935)
(0.00678139 -0.00246023 -1.62723e-16 -0.0130103 1.75956e-15 0.00622889)
(0.00672054 -0.00210551 4.48465e-17 -0.0129491 -5.2875e-16 0.00622859)
(0.00665358 -0.00171648 -8.45574e-17 -0.0128817 9.9691e-16 0.00622813)
(0.00658029 -0.0012919 2.48836e-16 -0.0128077 -2.6885e-15 0.0062274)
(0.00650062 -0.0008308 3.787e-17 -0.0127272 3.19439e-18 0.00622659)
(0.00641465 -0.000332569 -0 -0.0126405 -0 0.00622587)
(0.00632273 0.000203021 -1.93817e-16 -0.0125482 2.09583e-15 0.00622545)
(0.00622446 0.000775544 5.30497e-17 -0.0124494 -6.25389e-16 0.00622498)
(0.0061197 0.00138414 -2.25064e-16 -0.012344 2.33519e-15 0.0062243)
(0.00600915 0.00202763 -0 -0.0122329 -0 0.00622374)
(0.00610414 0.0014691 -4.63526e-17 -0.0123274 5.46392e-16 0.00622322)
(0.00635371 5.93767e-06 4.87082e-17 -0.0125763 -5.74159e-16 0.00622263)
(0.00654299 -0.00110168 2.45421e-16 -0.0127655 -2.54621e-15 0.00622248)
(0.00668804 -0.0019502 -2.21494e-16 -0.0129104 2.79982e-15 0.00622235)
(0.00679999 -0.00260698 1.26991e-16 -0.013022 -1.49687e-15 0.00622201)
(0.00688731 -0.00311983 -1.73772e-17 -0.013109 -1.9942e-17 0.00622167)
(0.006956 -0.00352337 3.02433e-18 -0.0131774 -3.56316e-17 0.00622144)
(0.00701072 -0.003843 -6.91336e-17 -0.013232 9.48524e-16 0.00622132)
(0.00705411 -0.00409778 -1.80368e-16 -0.0132753 2.12595e-15 0.00622124)
(0.00708894 -0.00430188 1.98262e-16 -0.01331 -2.33684e-15 0.0062211)
(0.00711703 -0.00446617 2.17648e-16 -0.0133379 -2.56531e-15 0.00622089)
(0.00713921 -0.00459905 -1.83419e-16 -0.0133599 2.06737e-15 0.00622071)
(0.00715741 -0.00470683 2.58527e-16 -0.0133779 -3.0471e-15 0.00622048)
(0.00717226 -0.00479454 -3.39675e-16 -0.0133928 4.11593e-15 0.0062205)
(0.00718482 -0.00486608 -3.07153e-16 -0.0134052 3.62021e-15 0.0062204)
(0.00719529 -0.00492461 2.96077e-16 -0.0134155 -3.42284e-15 0.00622024)
(0.0072025 -0.00497286 -3.6499e-16 -0.0134229 4.30186e-15 0.00622041)
(0.00720932 -0.00501241 4.51501e-16 -0.0134296 -5.24204e-15 0.00622028)
(0.0072153 -0.00504494 -2.33755e-17 -0.0134354 3.18835e-16 0.00622012)
(0.00721961 -0.00507189 -0 -0.0134397 -0 0.00622013)
(0.00722363 -0.0050941 2.77983e-17 -0.0134436 -3.79158e-16 0.00621998)
(0.00722678 -0.00511253 -0 -0.0134466 -0 0.00621983)
(0.00722845 -0.00512792 6.29411e-16 -0.0134486 -7.44894e-15 0.00622016)
(0.00723092 -0.00514057 -1.32826e-15 -0.0134508 1.57218e-14 0.0062199)
(0.00733236 -0.00513836 7.26028e-16 -0.0135019 -8.55703e-15 0.00616949)
(0.00704462 -0.00100806 2.66106e-17 -0.0131344 -2.76171e-16 0.00608983)
(0.0071267 -0.00401559 2.43141e-16 -0.0131695 -2.2869e-15 0.00604283)
(0.00711259 -0.00395205 -1.43565e-16 -0.0131552 1.38317e-15 0.00604261)
(0.00709637 -0.00387879 4.10392e-17 -0.0131387 -4.25954e-16 0.00604235)
(0.00707775 -0.00379451 -2.1517e-16 -0.0131198 1.95965e-15 0.00604207)
(0.00705636 -0.00369783 -1.971e-18 -0.0130982 1.83074e-17 0.0060418)
(0.00703201 -0.00358719 2.82333e-16 -0.0130735 -2.62473e-15 0.00604152)
(0.00700432 -0.00346096 1.91736e-18 -0.0130455 -1.78092e-17 0.00604121)
(0.00697264 -0.00331744 -6.45406e-17 -0.0130136 5.424e-16 0.00604092)
(0.00693686 -0.00315474 -0 -0.0129774 -0 0.00604055)
(0.00689651 -0.00297092 -8.95085e-17 -0.0129367 9.28945e-16 0.00604018)
(0.00685099 -0.00276406 -1.00973e-16 -0.0128908 8.49813e-16 0.0060398)
(0.00680011 -0.0025321 -0 -0.0128395 -0 0.00603935)
(0.00674315 -0.00227308 -5.48634e-17 -0.0127821 7.34055e-16 0.00603897)
(0.00668024 -0.00198495 1.52368e-16 -0.0127189 -1.27937e-15 0.00603865)
(0.00661042 -0.001666 3.86694e-16 -0.0126487 -3.59444e-15 0.00603825)
(0.00653287 -0.00131467 -1.20301e-16 -0.0125702 1.1182e-15 0.00603733)
(0.00644807 -0.000929201 1.07302e-16 -0.0124847 -9.97374e-16 0.00603665)
(0.00635624 -0.000508236 -1.79025e-16 -0.0123926 1.8577e-15 0.0060364)
(0.00625643 -5.10691e-05 -2.57163e-16 -0.0122925 2.56783e-15 0.00603605)
(0.00614834 0.000442817 2.6772e-16 -0.012184 -2.3254e-15 0.00603564)
(0.00603192 0.000973532 1.38051e-16 -0.0120667 -1.43243e-15 0.00603481)
(0.00590757 0.0015409 -0 -0.0119417 -0 0.00603412)
(0.00577594 0.00214426 2.98169e-16 -0.0118098 -3.0223e-15 0.00603384)
(0.00563634 0.00278201 -5.81352e-17 -0.0116695 5.40286e-16 0.00603313)
(0.00575621 0.00222821 -2.61915e-16 -0.0117887 2.20371e-15 0.00603244)
(0.00607202 0.000777883 -0 -0.0121043 -0 0.00603224)
(0.00631079 -0.000320201 -4.21288e-16 -0.0123426 3.91503e-15 0.00603179)
(0.00649361 -0.00116146 -1.51823e-16 -0.012525 1.41087e-15 0.00603139)
(0.00663539 -0.00181246 -0 -0.0126667 -0 0.00603127)
(0.006746 -0.0023208 1.64159e-16 -0.0127771 -1.70306e-15 0.0060311)
(0.00683289 -0.00272085 -0 -0.0128638 -0 0.00603087)
(0.00690159 -0.00303781 4.59794e-16 -0.0129321 -4.06142e-15 0.00603054)
(0.0069564 -0.0032904 -2.35504e-16 -0.0129868 2.1884e-15 0.00603036)
(0.00700033 -0.00349276 2.67184e-17 -0.0130306 2.86668e-18 0.00603022)
(0.00703575 -0.00365563 -0 -0.0130659 -0 0.00603011)
(0.00706445 -0.00378725 -0 -0.0130946 -0 0.00603013)
(0.00708787 -0.00389402 -0 -0.0131179 -0 0.00603)
(0.00710651 -0.00398101 2.66953e-16 -0.0131364 -2.56935e-15 0.00602993)
(0.00712188 -0.00405202 -3.975e-16 -0.0131516 3.69362e-15 0.00602971)
(0.00713383 -0.00411027 -0 -0.0131635 -0 0.0060297)
(0.00714454 -0.0041579 -9.53121e-16 -0.0131741 8.85643e-15 0.00602954)
(0.00715338 -0.00419705 9.02688e-16 -0.0131828 -8.38781e-15 0.00602944)
(0.00716025 -0.00422939 -0 -0.0131897 -0 0.00602943)
(0.00716602 -0.00425607 -0 -0.0131954 -0 0.00602938)
(0.00717016 -0.00427823 -0 -0.0131998 -0 0.00602968)
(0.00717544 -0.00429627 -5.04843e-17 -0.0132045 4.24703e-16 0.00602902)
(0.00717737 -0.00431165 -0 -0.0132069 -0 0.00602955)
(0.00718036 -0.00432418 1.72059e-15 -0.0132098 -1.59612e-14 0.0060294)
(0.00725024 -0.00432364 -1.89592e-15 -0.0132452 1.76167e-14 0.005995)
(0.00695637 -0.000447876 2.58014e-18 -0.0128517 -1.98678e-17 0.00589537)
(0.00701719 -0.00326101 -3.42043e-16 -0.0128747 2.59267e-15 0.00585753)
(0.00700038 -0.00319815 1.0275e-17 -0.0128577 1.32756e-18 0.00585733)
(0.00698106 -0.00312566 -2.28447e-16 -0.0128381 1.76089e-15 0.00585708)
(0.00695874 -0.00304231 1.58081e-16 -0.0128156 -1.18466e-15 0.00585684)
(0.00693319 -0.00294667 2.9326e-16 -0.0127898 -2.19836e-15 0.00585659)
(0.00690398 -0.00283724 -0 -0.0127603 -0 0.00585629)
(0.00687078 -0.00271238 -2.4882e-16 -0.0127267 1.86563e-15 0.00585593)
(0.00683281 -0.00257041 1.46145e-16 -0.0126885 -1.12645e-15 0.00585567)
(0.00679002 -0.00240944 -0 -0.0126453 -0 0.0058553)
(0.00674166 -0.00222759 -2.50021e-16 -0.0125966 1.92701e-15 0.00585495)
(0.00668718 -0.00202293 4.52145e-16 -0.0125418 -3.48485e-15 0.00585461)
(0.00662623 -0.00179344 -0 -0.0124804 -0 0.00585418)
(0.00655805 -0.00153719 -3.68361e-16 -0.0124119 2.96316e-15 0.00585381)
(0.00648228 -0.00125224 1.89733e-16 -0.0123355 -1.34839e-15 0.0058532)
(0.00639831 -0.000936746 -3.05931e-16 -0.0122511 2.46218e-15 0.00585281)
(0.00630656 -0.0005888 -3.19055e-16 -0.0121593 2.26734e-15 0.00585271)
(0.00620542 -0.0002073 1.55562e-16 -0.0120578 -1.02324e-15 0.00585234)
(0.00609452 0.000208946 -1.46288e-16 -0.0119461 9.66304e-16 0.00585157)
(0.00597461 0.000661201 1.15408e-16 -0.0118257 -8.89347e-16 0.00585105)
(0.00584498 0.00114983 -2.93463e-16 -0.0116955 2.39684e-15 0.00585054)
(0.00570591 0.00167506 -0 -0.011556 -0 0.00585013)
(0.00555704 0.00223646 -0 -0.0114066 -0 0.00584958)
(0.00539837 0.00283316 1.63793e-16 -0.011247 -1.26209e-15 0.00584866)
(0.00523137 0.0034643 6.44198e-16 -0.0110797 -4.58074e-15 0.00584832)
(0.00537596 0.00291644 -5.12368e-16 -0.011224 3.37343e-15 0.00584808)
(0.00575437 0.00148107 -0 -0.0116018 -0 0.00584747)
(0.006041 0.000394435 3.21299e-16 -0.011888 -2.70325e-15 0.00584697)
(0.00626061 -0.000437997 -4.13759e-16 -0.0121073 2.93962e-15 0.0058467)
(0.00643033 -0.00108234 -0 -0.0122766 -0 0.00584631)
(0.00656304 -0.00158541 -0 -0.0124091 -0 0.00584602)
(0.00666737 -0.00198128 2.68281e-16 -0.0125132 -1.90598e-15 0.00584583)
(0.00675006 -0.0022949 2.48385e-17 -0.0125957 -1.58034e-17 0.00584566)
(0.006816 -0.00254481 -2.92264e-16 -0.0126615 2.25172e-15 0.00584554)
(0.00686875 -0.00274507 -1.47307e-16 -0.0127142 1.23928e-15 0.00584542)
(0.00691112 -0.00290629 -0 -0.0127564 -0 0.00584523)
(0.00694537 -0.00303661 -0 -0.0127904 -0 0.00584505)
(0.00697321 -0.00314231 -0 -0.0128182 -0 0.005845)
(0.00699606 -0.00322831 -8.09035e-16 -0.0128409 6.15912e-15 0.00584487)
(0.00701413 -0.00329867 1.84787e-15 -0.012859 -1.43168e-14 0.00584491)
(0.0070295 -0.00335613 -2.1614e-15 -0.0128743 1.66517e-14 0.00584481)
(0.00704227 -0.00340324 1.17418e-15 -0.0128869 -9.04602e-15 0.00584465)
(0.00705215 -0.00344214 1.60629e-16 -0.0128968 -1.2375e-15 0.00584465)
(0.00706045 -0.00347416 -1.40576e-15 -0.012905 1.083e-14 0.00584459)
(0.00706788 -0.00350048 -1.11923e-16 -0.012912 8.00172e-16 0.00584416)
(0.00707197 -0.00352267 -8.44535e-18 -0.0129167 6.50377e-17 0.00584475)
(0.00707715 -0.00354067 1.86539e-15 -0.0129216 -1.44079e-14 0.00584449)
(0.0070829 -0.00355526 -0 -0.0129267 -0 0.00584378)
(0.00708471 -0.003568 -0 -0.0129291 -0 0.00584443)
(0.00712348 -0.00357126 -0 -0.0129494 -0 0.00582591)
(0.00682855 6.55693e-05 -0 -0.0125362 -0 0.00570764)
(0.00687054 -0.00256541 7.5452e-17 -0.0125485 -5.36309e-16 0.00567794)
(0.0068513 -0.00250329 -3.67987e-16 -0.0125289 2.4661e-15 0.00567761)
(0.0068287 -0.00243176 -3.00566e-18 -0.0125062 1.98412e-17 0.00567749)
(0.00680312 -0.00234937 -1.46144e-18 -0.0124803 9.64685e-18 0.00567719)
(0.00677338 -0.00225496 -2.14901e-16 -0.0124504 1.52669e-15 0.00567702)
(0.00673971 -0.00214685 2.08759e-16 -0.0124164 -1.37933e-15 0.00567669)
(0.00670114 -0.00202355 8.97288e-17 -0.0123776 -6.37745e-16 0.00567643)
(0.00665739 -0.00188329 -0 -0.0123335 -0 0.00567613)
(0.00660773 -0.00172432 1.53699e-16 -0.0122836 -1.09097e-15 0.00567584)
(0.00655171 -0.00154472 -2.9456e-16 -0.0122271 1.94614e-15 0.00567543)
(0.00648858 -0.00134259 -1.26897e-16 -0.0121637 9.01865e-16 0.00567511)
(0.00641797 -0.00111591 2.6719e-16 -0.0120927 -1.64881e-15 0.00567473)
(0.00633904 -0.000862792 -0 -0.0120134 -0 0.00567436)
(0.0062515 -0.000581247 2.12705e-16 -0.0119255 -1.4052e-15 0.00567395)
(0.00615414 -0.000269679 -1.90322e-16 -0.0118276 1.25733e-15 0.00567347)
(0.00604702 7.3732e-05 7.0701e-16 -0.0117198 -4.67063e-15 0.00567274)
(0.00592981 0.000450597 4.46892e-17 -0.0116023 6.74654e-18 0.00567252)
(0.00580215 0.00086203 -4.09805e-17 -0.0114743 -6.18702e-18 0.00567219)
(0.00566282 0.00130862 1.38476e-16 -0.0113344 -9.14729e-16 0.00567156)
(0.0055127 0.00179132 4.20926e-18 -0.0111838 -2.77866e-17 0.00567111)
(0.00535134 0.00231009 1.20714e-16 -0.0110219 -7.97347e-16 0.00567059)
(0.00517894 0.0028647 7.84146e-18 -0.0108491 -5.17638e-17 0.00567021)
(0.00499592 0.00345443 -1.01318e-15 -0.0106659 6.33315e-15 0.00566996)
(0.00480185 0.0040777 9.7474e-17 -0.0104712 1.4722e-17 0.00566933)
(0.00496906 0.00353619 4.78074e-16 -0.0106376 -3.48689e-15 0.00566854)
(0.00540833 0.00211825 1.01357e-15 -0.0110766 -6.33534e-15 0.00566825)
(0.00574106 0.00104483 6.62822e-16 -0.011409 -4.18192e-15 0.00566796)
(0.00599554 0.00022233 2.00762e-16 -0.0116631 -1.5394e-15 0.00566753)
(0.00619265 -0.000414183 -5.34379e-16 -0.0118599 3.29649e-15 0.00566729)
(0.00634654 -0.000911204 -8.5834e-16 -0.0120136 5.41494e-15 0.00566703)
(0.0064676 -0.0013023 1.75716e-17 -0.0121345 2.23535e-17 0.00566686)
(0.00656359 -0.00161212 1.00062e-15 -0.0122303 -6.45738e-15 0.00566669)
(0.00663992 -0.00185911 1.13476e-17 -0.0123063 -7.49086e-17 0.00566637)
(0.00670075 -0.00205709 -7.65438e-16 -0.0123669 5.0551e-15 0.00566618)
(0.00675028 -0.00221627 -0 -0.0124163 -0 0.00566604)
(0.0067902 -0.00234495 -9.22352e-16 -0.0124562 6.09128e-15 0.00566598)
(0.00682221 -0.0024495 1.99979e-15 -0.012488 -1.32067e-14 0.0056658)
(0.00684821 -0.00253461 -7.93709e-16 -0.0125139 5.36861e-15 0.00566568)
(0.00687004 -0.00260392 1.33274e-15 -0.0125356 -8.87059e-15 0.00566555)
(0.00688771 -0.00266071 1.83708e-16 -0.0125532 -1.13771e-15 0.00566552)
(0.00690186 -0.00270743 -1.40887e-15 -0.0125673 9.30416e-15 0.00566541)
(0.00691359 -0.00274582 -1.84295e-15 -0.012579 1.21259e-14 0.00566538)
(0.006923 -0.0027775 1.78883e-15 -0.0125886 -1.17644e-14 0.00566556)
(0.00693167 -0.00280343 -1.73221e-15 -0.012597 1.1386e-14 0.00566533)
(0.0069389 -0.00282483 -1.01334e-17 -0.0126041 6.68933e-17 0.00566522)
(0.00694435 -0.00284274 2.17574e-15 -0.0126094 -1.43684e-14 0.00566508)
(0.00694739 -0.00285793 2.38319e-15 -0.012613 -1.57382e-14 0.00566563)
(0.00695262 -0.00286989 -5.27343e-15 -0.0126175 3.47873e-14 0.00566487)
(0.00696296 -0.00287848 -9.96261e-18 -0.0126239 6.5766e-17 0.00566099)
(0.00666803 0.0005337 -4.15935e-16 -0.0121946 2.41209e-15 0.00552655)
(0.00669352 -0.00192651 3.77954e-16 -0.0121975 -2.19204e-15 0.00550394)
(0.00667191 -0.00186521 -0 -0.0121754 -0 0.00550353)
(0.00664628 -0.00179472 1.52077e-16 -0.0121497 -9.37895e-16 0.00550343)
(0.00661718 -0.00171353 -7.42409e-16 -0.0121203 4.25436e-15 0.00550315)
(0.00658382 -0.00162036 2.6511e-16 -0.0120867 -1.53752e-15 0.00550291)
(0.00654566 -0.00151377 -0 -0.0120483 -0 0.00550266)
(0.00650202 -0.00139219 2.15922e-16 -0.0120044 -1.33126e-15 0.00550241)
(0.00645264 -0.00125386 -4.10827e-16 -0.0119547 2.38251e-15 0.00550201)
(0.00639634 -0.00109712 1.78725e-16 -0.0118982 -1.10295e-15 0.00550181)
(0.00633319 -0.000919924 -0 -0.0118347 -0 0.00550147)
(0.00626182 -0.000720578 -6.60486e-16 -0.011763 3.71833e-15 0.00550117)
(0.00618193 -0.00049702 -2.95848e-16 -0.0116828 1.71558e-15 0.00550083)
(0.0060928 -0.000247342 -0 -0.0115933 -0 0.00550045)
(0.0059935 3.02449e-05 -2.49163e-16 -0.0114936 1.44481e-15 0.00550007)
(0.00588392 0.000337744 -5.71179e-18 -0.0113838 3.30949e-17 0.00549988)
(0.00576326 0.000676663 -3.95378e-16 -0.0112628 2.43757e-15 0.00549956)
(0.00563003 0.00104806 -3.62876e-16 -0.0111289 2.23702e-15 0.00549891)
(0.00548538 0.00145378 1.23657e-15 -0.0109838 -7.04799e-15 0.00549841)
(0.00532837 0.00189448 6.76098e-16 -0.0108265 -3.69647e-15 0.00549814)
(0.00515824 0.00237043 -0 -0.0106558 -0 0.00549755)
(0.0049758 0.00288213 -2.95255e-16 -0.0104729 1.52383e-15 0.00549706)
(0.00478056 0.00342905 -4.92468e-16 -0.0102771 2.85519e-15 0.00549649)
(0.00457308 0.00401054 -1.14784e-16 -0.010069 3.29891e-17 0.00549592)
(0.00435387 0.00462542 5.11265e-16 -0.00984941 -2.38408e-15 0.00549554)
(0.00454357 0.00409138 -2.02977e-16 -0.0100387 1.17674e-15 0.00549512)
(0.00504055 0.00269256 -8.50215e-16 -0.0105352 5.24506e-15 0.00549464)
(0.00541683 0.00163353 -2.13536e-16 -0.0109109 1.4103e-15 0.00549409)
(0.00570527 0.000822322 -2.64824e-16 -0.0111992 1.5352e-15 0.00549389)
(0.00592827 0.000194378 5.51267e-16 -0.0114219 -3.40067e-15 0.00549361)
(0.0061024 -0.000295972 -7.49059e-17 -0.0115956 -1.28966e-17 0.00549319)
(0.00623923 -0.000681872 -0 -0.0117322 -0 0.00549295)
(0.00634783 -0.000987526 -3.57444e-16 -0.0118405 2.20494e-15 0.00549272)
(0.00643449 -0.00123106 -0 -0.0119272 -0 0.00549268)
(0.00650407 -0.0014261 -0 -0.0119968 -0 0.0054927)
(0.00655963 -0.0015833 -0 -0.0120521 -0 0.00549251)
(0.00660436 -0.00171044 -0 -0.0120966 -0 0.00549229)
(0.00664111 -0.0018134 -0 -0.0121334 -0 0.00549224)
(0.00667115 -0.00189717 -3.00567e-16 -0.0121633 1.85403e-15 0.00549215)
(0.00669528 -0.00196572 -0 -0.0121873 -0 0.00549205)
(0.0067148 -0.0020219 -1.78718e-16 -0.0122068 1.1024e-15 0.00549202)
(0.0067314 -0.00206784 -0 -0.0122232 -0 0.00549183)
(0.00674487 -0.00210568 2.12532e-16 -0.0122365 -1.31097e-15 0.00549167)
(0.00675544 -0.002137 -1.15884e-16 -0.0122472 7.1481e-16 0.00549179)
(0.00676493 -0.00216266 -0 -0.0122564 -0 0.00549149)
(0.00677146 -0.00218423 -0 -0.0122633 -0 0.00549184)
(0.00677948 -0.00220135 -0 -0.0122706 -0 0.00549112)
(0.00678338 -0.00221629 2.79167e-15 -0.0122751 -1.61817e-14 0.00549175)
(0.00678736 -0.00222853 -3.0432e-15 -0.0122792 1.75732e-14 0.00549184)
(0.00677638 -0.0022424 1.09588e-16 -0.012276 -5.98982e-16 0.0054996)
(0.00648046 0.000958046 -4.78546e-16 -0.0118321 2.47931e-15 0.00535161)
(0.00649189 -0.00134194 4.34848e-16 -0.0118269 -2.25312e-15 0.00533504)
(0.00646771 -0.0012816 5.94918e-16 -0.0118025 -3.1371e-15 0.00533477)
(0.0064394 -0.00121215 -1.48826e-15 -0.0117741 7.61079e-15 0.00533469)
(0.00640715 -0.00113217 -8.00934e-18 -0.0117416 4.14589e-17 0.00533447)
(0.00637015 -0.00104042 1.3824e-15 -0.0117043 -7.20455e-15 0.00533418)
(0.00632761 -0.000935498 -5.62705e-16 -0.0116616 2.91543e-15 0.00533398)
(0.00627931 -0.000815716 5.19541e-16 -0.0116131 -2.69175e-15 0.00533375)
(0.00622451 -0.000679449 -2.5031e-16 -0.0115579 1.23183e-15 0.00533344)
(0.00616206 -0.000525091 -0 -0.0114952 -0 0.00533319)
(0.00609171 -0.000350658 4.20971e-16 -0.0114245 -2.07162e-15 0.00533283)
(0.0060126 -0.000154282 3.48716e-16 -0.0113451 -1.90685e-15 0.00533253)
(0.00592382 6.58681e-05 -2.06516e-17 -0.011256 1.50353e-17 0.00533218)
(0.00582476 0.000311744 3.05498e-16 -0.0111566 -1.58265e-15 0.00533181)
(0.00571463 0.000585196 -0 -0.0110461 -0 0.00533148)
(0.00559263 0.000887893 -2.63075e-16 -0.0109236 1.3628e-15 0.00533096)
(0.00545809 0.00122148 9.77091e-16 -0.0107886 -4.93153e-15 0.00533048)
(0.00531103 0.00158767 -2.15342e-16 -0.0106413 1.11551e-15 0.0053303)
(0.00515016 0.0019872 -1.39921e-15 -0.01048 7.24794e-15 0.00532983)
(0.00497548 0.00242116 -1.27708e-15 -0.0103049 6.61514e-15 0.00532942)
(0.00478707 0.00289022 1.13459e-17 -0.0101163 -5.87301e-17 0.00532925)
(0.00458435 0.0033942 -3.66225e-16 -0.00991315 1.55975e-15 0.0053288)
(0.00436771 0.00393301 1.19078e-15 -0.0096962 -5.85847e-15 0.00532849)
(0.00413741 0.00450583 9.86401e-16 -0.00946546 -5.39252e-15 0.00532806)
(0.00389375 0.00511139 -1.66278e-15 -0.00922138 8.61202e-15 0.00532763)
(0.00410439 0.00458516 -1.23486e-15 -0.00943133 6.13559e-15 0.00532694)
(0.00465668 0.00320718 2.64309e-16 -0.00998308 -1.36886e-15 0.00532641)
(0.00507497 0.00216401 -2.78922e-16 -0.0104009 1.44454e-15 0.00532593)
(0.00539512 0.00136468 3.13189e-16 -0.0107205 -1.62197e-15 0.00532538)
(0.00564298 0.000746098 -3.32759e-16 -0.0109681 1.72332e-15 0.00532508)
(0.00583681 0.000263223 1.46949e-15 -0.0111617 -7.61015e-15 0.00532493)
(0.00598908 -0.000116852 8.41931e-16 -0.0113138 -4.14154e-15 0.00532476)
(0.00610965 -0.000418007 -4.22524e-16 -0.0114342 2.30729e-15 0.00532452)
(0.00620575 -0.000658039 1.40518e-15 -0.0115299 -7.40691e-15 0.00532419)
(0.00628243 -0.000850485 -1.03161e-15 -0.0116063 5.34232e-15 0.00532387)
(0.00634438 -0.00100527 -0 -0.0116681 -0 0.00532376)
(0.00639486 -0.00113023 -0 -0.0117185 -0 0.00532366)