/*--------------------------------*- C++ -*----------------------------------*\
  =========                 |
  \\      /  F ield         | OpenFOAM: The Open Source CFD Toolbox
   \\    /   O peration     | Website:  https://openfoam.org
    \\  /    A nd           | Version:  10
     \\/     M anipulation  |
\*---------------------------------------------------------------------------*/
FoamFile
{
    format      ascii;
    class       volScalarField;
    location    "0";
    object      yPlus;
}
// * * * * * * * * * * * * * * * * * * * * * * * * * * * * * * * * * * * * * //

dimensions      [0 0 0 0 0 0 0];

internalField   uniform 0;

boundaryField
{
    right
    {
        type            cyclic;
    }
    left
    {
        type            cyclic;
    }
    outerWall
    {
        type            calculated;
        value           nonuniform List<scalar> 
175
(
153.94
153.941
153.941
153.941
153.942
153.942
153.943
153.943
153.944
153.944
153.945
153.945
153.946
153.946
153.947
153.947
153.948
153.948
153.949
153.95
153.95
153.951
153.952
153.952
153.953
153.954
153.954
153.955
153.956
153.956
153.957
153.958
153.959
153.959
153.96
153.961
153.962
153.963
153.963
153.964
153.965
153.966
153.967
153.968
153.968
153.969
153.97
153.971
153.972
153.972
153.973
153.974
153.975
153.975
153.976
153.976
153.977
153.977
153.978
153.978
153.979
153.979
153.979
153.979
153.979
153.979
153.978
153.978
153.977
153.976
153.975
153.974
153.973
153.971
153.969
153.952
153.978
154.001
154.023
154.042
154.058
154.073
154.085
154.095
154.103
154.109
154.112
154.113
154.112
154.109
154.103
154.095
154.085
154.073
154.058
154.042
154.023
154.001
153.978
153.952
153.969
153.971
153.973
153.974
153.975
153.976
153.977
153.978
153.978
153.979
153.979
153.979
153.979
153.979
153.979
153.978
153.978
153.977
153.977
153.976
153.976
153.975
153.975
153.974
153.973
153.972
153.972
153.971
153.97
153.969
153.968
153.968
153.967
153.966
153.965
153.964
153.963
153.963
153.962
153.961
153.96
153.959
153.959
153.958
153.957
153.956
153.956
153.955
153.954
153.954
153.953
153.952
153.952
153.951
153.95
153.95
153.949
153.948
153.948
153.947
153.947
153.946
153.946
153.945
153.945
153.944
153.944
153.943
153.943
153.942
153.942
153.941
153.941
153.941
153.94
)
;
    }
    stirrerWall
    {
        type            calculated;
        value           nonuniform List<scalar> 
275
(
136.334
136.333
136.332
136.332
136.331
136.331
136.331
136.331
136.332
136.332
136.333
136.333
136.334
136.335
136.335
136.336
136.337
136.338
136.339
136.34
136.341
136.343
136.344
136.345
136.346
136.347
136.348
136.35
136.351
136.352
136.353
136.354
136.355
136.357
136.358
136.359
136.36
136.361
136.362
136.363
136.364
136.365
136.366
136.367
136.368
136.369
136.37
136.371
136.372
136.373
136.374
136.375
136.376
136.376
136.377
136.378
136.379
136.38
136.38
136.381
136.382
136.382
136.383
136.384
136.384
136.385
136.386
136.386
136.387
136.387
136.388
136.388
136.389
118.611
39.125
39.125
39.4832
39.8738
40.2997
40.7643
41.2708
41.8233
42.4257
43.0827
43.7991
44.5804
45.4324
46.3616
47.3748
48.4798
49.6848
50.9989
52.432
53.9948
55.699
57.5576
59.5843
61.7946
64.2049
66.8334
69.5741
72.1998
74.6077
76.816
78.8411
80.6982
82.4012
83.963
85.3952
86.7085
87.9129
89.0174
90.0302
90.9589
91.8106
92.5916
93.3079
93.9646
94.5669
95.1192
95.6256
96.09
96.5159
96.9064
97.2646
149.954
150
150.042
150.08
150.113
150.143
150.169
150.191
150.209
150.223
150.233
150.239
150.241
150.239
150.233
150.223
150.209
150.191
150.169
150.143
150.113
150.08
150.042
150
149.954
39.125
39.4832
39.8738
40.2997
40.7643
41.2708
41.8233
42.4257
43.0827
43.7991
44.5804
45.4324
46.3616
47.3748
48.4798
49.6848
50.9989
52.432
53.9948
55.699
57.5576
59.5843
61.7946
64.2049
66.8334
69.5741
72.1998
74.6077
76.816
78.8411
80.6982
82.4012
83.963
85.3952
86.7085
87.9129
89.0174
90.0302
90.9589
91.8106
92.5916
93.3079
93.9646
94.5669
95.1192
95.6256
96.09
96.5159
96.9064
97.2646
39.125
118.611
136.389
136.388
136.388
136.387
136.387
136.386
136.386
136.385
136.384
136.384
136.383
136.382
136.382
136.381
136.38
136.38
136.379
136.378
136.377
136.376
136.376
136.375
136.374
136.373
136.372
136.371
136.37
136.369
136.368
136.367
136.366
136.365
136.364
136.363
136.362
136.361
136.36
136.359
136.358
136.357
136.355
136.354
136.353
136.352
136.351
136.35
136.348
136.347
136.346
136.345
136.344
136.343
136.341
136.34
136.339
136.338
136.337
136.336
136.335
136.335
136.334
136.333
136.333
136.332
136.332
136.331
136.331
136.331
136.331
136.332
136.332
136.333
136.334
)
;
    }
    top
    {
        type            empty;
    }
    bottom
    {
        type            empty;
    }
}


// ************************************************************************* //
