/*--------------------------------*- C++ -*----------------------------------*\
  =========                 |
  \\      /  F ield         | OpenFOAM: The Open Source CFD Toolbox
   \\    /   O peration     | Website:  https://openfoam.org
    \\  /    A nd           | Version:  10
     \\/     M anipulation  |
\*---------------------------------------------------------------------------*/
FoamFile
{
    format      ascii;
    class       volScalarField;
    location    "0";
    object      yPlus;
}
// * * * * * * * * * * * * * * * * * * * * * * * * * * * * * * * * * * * * * //

dimensions      [0 0 0 0 0 0 0];

internalField   uniform 0;

boundaryField
{
    right
    {
        type            cyclic;
    }
    left
    {
        type            cyclic;
    }
    outerWall
    {
        type            calculated;
        value           nonuniform List<scalar> 
140
(
2.67879
2.6788
2.67881
2.67882
2.67883
2.67884
2.67885
2.67886
2.67887
2.67888
2.67889
2.6789
2.67892
2.67893
2.67894
2.67895
2.67897
2.67898
2.67899
2.67901
2.67902
2.67904
2.67905
2.67907
2.67908
2.6791
2.67912
2.67913
2.67915
2.67917
2.67918
2.6792
2.67922
2.67923
2.67925
2.67927
2.67928
2.6793
2.67931
2.67933
2.67934
2.67936
2.67937
2.67938
2.67939
2.6794
2.67941
2.67941
2.67941
2.67941
2.67941
2.6794
2.67939
2.67938
2.67936
2.67934
2.67931
2.67928
2.67924
2.67919
2.67906
2.6796
2.68009
2.68052
2.68088
2.68118
2.68143
2.68161
2.68173
2.68179
2.68179
2.68173
2.68161
2.68143
2.68118
2.68088
2.68052
2.68009
2.6796
2.67906
2.67919
2.67924
2.67928
2.67931
2.67934
2.67936
2.67938
2.67939
2.6794
2.67941
2.67941
2.67941
2.67941
2.67941
2.6794
2.67939
2.67938
2.67937
2.67936
2.67934
2.67933
2.67931
2.6793
2.67928
2.67927
2.67925
2.67923
2.67922
2.6792
2.67918
2.67917
2.67915
2.67913
2.67912
2.6791
2.67908
2.67907
2.67905
2.67904
2.67902
2.67901
2.67899
2.67898
2.67897
2.67895
2.67894
2.67893
2.67892
2.6789
2.67889
2.67888
2.67887
2.67886
2.67885
2.67884
2.67883
2.67882
2.67881
2.6788
2.67879
)
;
    }
    stirrerWall
    {
        type            calculated;
        value           nonuniform List<scalar> 
220
(
2.40201
2.402
2.40199
2.40199
2.402
2.402
2.40201
2.40203
2.40204
2.40206
2.40208
2.4021
2.40213
2.40215
2.40218
2.4022
2.40223
2.40225
2.40228
2.40231
2.40234
2.40237
2.40239
2.40242
2.40245
2.40247
2.4025
2.40253
2.40255
2.40258
2.4026
2.40263
2.40265
2.40268
2.4027
2.40272
2.40274
2.40276
2.40279
2.40281
2.40283
2.40284
2.40286
2.40288
2.4029
2.40292
2.40293
2.40295
2.40296
2.40298
2.40299
2.40301
2.40302
2.40303
2.40305
2.40306
2.40307
2.40308
2.10177
0.691419
0.691419
0.69939
0.708282
0.718203
0.729272
0.741621
0.755399
0.77077
0.787921
0.807055
0.828402
0.85222
0.878793
0.908441
0.941518
0.978422
1.0196
1.06553
1.11679
1.17397
1.23422
1.2913
1.34248
1.38835
1.42948
1.46634
1.49939
1.52901
1.55556
1.57936
1.60069
1.61981
1.63695
1.65232
1.66609
1.67843
1.6895
1.69942
1.70831
1.71627
2.68005
2.68105
2.68193
2.68271
2.68338
2.68393
2.68438
2.68471
2.68493
2.68504
2.68504
2.68493
2.68471
2.68438
2.68393
2.68338
2.68271
2.68193
2.68105
2.68005
0.691419
0.69939
0.708282
0.718203
0.729272
0.741621
0.755399
0.77077
0.787921
0.807055
0.828402
0.85222
0.878793
0.908441
0.941518
0.978422
1.0196
1.06553
1.11679
1.17397
1.23422
1.2913
1.34248
1.38835
1.42948
1.46634
1.49939
1.52901
1.55556
1.57936
1.60069
1.61981
1.63695
1.65232
1.66609
1.67843
1.6895
1.69942
1.70831
1.71627
0.691419
2.10177
2.40308
2.40307
2.40306
2.40305
2.40303
2.40302
2.40301
2.40299
2.40298
2.40296
2.40295
2.40293
2.40292
2.4029
2.40288
2.40286
2.40284
2.40283
2.40281
2.40279
2.40276
2.40274
2.40272
2.4027
2.40268
2.40265
2.40263
2.4026
2.40258
2.40255
2.40253
2.4025
2.40247
2.40245
2.40242
2.40239
2.40237
2.40234
2.40231
2.40228
2.40225
2.40223
2.4022
2.40218
2.40215
2.40213
2.4021
2.40208
2.40206
2.40204
2.40203
2.40201
2.402
2.402
2.40199
2.40199
2.402
2.40201
)
;
    }
    top
    {
        type            empty;
    }
    bottom
    {
        type            empty;
    }
}


// ************************************************************************* //
