/*--------------------------------*- C++ -*----------------------------------*\
  =========                 |
  \\      /  F ield         | OpenFOAM: The Open Source CFD Toolbox
   \\    /   O peration     | Website:  https://openfoam.org
    \\  /    A nd           | Version:  10
     \\/     M anipulation  |
\*---------------------------------------------------------------------------*/
FoamFile
{
    format      ascii;
    class       volScalarField;
    location    "56000";
    object      k;
}
// * * * * * * * * * * * * * * * * * * * * * * * * * * * * * * * * * * * * * //

dimensions      [0 2 -2 0 0 0 0];

internalField   nonuniform List<scalar> 
17808
(
0.0761106
0.0858066
0.0796672
0.077525
0.0766684
0.0762729
0.0760805
0.0759882
0.0759484
0.0759376
0.0759428
0.075957
0.0759761
0.0759976
0.07602
0.0760424
0.0760641
0.0760849
0.0761045
0.0761228
0.0761399
0.0761555
0.0761699
0.076183
0.0761948
0.0762056
0.0762152
0.0762239
0.0762316
0.0762385
0.0762447
0.0762503
0.0762553
0.0762598
0.076264
0.0762678
0.0762715
0.0762751
0.0762786
0.0762822
0.076286
0.07629
0.0762944
0.0762992
0.0763045
0.0763104
0.076317
0.0763243
0.0763325
0.0763417
0.0763519
0.0763632
0.0763758
0.0763896
0.0764049
0.0764216
0.0764399
0.0764599
0.0764816
0.0765052
0.0765308
0.0765584
0.0765881
0.0766201
0.0766544
0.0766911
0.0767304
0.0767723
0.076817
0.0768645
0.0769149
0.0769684
0.0770251
0.0770851
0.0771485
0.0772155
0.077286
0.0773604
0.0774387
0.077521
0.0776075
0.0776983
0.0777935
0.0778934
0.0779981
0.0781076
0.0782223
0.0783422
0.0784676
0.0785986
0.0787354
0.0788782
0.0760562
0.0858012
0.0796781
0.0775635
0.076712
0.0763165
0.0761222
0.0760272
0.0759847
0.0759712
0.0759738
0.0759856
0.0760025
0.0760219
0.0760424
0.076063
0.0760832
0.0761025
0.0761208
0.0761379
0.0761538
0.0761685
0.0761819
0.0761941
0.0762052
0.0762152
0.0762242
0.0762322
0.0762394
0.0762458
0.0762515
0.0762566
0.0762612
0.0762653
0.0762691
0.0762726
0.076276
0.0762793
0.0762826
0.0762859
0.0762895
0.0762933
0.0762974
0.076302
0.0763072
0.0763129
0.0763193
0.0763265
0.0763346
0.0763437
0.0763538
0.076365
0.0763775
0.0763912
0.0764064
0.0764231
0.0764413
0.0764612
0.0764829
0.0765065
0.076532
0.0765595
0.0765892
0.0766212
0.0766554
0.0766921
0.0767314
0.0767733
0.0768179
0.0768654
0.0769158
0.0769694
0.077026
0.077086
0.0771494
0.0772164
0.0772869
0.0773613
0.0774396
0.0775219
0.0776084
0.0776992
0.0777944
0.0778943
0.077999
0.0781086
0.0782232
0.0783432
0.0784685
0.0785995
0.0787364
0.0788792
0.076049
0.0857739
0.0796611
0.0775685
0.0767219
0.0763302
0.0761381
0.0760445
0.0760029
0.0759898
0.0759926
0.0760044
0.0760209
0.0760399
0.0760598
0.0760797
0.0760992
0.0761177
0.0761352
0.0761516
0.0761667
0.0761807
0.0761934
0.0762049
0.0762154
0.0762248
0.0762332
0.0762406
0.0762473
0.0762532
0.0762585
0.0762631
0.0762673
0.0762711
0.0762745
0.0762777
0.0762808
0.0762837
0.0762867
0.0762899
0.0762932
0.0762967
0.0763007
0.0763051
0.07631
0.0763156
0.0763219
0.0763289
0.0763369
0.0763458
0.0763558
0.0763669
0.0763793
0.0763929
0.076408
0.0764246
0.0764428
0.0764626
0.0764843
0.0765078
0.0765332
0.0765607
0.0765904
0.0766223
0.0766565
0.0766932
0.0767324
0.0767743
0.0768189
0.0768664
0.0769168
0.0769703
0.077027
0.077087
0.0771503
0.0772173
0.0772878
0.0773622
0.0774405
0.0775228
0.0776093
0.0777001
0.0777953
0.0778952
0.0779999
0.0781095
0.0782242
0.0783441
0.0784695
0.0786005
0.0787373
0.0788801
0.0760488
0.0857527
0.07965
0.0775693
0.0767266
0.0763381
0.0761473
0.0760546
0.0760137
0.0760012
0.0760046
0.0760168
0.0760337
0.0760528
0.0760727
0.0760926
0.0761118
0.0761301
0.0761473
0.0761633
0.076178
0.0761915
0.0762038
0.0762148
0.0762248
0.0762337
0.0762417
0.0762488
0.076255
0.0762605
0.0762654
0.0762696
0.0762735
0.0762769
0.07628
0.0762829
0.0762856
0.0762883
0.0762911
0.0762939
0.076297
0.0763004
0.0763041
0.0763083
0.0763131
0.0763185
0.0763246
0.0763315
0.0763393
0.0763481
0.076358
0.076369
0.0763812
0.0763948
0.0764098
0.0764263
0.0764444
0.0764642
0.0764857
0.0765092
0.0765346
0.076562
0.0765916
0.0766235
0.0766577
0.0766943
0.0767335
0.0767754
0.0768199
0.0768674
0.0769178
0.0769713
0.0770279
0.0770879
0.0771513
0.0772182
0.0772888
0.0773631
0.0774414
0.0775237
0.0776102
0.077701
0.0777963
0.0778962
0.0780008
0.0781104
0.0782251
0.078345
0.0784704
0.0786014
0.0787383
0.0788811
0.0760535
0.0857352
0.0796408
0.0775667
0.0767297
0.0763443
0.0761547
0.0760626
0.0760221
0.07601
0.0760138
0.0760263
0.0760434
0.0760628
0.0760829
0.0761028
0.076122
0.0761403
0.0761573
0.0761732
0.0761877
0.0762009
0.0762129
0.0762237
0.0762334
0.076242
0.0762496
0.0762563
0.0762623
0.0762674
0.076272
0.076276
0.0762795
0.0762826
0.0762854
0.076288
0.0762905
0.076293
0.0762955
0.0762981
0.076301
0.0763041
0.0763077
0.0763117
0.0763163
0.0763215
0.0763274
0.0763342
0.0763419
0.0763505
0.0763603
0.0763711
0.0763833
0.0763968
0.0764117
0.0764281
0.0764461
0.0764658
0.0764873
0.0765106
0.076536
0.0765634
0.0765929
0.0766248
0.0766589
0.0766955
0.0767347
0.0767765
0.076821
0.0768685
0.0769188
0.0769723
0.077029
0.0770889
0.0771523
0.0772192
0.0772897
0.0773641
0.0774423
0.0775246
0.0776111
0.0777019
0.0777972
0.0778971
0.0780018
0.0781113
0.078226
0.078346
0.0784714
0.0786024
0.0787392
0.078882
0.076065
0.0857199
0.0796306
0.0775604
0.0767297
0.0763472
0.0761589
0.0760675
0.0760276
0.076016
0.0760202
0.0760331
0.0760506
0.0760703
0.0760906
0.0761108
0.0761302
0.0761485
0.0761656
0.0761814
0.0761958
0.076209
0.0762208
0.0762315
0.076241
0.0762494
0.0762568
0.0762633
0.076269
0.0762739
0.0762782
0.076282
0.0762852
0.0762881
0.0762907
0.0762931
0.0762954
0.0762976
0.0762999
0.0763023
0.076305
0.0763079
0.0763113
0.0763151
0.0763195
0.0763246
0.0763304
0.076337
0.0763445
0.0763531
0.0763627
0.0763734
0.0763855
0.0763988
0.0764136
0.07643
0.0764479
0.0764675
0.0764889
0.0765122
0.0765375
0.0765648
0.0765943
0.0766261
0.0766602
0.0766968
0.0767359
0.0767777
0.0768222
0.0768696
0.0769199
0.0769734
0.07703
0.0770899
0.0771533
0.0772202
0.0772907
0.0773651
0.0774433
0.0775256
0.0776121
0.0777029
0.0777982
0.077898
0.0780027
0.0781123
0.078227
0.078347
0.0784724
0.0786034
0.0787402
0.078883
0.0760808
0.085707
0.0796204
0.0775529
0.0767278
0.0763476
0.0761607
0.0760701
0.0760307
0.0760196
0.0760242
0.0760376
0.0760556
0.0760756
0.0760963
0.0761168
0.0761364
0.0761549
0.0761722
0.0761881
0.0762026
0.0762157
0.0762276
0.0762382
0.0762476
0.0762559
0.0762632
0.0762696
0.0762751
0.0762799
0.076284
0.0762876
0.0762907
0.0762934
0.0762958
0.076298
0.0763
0.0763021
0.0763042
0.0763064
0.0763089
0.0763117
0.0763149
0.0763186
0.0763228
0.0763277
0.0763334
0.0763399
0.0763473
0.0763557
0.0763651
0.0763758
0.0763877
0.076401
0.0764157
0.0764319
0.0764498
0.0764693
0.0764907
0.0765139
0.0765391
0.0765664
0.0765958
0.0766275
0.0766616
0.0766981
0.0767372
0.0767789
0.0768234
0.0768708
0.0769211
0.0769745
0.0770311
0.077091
0.0771543
0.0772212
0.0772917
0.0773661
0.0774443
0.0775266
0.0776131
0.0777039
0.0777991
0.077899
0.0780037
0.0781133
0.078228
0.0783479
0.0784733
0.0786044
0.0787412
0.078884
0.0760984
0.0856965
0.0796108
0.0775454
0.076725
0.076347
0.0761615
0.0760716
0.0760326
0.0760218
0.0760269
0.0760406
0.076059
0.0760794
0.0761005
0.0761212
0.0761412
0.0761599
0.0761774
0.0761934
0.0762081
0.0762213
0.0762332
0.0762438
0.0762532
0.0762615
0.0762688
0.0762751
0.0762805
0.0762852
0.0762893
0.0762927
0.0762957
0.0762982
0.0763005
0.0763025
0.0763045
0.0763064
0.0763083
0.0763104
0.0763128
0.0763154
0.0763184
0.076322
0.0763261
0.0763309
0.0763364
0.0763427
0.07635
0.0763583
0.0763677
0.0763782
0.07639
0.0764032
0.0764178
0.076434
0.0764517
0.0764712
0.0764924
0.0765156
0.0765407
0.076568
0.0765973
0.076629
0.076663
0.0766995
0.0767385
0.0767802
0.0768247
0.076872
0.0769223
0.0769757
0.0770322
0.0770921
0.0771554
0.0772223
0.0772928
0.0773671
0.0774453
0.0775276
0.0776141
0.0777049
0.0778001
0.0779
0.0780047
0.0781143
0.078229
0.0783489
0.0784743
0.0786054
0.0787422
0.078885
0.0761167
0.0856879
0.0796018
0.0775383
0.0767217
0.0763457
0.0761615
0.0760723
0.0760337
0.0760233
0.0760286
0.0760427
0.0760614
0.0760822
0.0761036
0.0761246
0.0761448
0.0761638
0.0761815
0.0761977
0.0762125
0.0762259
0.0762379
0.0762486
0.0762581
0.0762664
0.0762736
0.0762799
0.0762854
0.07629
0.076294
0.0762974
0.0763002
0.0763027
0.0763049
0.0763068
0.0763087
0.0763104
0.0763123
0.0763143
0.0763165
0.076319
0.0763219
0.0763253
0.0763293
0.076334
0.0763394
0.0763456
0.0763528
0.076361
0.0763702
0.0763807
0.0763924
0.0764055
0.07642
0.076436
0.0764537
0.0764731
0.0764943
0.0765174
0.0765425
0.0765696
0.0765989
0.0766305
0.0766645
0.0767009
0.0767399
0.0767815
0.076826
0.0768732
0.0769235
0.0769769
0.0770334
0.0770933
0.0771566
0.0772234
0.0772939
0.0773682
0.0774464
0.0775287
0.0776151
0.0777059
0.0778012
0.0779011
0.0780057
0.0781153
0.07823
0.07835
0.0784754
0.0786064
0.0787432
0.0788861
0.0761351
0.0856809
0.0795937
0.0775317
0.076718
0.0763438
0.0761609
0.0760724
0.0760342
0.0760241
0.0760297
0.0760441
0.0760631
0.0760842
0.0761058
0.0761272
0.0761476
0.0761669
0.0761848
0.0762012
0.0762162
0.0762297
0.0762418
0.0762526
0.0762622
0.0762705
0.0762778
0.0762842
0.0762896
0.0762942
0.0762982
0.0763015
0.0763044
0.0763068
0.0763089
0.0763108
0.0763125
0.0763142
0.076316
0.0763179
0.07632
0.0763224
0.0763253
0.0763286
0.0763325
0.076337
0.0763423
0.0763485
0.0763555
0.0763636
0.0763728
0.0763831
0.0763948
0.0764078
0.0764222
0.0764382
0.0764558
0.0764751
0.0764962
0.0765192
0.0765442
0.0765713
0.0766006
0.0766321
0.076666
0.0767024
0.0767413
0.0767829
0.0768273
0.0768746
0.0769248
0.0769781
0.0770346
0.0770945
0.0771577
0.0772245
0.077295
0.0773693
0.0774475
0.0775298
0.0776162
0.077707
0.0778022
0.0779021
0.0780068
0.0781164
0.078231
0.078351
0.0784764
0.0786074
0.0787443
0.0788871
0.0761534
0.0856753
0.0795864
0.0775256
0.0767141
0.0763415
0.0761598
0.076072
0.0760343
0.0760244
0.0760303
0.0760449
0.0760641
0.0760855
0.0761074
0.076129
0.0761497
0.0761692
0.0761873
0.076204
0.0762191
0.0762328
0.076245
0.076256
0.0762656
0.0762741
0.0762814
0.0762878
0.0762933
0.076298
0.0763019
0.0763053
0.0763081
0.0763105
0.0763126
0.0763144
0.0763161
0.0763178
0.0763195
0.0763213
0.0763233
0.0763257
0.0763284
0.0763317
0.0763355
0.07634
0.0763452
0.0763512
0.0763582
0.0763662
0.0763753
0.0763856
0.0763971
0.07641
0.0764244
0.0764403
0.0764578
0.0764771
0.0764981
0.0765211
0.076546
0.076573
0.0766022
0.0766337
0.0766676
0.0767039
0.0767428
0.0767844
0.0768287
0.0768759
0.0769261
0.0769794
0.0770359
0.0770957
0.0771589
0.0772257
0.0772962
0.0773704
0.0774486
0.0775309
0.0776173
0.0777081
0.0778033
0.0779032
0.0780078
0.0781174
0.0782321
0.0783521
0.0784775
0.0786085
0.0787454
0.0788882
0.0761709
0.0856709
0.07958
0.0775202
0.0767101
0.076339
0.0761583
0.0760712
0.0760339
0.0760243
0.0760305
0.0760453
0.0760648
0.0760864
0.0761085
0.0761304
0.0761513
0.076171
0.0761893
0.0762062
0.0762215
0.0762353
0.0762477
0.0762587
0.0762685
0.0762771
0.0762845
0.076291
0.0762965
0.0763012
0.0763052
0.0763086
0.0763114
0.0763138
0.0763159
0.0763177
0.0763194
0.076321
0.0763227
0.0763245
0.0763265
0.0763288
0.0763314
0.0763346
0.0763384
0.0763428
0.0763479
0.0763539
0.0763608
0.0763688
0.0763778
0.076388
0.0763995
0.0764123
0.0764266
0.0764424
0.0764599
0.0764791
0.0765
0.0765229
0.0765478
0.0765748
0.0766039
0.0766354
0.0766692
0.0767055
0.0767443
0.0767858
0.0768301
0.0768773
0.0769275
0.0769807
0.0770372
0.077097
0.0771602
0.0772269
0.0772974
0.0773716
0.0774498
0.077532
0.0776184
0.0777092
0.0778044
0.0779043
0.0780089
0.0781185
0.0782332
0.0783532
0.0784786
0.0786096
0.0787464
0.0788893
0.0761876
0.0856677
0.0795746
0.0775153
0.0767062
0.0763363
0.0761566
0.0760701
0.0760333
0.076024
0.0760303
0.0760454
0.0760651
0.0760869
0.0761093
0.0761313
0.0761525
0.0761724
0.0761909
0.0762079
0.0762234
0.0762374
0.0762499
0.0762611
0.0762709
0.0762796
0.0762871
0.0762937
0.0762993
0.076304
0.0763081
0.0763115
0.0763144
0.0763168
0.0763189
0.0763207
0.0763224
0.076324
0.0763256
0.0763274
0.0763294
0.0763316
0.0763343
0.0763374
0.0763411
0.0763455
0.0763506
0.0763565
0.0763634
0.0763712
0.0763802
0.0763903
0.0764018
0.0764145
0.0764288
0.0764445
0.0764619
0.0764811
0.076502
0.0765248
0.0765496
0.0765766
0.0766057
0.0766371
0.0766708
0.076707
0.0767459
0.0767873
0.0768316
0.0768787
0.0769289
0.0769821
0.0770385
0.0770983
0.0771614
0.0772282
0.0772986
0.0773728
0.077451
0.0775332
0.0776196
0.0777103
0.0778056
0.0779054
0.0780101
0.0781196
0.0782343
0.0783543
0.0784797
0.0786107
0.0787475
0.0788904
0.0762033
0.0856653
0.07957
0.0775111
0.0767025
0.0763336
0.0761547
0.0760688
0.0760324
0.0760234
0.0760299
0.0760452
0.0760651
0.0760871
0.0761097
0.0761319
0.0761533
0.0761734
0.0761921
0.0762092
0.0762249
0.076239
0.0762517
0.076263
0.076273
0.0762817
0.0762894
0.076296
0.0763017
0.0763065
0.0763106
0.076314
0.076317
0.0763194
0.0763215
0.0763234
0.0763251
0.0763267
0.0763283
0.0763301
0.076332
0.0763343
0.0763369
0.07634
0.0763437
0.076348
0.0763531
0.076359
0.0763658
0.0763736
0.0763825
0.0763926
0.076404
0.0764167
0.0764309
0.0764466
0.076464
0.076483
0.0765039
0.0765267
0.0765515
0.0765783
0.0766074
0.0766387
0.0766725
0.0767086
0.0767474
0.0767888
0.0768331
0.0768802
0.0769303
0.0769835
0.0770399
0.0770996
0.0771627
0.0772295
0.0772999
0.0773741
0.0774522
0.0775344
0.0776208
0.0777115
0.0778067
0.0779066
0.0780112
0.0781208
0.0782355
0.0783554
0.0784808
0.0786118
0.0787487
0.0788915
0.0762179
0.0856638
0.0795664
0.0775074
0.0766991
0.0763308
0.0761526
0.0760674
0.0760313
0.0760226
0.0760294
0.0760448
0.0760649
0.076087
0.0761098
0.0761323
0.0761538
0.0761741
0.076193
0.0762103
0.0762261
0.0762404
0.0762532
0.0762646
0.0762747
0.0762835
0.0762913
0.076298
0.0763037
0.0763086
0.0763128
0.0763163
0.0763193
0.0763218
0.0763239
0.0763258
0.0763275
0.0763291
0.0763308
0.0763325
0.0763345
0.0763367
0.0763394
0.0763425
0.0763461
0.0763504
0.0763554
0.0763613
0.0763681
0.0763759
0.0763848
0.0763948
0.0764061
0.0764188
0.076433
0.0764486
0.0764659
0.076485
0.0765058
0.0765285
0.0765533
0.0765801
0.0766091
0.0766404
0.0766741
0.0767102
0.076749
0.0767904
0.0768346
0.0768816
0.0769317
0.0769849
0.0770412
0.0771009
0.0771641
0.0772308
0.0773011
0.0773753
0.0774534
0.0775356
0.077622
0.0777127
0.0778079
0.0779078
0.0780124
0.078122
0.0782366
0.0783566
0.078482
0.078613
0.0787498
0.0788927
0.0762315
0.085663
0.0795635
0.0775044
0.076696
0.0763282
0.0761505
0.0760657
0.0760301
0.0760216
0.0760286
0.0760442
0.0760645
0.0760868
0.0761098
0.0761324
0.0761541
0.0761746
0.0761936
0.0762111
0.076227
0.0762414
0.0762544
0.0762659
0.0762761
0.0762851
0.0762929
0.0762997
0.0763055
0.0763105
0.0763147
0.0763183
0.0763213
0.0763238
0.076326
0.0763279
0.0763297
0.0763313
0.076333
0.0763348
0.0763367
0.076339
0.0763416
0.0763447
0.0763484
0.0763526
0.0763577
0.0763635
0.0763703
0.076378
0.0763869
0.0763969
0.0764082
0.0764209
0.076435
0.0764506
0.0764679
0.0764869
0.0765077
0.0765304
0.0765551
0.0765819
0.0766108
0.0766421
0.0766757
0.0767119
0.0767505
0.0767919
0.0768361
0.0768831
0.0769331
0.0769863
0.0770426
0.0771023
0.0771654
0.0772321
0.0773024
0.0773766
0.0774547
0.0775369
0.0776232
0.077714
0.0778091
0.077909
0.0780136
0.0781232
0.0782379
0.0783578
0.0784832
0.0786142
0.0787511
0.0788939
0.0762441
0.0856628
0.0795614
0.0775019
0.0766933
0.0763257
0.0761484
0.076064
0.0760287
0.0760205
0.0760277
0.0760435
0.0760639
0.0760864
0.0761096
0.0761323
0.0761542
0.0761748
0.076194
0.0762116
0.0762277
0.0762423
0.0762553
0.076267
0.0762773
0.0762863
0.0762943
0.0763011
0.076307
0.0763121
0.0763164
0.07632
0.0763231
0.0763257
0.0763279
0.0763299
0.0763317
0.0763333
0.076335
0.0763368
0.0763388
0.0763411
0.0763437
0.0763468
0.0763504
0.0763547
0.0763598
0.0763656
0.0763723
0.0763801
0.0763889
0.0763989
0.0764102
0.0764228
0.0764369
0.0764525
0.0764698
0.0764887
0.0765095
0.0765322
0.0765568
0.0765836
0.0766125
0.0766438
0.0766774
0.0767135
0.0767521
0.0767935
0.0768376
0.0768846
0.0769346
0.0769877
0.077044
0.0771037
0.0771668
0.0772334
0.0773038
0.0773779
0.077456
0.0775381
0.0776245
0.0777152
0.0778104
0.0779102
0.0780148
0.0781244
0.0782391
0.0783591
0.0762556
0.0856631
0.07956
0.0775
0.0766909
0.0763234
0.0761463
0.0760623
0.0760272
0.0760193
0.0760267
0.0760427
0.0760632
0.0760859
0.0761092
0.0761321
0.0761542
0.0761749
0.0761942
0.076212
0.0762282
0.0762429
0.0762561
0.0762678
0.0762782
0.0762874
0.0762954
0.0763024
0.0763083
0.0763135
0.0763178
0.0763215
0.0763247
0.0763273
0.0763296
0.0763316
0.0763334
0.0763351
0.0763369
0.0763387
0.0763407
0.076343
0.0763456
0.0763487
0.0763524
0.0763567
0.0763617
0.0763675
0.0763743
0.076382
0.0763908
0.0764008
0.0764121
0.0764247
0.0764388
0.0764544
0.0764716
0.0764905
0.0765113
0.0765339
0.0765586
0.0765853
0.0766142
0.0766454
0.076679
0.076715
0.0767537
0.076795
0.0768391
0.0768861
0.0769361
0.0769891
0.0770454
0.0771051
0.0771681
0.0772348
0.0773051
0.0773792
0.0774573
0.0775394
0.0776258
0.0777165
0.0778117
0.0779115
0.0780161
0.0781257
0.0782404
0.0783603
0.0762663
0.0856638
0.0795593
0.0774986
0.076689
0.0763212
0.0761443
0.0760605
0.0760257
0.076018
0.0760256
0.0760417
0.0760624
0.0760853
0.0761087
0.0761318
0.076154
0.0761749
0.0761943
0.0762122
0.0762286
0.0762434
0.0762566
0.0762685
0.076279
0.0762883
0.0762964
0.0763034
0.0763095
0.0763147
0.0763191
0.0763229
0.076326
0.0763288
0.0763311
0.0763331
0.076335
0.0763368
0.0763385
0.0763404
0.0763424
0.0763447
0.0763474
0.0763505
0.0763542
0.0763585
0.0763635
0.0763694
0.0763761
0.0763838
0.0763927
0.0764026
0.0764139
0.0764265
0.0764406
0.0764561
0.0764733
0.0764923
0.076513
0.0765356
0.0765602
0.076587
0.0766158
0.076647
0.0766806
0.0767166
0.0767552
0.0767965
0.0768406
0.0768876
0.0769375
0.0769906
0.0770469
0.0771065
0.0771695
0.0772361
0.0773064
0.0773806
0.0774586
0.0775407
0.0776271
0.0777178
0.077813
0.0779128
0.0780174
0.078127
0.0782417
0.0783616
0.0762761
0.0856649
0.079559
0.0774978
0.0766874
0.0763194
0.0761424
0.0760587
0.0760241
0.0760166
0.0760244
0.0760407
0.0760616
0.0760845
0.0761081
0.0761313
0.0761536
0.0761747
0.0761943
0.0762123
0.0762288
0.0762437
0.0762571
0.076269
0.0762797
0.076289
0.0762972
0.0763043
0.0763104
0.0763157
0.0763202
0.076324
0.0763273
0.07633
0.0763324
0.0763345
0.0763364
0.0763382
0.07634
0.0763419
0.076344
0.0763463
0.076349
0.0763521
0.0763558
0.0763601
0.0763652
0.076371
0.0763778
0.0763855
0.0763944
0.0764044
0.0764156
0.0764282
0.0764423
0.0764578
0.076475
0.0764939
0.0765146
0.0765373
0.0765619
0.0765886
0.0766174
0.0766486
0.0766821
0.0767182
0.0767568
0.076798
0.0768421
0.076889
0.076939
0.076992
0.0770483
0.0771079
0.0771709
0.0772375
0.0773078
0.0773819
0.0774599
0.0775421
0.0776284
0.0777191
0.0778143
0.0779141
0.0780188
0.0762851
0.0856663
0.0795593
0.0774974
0.0766862
0.0763177
0.0761407
0.076057
0.0760225
0.0760152
0.0760231
0.0760396
0.0760606
0.0760837
0.0761074
0.0761308
0.0761532
0.0761744
0.0761941
0.0762123
0.0762288
0.0762439
0.0762574
0.0762694
0.0762801
0.0762896
0.0762978
0.076305
0.0763113
0.0763166
0.0763211
0.076325
0.0763283
0.0763311
0.0763336
0.0763357
0.0763377
0.0763395
0.0763413
0.0763433
0.0763454
0.0763477
0.0763505
0.0763536
0.0763573
0.0763617
0.0763667
0.0763726
0.0763794
0.0763871
0.076396
0.076406
0.0764172
0.0764298
0.0764439
0.0764594
0.0764766
0.0764955
0.0765162
0.0765388
0.0765634
0.0765901
0.076619
0.0766501
0.0766837
0.0767197
0.0767583
0.0767995
0.0768436
0.0768905
0.0769404
0.0769934
0.0770497
0.0771093
0.0771723
0.0772389
0.0773092
0.0773832
0.0774613
0.0775434
0.0776297
0.0777204
0.0778156
0.0779155
0.0780201
0.0762934
0.085668
0.0795601
0.0774974
0.0766855
0.0763164
0.0761391
0.0760554
0.076021
0.0760137
0.0760218
0.0760384
0.0760595
0.0760828
0.0761066
0.0761301
0.0761527
0.076174
0.0761938
0.0762121
0.0762288
0.0762439
0.0762576
0.0762697
0.0762805
0.07629
0.0762984
0.0763057
0.0763119
0.0763173
0.076322
0.0763259
0.0763293
0.0763321
0.0763346
0.0763368
0.0763388
0.0763407
0.0763426
0.0763445
0.0763467
0.076349
0.0763518
0.076355
0.0763587
0.0763631
0.0763682
0.0763741
0.0763809
0.0763886
0.0763975
0.0764075
0.0764187
0.0764314
0.0764454
0.076461
0.0764782
0.0764971
0.0765178
0.0765404
0.076565
0.0765916
0.0766205
0.0766516
0.0766852
0.0767212
0.0767597
0.076801
0.076845
0.0768919
0.0769418
0.0769948
0.0770511
0.0771107
0.0771737
0.0772402
0.0773105
0.0773846
0.0774626
0.0775448
0.0776311
0.0777218
0.077817
0.0779168
0.0780215
0.0763011
0.0856699
0.0795612
0.0774978
0.0766851
0.0763154
0.0761377
0.0760538
0.0760194
0.0760123
0.0760204
0.0760372
0.0760584
0.0760818
0.0761058
0.0761294
0.0761521
0.0761735
0.0761935
0.0762119
0.0762287
0.0762439
0.0762576
0.0762699
0.0762808
0.0762904
0.0762988
0.0763062
0.0763125
0.076318
0.0763227
0.0763267
0.0763301
0.076333
0.0763355
0.0763378
0.0763398
0.0763417
0.0763437
0.0763456
0.0763478
0.0763502
0.076353
0.0763563
0.07636
0.0763644
0.0763695
0.0763754
0.0763822
0.07639
0.0763989
0.0764089
0.0764202
0.0764328
0.0764468
0.0764624
0.0764796
0.0764985
0.0765192
0.0765418
0.0765664
0.0765931
0.076622
0.0766531
0.0766866
0.0767226
0.0767612
0.0768024
0.0768464
0.0768933
0.0769432
0.0769962
0.0770525
0.077112
0.077175
0.0772416
0.0773119
0.077386
0.077464
0.0775461
0.0776324
0.0777231
0.0778183
0.0779182
0.0780228
0.0763082
0.0856719
0.0795627
0.0774986
0.076685
0.0763147
0.0761365
0.0760524
0.0760179
0.0760108
0.0760191
0.0760359
0.0760573
0.0760808
0.0761049
0.0761286
0.0761514
0.076173
0.076193
0.0762116
0.0762285
0.0762438
0.0762576
0.07627
0.076281
0.0762906
0.0762991
0.0763066
0.076313
0.0763185
0.0763233
0.0763273
0.0763308
0.0763338
0.0763363
0.0763386
0.0763407
0.0763427
0.0763446
0.0763467
0.0763489
0.0763513
0.0763542
0.0763574
0.0763612
0.0763656
0.0763708
0.0763767
0.0763835
0.0763913
0.0764002
0.0764102
0.0764215
0.0764341
0.0764482
0.0764638
0.076481
0.0764999
0.0765206
0.0765432
0.0765678
0.0765945
0.0766234
0.0766545
0.076688
0.076724
0.0767626
0.0768038
0.0768478
0.0768947
0.0769446
0.0769976
0.0770538
0.0771134
0.0771764
0.077243
0.0773132
0.0773873
0.0774654
0.0775475
0.0776338
0.0777245
0.0778197
0.0779196
0.0780242
0.0763149
0.085674
0.0795644
0.0774997
0.0766853
0.0763142
0.0761356
0.0760512
0.0760165
0.0760094
0.0760177
0.0760346
0.0760561
0.0760797
0.0761039
0.0761277
0.0761507
0.0761723
0.0761925
0.0762112
0.0762282
0.0762436
0.0762575
0.07627
0.076281
0.0762908
0.0762994
0.0763069
0.0763134
0.076319
0.0763238
0.0763279
0.0763314
0.0763344
0.0763371
0.0763394
0.0763415
0.0763435
0.0763455
0.0763476
0.0763498
0.0763523
0.0763552
0.0763585
0.0763623
0.0763667
0.0763719
0.0763778
0.0763847
0.0763925
0.0764014
0.0764115
0.0764228
0.0764354
0.0764495
0.0764651
0.0764823
0.0765012
0.076522
0.0765446
0.0765692
0.0765959
0.0766247
0.0766559
0.0766894
0.0767254
0.0767639
0.0768052
0.0768492
0.0768961
0.076946
0.076999
0.0770552
0.0771148
0.0771778
0.0772443
0.0773146
0.0773887
0.0774667
0.0775488
0.0776352
0.0777259
0.0778211
0.077921
0.0780256
0.0763211
0.0856763
0.0795664
0.0775012
0.0766859
0.0763141
0.0761348
0.0760501
0.0760152
0.076008
0.0760163
0.0760333
0.0760548
0.0760785
0.0761028
0.0761268
0.0761499
0.0761716
0.076192
0.0762107
0.0762278
0.0762433
0.0762574
0.0762699
0.076281
0.0762909
0.0762996
0.0763071
0.0763137
0.0763193
0.0763242
0.0763284
0.0763319
0.076335
0.0763377
0.0763401
0.0763422
0.0763443
0.0763463
0.0763484
0.0763507
0.0763532
0.0763561
0.0763594
0.0763633
0.0763678
0.0763729
0.0763789
0.0763858
0.0763936
0.0764026
0.0764126
0.076424
0.0764366
0.0764507
0.0764663
0.0764836
0.0765025
0.0765232
0.0765459
0.0765705
0.0765972
0.076626
0.0766572
0.0766907
0.0767267
0.0767652
0.0768065
0.0768505
0.0768974
0.0769473
0.0770003
0.0770565
0.0771161
0.0771791
0.0772457
0.0773159
0.07739
0.0774681
0.0775502
0.0776366
0.0777273
0.0778225
0.0779223
0.078027
0.0763269
0.0856785
0.0795686
0.0775029
0.0766869
0.0763142
0.0761344
0.0760491
0.0760141
0.0760067
0.076015
0.0760319
0.0760536
0.0760773
0.0761018
0.0761258
0.076149
0.0761709
0.0761913
0.0762101
0.0762274
0.076243
0.0762571
0.0762697
0.076281
0.0762909
0.0762996
0.0763073
0.0763139
0.0763196
0.0763245
0.0763288
0.0763324
0.0763355
0.0763382
0.0763407
0.0763429
0.076345
0.076347
0.0763492
0.0763515
0.0763541
0.076357
0.0763603
0.0763642
0.0763687
0.0763739
0.0763799
0.0763868
0.0763947
0.0764036
0.0764137
0.0764251
0.0764378
0.0764519
0.0764675
0.0764847
0.0765037
0.0765244
0.0765471
0.0765717
0.0765984
0.0766273
0.0766584
0.076692
0.0767279
0.0767665
0.0768078
0.0768518
0.0768987
0.0769486
0.0770016
0.0770578
0.0771174
0.0771804
0.077247
0.0773173
0.0773914
0.0774694
0.0775516
0.0776379
0.0777286
0.0778239
0.0779237
0.0780283
0.0763324
0.0856808
0.0795709
0.0775048
0.0766881
0.0763147
0.0761341
0.0760484
0.076013
0.0760055
0.0760137
0.0760306
0.0760523
0.0760761
0.0761006
0.0761248
0.0761481
0.0761701
0.0761906
0.0762095
0.0762269
0.0762426
0.0762568
0.0762695
0.0762808
0.0762909
0.0762997
0.0763074
0.076314
0.0763198
0.0763248
0.0763291
0.0763328
0.076336
0.0763387
0.0763412
0.0763434
0.0763456
0.0763477
0.0763499
0.0763522
0.0763548
0.0763578
0.0763611
0.0763651
0.0763696
0.0763748
0.0763809
0.0763878
0.0763957
0.0764046
0.0764148
0.0764261
0.0764388
0.076453
0.0764686
0.0764859
0.0765048
0.0765256
0.0765482
0.0765729
0.0765996
0.0766285
0.0766596
0.0766932
0.0767292
0.0767678
0.076809
0.076853
0.0769
0.0769499
0.0770029
0.0770591
0.0771187
0.0771817
0.0772483
0.0773186
0.0773927
0.0774708
0.0775529
0.0776393
0.07773
0.0778252
0.0779251
0.0780297
0.0763377
0.0856831
0.0795734
0.0775069
0.0766895
0.0763154
0.0761341
0.0760479
0.0760121
0.0760044
0.0760124
0.0760293
0.076051
0.0760749
0.0760995
0.0761238
0.0761471
0.0761692
0.0761898
0.0762089
0.0762263
0.0762421
0.0762564
0.0762692
0.0762806
0.0762907
0.0762996
0.0763074
0.0763141
0.07632
0.076325
0.0763294
0.0763331
0.0763363
0.0763391
0.0763416
0.0763439
0.0763461
0.0763483
0.0763505
0.0763529
0.0763555
0.0763585
0.0763619
0.0763658
0.0763704
0.0763757
0.0763817
0.0763887
0.0763966
0.0764056
0.0764157
0.0764271
0.0764398
0.076454
0.0764696
0.0764869
0.0765059
0.0765267
0.0765494
0.076574
0.0766007
0.0766296
0.0766608
0.0766944
0.0767304
0.076769
0.0768102
0.0768543
0.0769012
0.0769511
0.0770041
0.0770604
0.07712
0.077183
0.0772496
0.0773199
0.077394
0.0774721
0.0775543
0.0776407
0.0777314
0.0778266
0.0779265
0.0780311
0.0763426
0.0856853
0.0795759
0.0775092
0.0766912
0.0763163
0.0761344
0.0760476
0.0760114
0.0760034
0.0760112
0.0760281
0.0760498
0.0760737
0.0760983
0.0761227
0.0761461
0.0761683
0.076189
0.0762082
0.0762257
0.0762416
0.076256
0.0762689
0.0762804
0.0762906
0.0762995
0.0763074
0.0763142
0.0763201
0.0763252
0.0763296
0.0763334
0.0763366
0.0763395
0.076342
0.0763444
0.0763466
0.0763488
0.076351
0.0763535
0.0763561
0.0763591
0.0763626
0.0763665
0.0763711
0.0763764
0.0763825
0.0763895
0.0763974
0.0764064
0.0764166
0.076428
0.0764408
0.0764549
0.0764706
0.0764879
0.0765069
0.0765277
0.0765504
0.0765751
0.0766018
0.0766307
0.0766619
0.0766955
0.0767315
0.0767701
0.0768114
0.0768554
0.0769024
0.0769523
0.0770054
0.0770616
0.0771212
0.0771843
0.0772509
0.0773212
0.0773953
0.0774734
0.0775556
0.077642
0.0777328
0.077828
0.0779278
0.0780325
0.0763474
0.0856876
0.0795784
0.0775117
0.0766931
0.0763175
0.0761349
0.0760475
0.0760108
0.0760025
0.0760102
0.0760269
0.0760485
0.0760725
0.0760972
0.0761216
0.0761451
0.0761674
0.0761882
0.0762074
0.076225
0.0762411
0.0762555
0.0762685
0.0762801
0.0762903
0.0762994
0.0763073
0.0763141
0.0763201
0.0763253
0.0763297
0.0763336
0.0763369
0.0763398
0.0763424
0.0763448
0.076347
0.0763492
0.0763515
0.076354
0.0763567
0.0763597
0.0763632
0.0763672
0.0763718
0.0763771
0.0763833
0.0763903
0.0763982
0.0764073
0.0764175
0.0764289
0.0764417
0.0764558
0.0764716
0.0764889
0.0765079
0.0765287
0.0765514
0.0765761
0.0766029
0.0766318
0.076663
0.0766966
0.0767326
0.0767712
0.0768125
0.0768566
0.0769036
0.0769535
0.0770066
0.0770628
0.0771225
0.0771855
0.0772522
0.0773225
0.0773966
0.0774748
0.0775569
0.0776434
0.0777341
0.0778294
0.0779292
0.0780338
0.0763519
0.0856897
0.079581
0.0775142
0.0766952
0.0763189
0.0761356
0.0760476
0.0760105
0.0760017
0.0760092
0.0760258
0.0760474
0.0760713
0.076096
0.0761204
0.076144
0.0761664
0.0761873
0.0762066
0.0762243
0.0762404
0.076255
0.0762681
0.0762797
0.07629
0.0762991
0.0763071
0.0763141
0.0763201
0.0763253
0.0763298
0.0763337
0.0763371
0.07634
0.0763427
0.0763451
0.0763474
0.0763497
0.076352
0.0763545
0.0763572
0.0763603
0.0763638
0.0763678
0.0763725
0.0763778
0.0763839
0.076391
0.076399
0.076408
0.0764182
0.0764297
0.0764425
0.0764567
0.0764724
0.0764898
0.0765088
0.0765297
0.0765524
0.0765771
0.0766039
0.0766328
0.076664
0.0766976
0.0767337
0.0767723
0.0768136
0.0768577
0.0769047
0.0769547
0.0770077
0.077064
0.0771237
0.0771867
0.0772534
0.0773237
0.0773979
0.0774761
0.0775583
0.0776447
0.0777355
0.0778307
0.0779306
0.0780352
0.0763563
0.0856917
0.0795836
0.0775168
0.0766974
0.0763205
0.0761365
0.0760479
0.0760103
0.0760012
0.0760083
0.0760248
0.0760462
0.0760701
0.0760948
0.0761193
0.076143
0.0761654
0.0761864
0.0762058
0.0762236
0.0762398
0.0762544
0.0762676
0.0762793
0.0762897
0.0762989
0.0763069
0.0763139
0.07632
0.0763253
0.0763299
0.0763338
0.0763372
0.0763402
0.0763429
0.0763454
0.0763477
0.07635
0.0763524
0.0763549
0.0763577
0.0763608
0.0763643
0.0763684
0.076373
0.0763784
0.0763846
0.0763916
0.0763997
0.0764087
0.076419
0.0764305
0.0764433
0.0764575
0.0764733
0.0764906
0.0765097
0.0765306
0.0765533
0.076578
0.0766048
0.0766338
0.076665
0.0766986
0.0767347
0.0767734
0.0768147
0.0768588
0.0769058
0.0769558
0.0770089
0.0770652
0.0771248
0.0771879
0.0772546
0.077325
0.0773992
0.0774773
0.0775596
0.077646
0.0777368
0.0778321
0.0779319
0.0780366
0.0763606
0.0856936
0.0795861
0.0775195
0.0766998
0.0763223
0.0761377
0.0760484
0.0760103
0.0760007
0.0760076
0.0760238
0.0760451
0.076069
0.0760937
0.0761182
0.0761419
0.0761644
0.0761854
0.0762049
0.0762228
0.0762391
0.0762538
0.076267
0.0762788
0.0762893
0.0762986
0.0763067
0.0763138
0.0763199
0.0763253
0.0763299
0.0763339
0.0763373
0.0763404
0.0763431
0.0763456
0.076348
0.0763503
0.0763527
0.0763553
0.0763581
0.0763612