/*--------------------------------*- C++ -*----------------------------------*\
  =========                 |
  \\      /  F ield         | OpenFOAM: The Open Source CFD Toolbox
   \\    /   O peration     | Website:  https://openfoam.org
    \\  /    A nd           | Version:  10
     \\/     M anipulation  |
\*---------------------------------------------------------------------------*/
FoamFile
{
    format      ascii;
    class       volScalarField;
    location    "29000";
    object      p;
}
// * * * * * * * * * * * * * * * * * * * * * * * * * * * * * * * * * * * * * //

dimensions      [0 2 -2 0 0 0 0];

internalField   nonuniform List<scalar> 
17922
(
10.5095
10.4307
10.3505
10.2688
10.1856
10.1009
10.0146
9.92681
9.83742
9.74641
9.65378
9.55951
9.46356
9.36592
9.26657
9.16549
9.06265
8.95803
8.85161
8.74337
8.63328
8.52132
8.40747
8.29171
8.17401
8.05436
7.93272
7.80908
7.6845
7.56115
7.44009
7.32128
7.20468
7.09024
6.97794
6.86773
6.75956
6.65341
6.54924
6.447
6.34665
6.24817
6.15151
6.05664
5.96353
5.87214
5.78242
5.69436
5.60792
5.52306
5.43976
5.35797
5.27767
5.19883
5.12142
5.04541
4.97077
4.89747
4.82548
4.75478
4.68533
4.61713
4.55013
4.48432
4.41967
4.35615
4.29376
4.23245
4.17222
4.11304
4.05489
3.99775
3.9416
3.88643
3.83221
3.77892
3.72655
3.67508
3.6245
3.57479
3.52593
3.4779
3.4307
3.3843
3.3387
3.29388
3.24982
3.20651
3.16395
3.12211
3.08098
3.04056
3.00082
10.5093
10.4305
10.3503
10.2686
10.1854
10.1007
10.0145
9.92664
9.83725
9.74624
9.65362
9.55934
9.46339
9.36576
9.26641
9.16532
9.06248
8.95786
8.85145
8.7432
8.63311
8.52116
8.40731
8.29155
8.17386
8.0542
7.93256
7.80892
7.68434
7.561
7.43994
7.32113
7.20453
7.0901
6.9778
6.86759
6.75943
6.65328
6.54911
6.44687
6.34653
6.24805
6.15139
6.05652
5.96341
5.87202
5.78231
5.69425
5.60781
5.52295
5.43965
5.35786
5.27757
5.19873
5.12132
5.04531
4.97067
4.89737
4.82538
4.75469
4.68525
4.61704
4.55005
4.48424
4.4196
4.35609
4.2937
4.2324
4.17217
4.11299
4.05485
3.99772
3.94157
3.88641
3.83219
3.77891
3.72655
3.67509
3.62452
3.57481
3.52596
3.47794
3.43075
3.38437
3.33877
3.29396
3.24992
3.20662
3.16407
3.12224
3.08113
3.04073
3.00101
10.5091
10.4303
10.3501
10.2684
10.1852
10.1005
10.0142
9.92641
9.83701
9.74601
9.65338
9.5591
9.46315
9.36552
9.26616
9.16508
9.06224
8.95761
8.85119
8.74295
8.63286
8.5209
8.40705
8.29129
8.17359
8.05393
7.93229
7.80864
7.68406
7.56071
7.43965
7.32084
7.20424
7.08981
6.97751
6.86729
6.75913
6.65298
6.5488
6.44656
6.34622
6.24773
6.15108
6.05621
5.96309
5.8717
5.78199
5.69393
5.60748
5.52262
5.43931
5.35753
5.27723
5.19839
5.12098
5.04496
4.97032
4.89702
4.82503
4.75433
4.68489
4.61669
4.5497
4.48389
4.41924
4.35573
4.29334
4.23204
4.17182
4.11264
4.0545
3.99737
3.94123
3.88606
3.83185
3.77857
3.72622
3.67476
3.62419
3.57449
3.52564
3.47763
3.43045
3.38407
3.33848
3.29368
3.24964
3.20636
3.16381
3.122
3.0809
3.0405
3.0008
10.5088
10.4301
10.3499
10.2682
10.185
10.1002
10.014
9.92617
9.83677
9.74577
9.65313
9.55885
9.4629
9.36526
9.26591
9.16482
9.06197
8.95735
8.85092
8.74267
8.63258
8.52062
8.40676
8.291
8.1733
8.05364
7.93199
7.80834
7.68376
7.56041
7.43934
7.32053
7.20392
7.08949
6.97718
6.86696
6.7588
6.65265
6.54846
6.44622
6.34587
6.24739
6.15073
6.05586
5.96274
5.87134
5.78163
5.69356
5.60712
5.52225
5.43894
5.35715
5.27685
5.19801
5.1206
5.04458
4.96994
4.89663
4.82465
4.75394
4.6845
4.6163
4.5493
4.4835
4.41885
4.35534
4.29295
4.23165
4.17143
4.11226
4.05412
3.99699
3.94085
3.88569
3.83148
3.7782
3.72585
3.6744
3.62384
3.57414
3.5253
3.4773
3.43012
3.38375
3.33817
3.29338
3.24935
3.20607
3.16354
3.12174
3.08065
3.04027
3.00058
10.5086
10.4299
10.3496
10.2679
10.1847
10.1
10.0138
9.92595
9.83655
9.74554
9.65291
9.55863
9.46267
9.36503
9.26567
9.16458
9.06173
8.95711
8.85068
8.74243
8.63233
8.52036
8.40651
8.29074
8.17303
8.05337
7.93172
7.80807
7.68348
7.56013
7.43906
7.32024
7.20363
7.0892
6.97689
6.86667
6.7585
6.65234
6.54816
6.44591
6.34556
6.24708
6.15041
6.05554
5.96242
5.87102
5.7813
5.69323
5.60678
5.52192
5.43861
5.35681
5.27651
5.19767
5.12025
5.04423
4.96959
4.89628
4.82429
4.75359
4.68415
4.61594
4.54895
4.48314
4.41849
4.35498
4.29259
4.2313
4.17108
4.11191
4.05377
3.99664
3.94051
3.88535
3.83114
3.77787
3.72552
3.67408
3.62352
3.57383
3.52499
3.477
3.42983
3.38346
3.3379
3.29311
3.24909
3.20583
3.16331
3.12152
3.08045
3.04008
3.0004
10.5084
10.4297
10.3494
10.2677
10.1845
10.0998
10.0136
9.92575
9.83634
9.74533
9.6527
9.55841
9.46246
9.36481
9.26545
9.16436
9.06151
8.95688
8.85045
8.74219
8.63209
8.52013
8.40627
8.2905
8.17279
8.05312
7.93147
7.80781
7.68322
7.55986
7.43879
7.31997
7.20336
7.08892
6.97661
6.86639
6.75822
6.65206
6.54787
6.44562
6.34527
6.24678
6.15011
6.05524
5.96211
5.87071
5.78099
5.69292
5.60647
5.5216
5.43829
5.35649
5.27618
5.19734
5.11992
5.0439
4.96925
4.89594
4.82395
4.75325
4.68381
4.6156
4.5486
4.4828
4.41815
4.35464
4.29225
4.23096
4.17074
4.11157
4.05343
3.99631
3.94018
3.88502
3.83082
3.77755
3.72521
3.67377
3.62321
3.57353
3.5247
3.47671
3.42955
3.3832
3.33764
3.29286
3.24886
3.2056
3.1631
3.12132
3.08026
3.0399
3.00024
10.5082
10.4295
10.3493
10.2676
10.1844
10.0996
10.0134
9.92555
9.83615
9.74513
9.6525
9.55821
9.46225
9.36461
9.26524
9.16415
9.0613
8.95666
8.85023
8.74197
8.63187
8.5199
8.40604
8.29026
8.17255
8.05288
7.93123
7.80757
7.68298
7.55961
7.43854
7.31972
7.2031
7.08866
6.97634
6.86612
6.75794
6.65178
6.54759
6.44534
6.34499
6.24649
6.14983
6.05495
5.96182
5.87041
5.78069
5.69262
5.60616
5.52129
5.43798
5.35618
5.27587
5.19702
5.1196
5.04358
4.96892
4.89562
4.82362
4.75292
4.68347
4.61527
4.54827
4.48246
4.41782
4.35431
4.29192
4.23063
4.17041
4.11124
4.05311
3.99599
3.93986
3.8847
3.83051
3.77725
3.72491
3.67347
3.62292
3.57324
3.52442
3.47644
3.42929
3.38294
3.33739
3.29263
3.24863
3.20539
3.16289
3.12113
3.08008
3.03974
3.00009
10.5081
10.4293
10.3491
10.2674
10.1842
10.0995
10.0132
9.92537
9.83596
9.74495
9.65231
9.55802
9.46206
9.36441
9.26505
9.16395
9.06109
8.95646
8.85002
8.74177
8.63166
8.51969
8.40582
8.29005
8.17233
8.05266
7.931
7.80734
7.68274
7.55938
7.4383
7.31947
7.20286
7.08841
6.97609
6.86586
6.75769
6.65152
6.54733
6.44507
6.34472
6.24622
6.14955
6.05467
5.96154
5.87013
5.78041
5.69233
5.60587
5.521
5.43768
5.35588
5.27556
5.19671
5.11929
5.04326
4.96861
4.8953
4.82331
4.7526
4.68316
4.61495
4.54795
4.48214
4.4175
4.35399
4.2916
4.23031
4.17009
4.11093
4.0528
3.99568
3.93955
3.8844
3.83021
3.77695
3.72461
3.67318
3.62264
3.57297
3.52416
3.47618
3.42903
3.3827
3.33716
3.2924
3.24842
3.20519
3.1627
3.12095
3.07992
3.03959
2.99996
10.5079
10.4291
10.3489
10.2672
10.184
10.0993
10.013
9.92519
9.83578
9.74477
9.65213
9.55784
9.46188
9.36423
9.26486
9.16376
9.0609
8.95627
8.84983
8.74157
8.63146
8.51949
8.40562
8.28984
8.17212
8.05245
7.93079
7.80712
7.68252
7.55915
7.43807
7.31924
7.20262
7.08817
6.97585
6.86562
6.75744
6.65127
6.54708
6.44482
6.34446
6.24596
6.14929
6.0544
5.96127
5.86986
5.78013
5.69205
5.60559
5.52071
5.43739
5.35559
5.27527
5.19642
5.11899
5.04296
4.96831
4.895
4.823
4.75229
4.68285
4.61464
4.54764
4.48183
4.41719
4.35368
4.2913
4.23
4.16979
4.11062
4.05249
3.99538
3.93926
3.88411
3.82992
3.77667
3.72434
3.67291
3.62237
3.57271
3.5239
3.47593
3.4288
3.38247
3.33694
3.29219
3.24822
3.205
3.16253
3.12079
3.07977
3.03945
2.99984
10.5077
10.429
10.3487
10.267
10.1838
10.0991
10.0129
9.92503
9.83562
9.7446
9.65196
9.55767
9.46171
9.36405
9.26469
9.16358
9.06073
8.95609
8.84965
8.74138
8.63127
8.5193
8.40543
8.28964
8.17192
8.05225
7.93058
7.80692
7.68231
7.55894
7.43786
7.31903
7.2024
7.08795
6.97562
6.86539
6.75721
6.65104
6.54684
6.44458
6.34422
6.24571
6.14904
6.05415
5.96101
5.8696
5.77987
5.69179
5.60532
5.52044
5.43712
5.35531
5.27499
5.19613
5.11871
5.04268
4.96802
4.8947
4.82271
4.752
4.68255
4.61434
4.54734
4.48154
4.41689
4.35339
4.291
4.22971
4.1695
4.11033
4.05221
3.99509
3.93897
3.88383
3.82964
3.77639
3.72407
3.67265
3.62212
3.57246
3.52366
3.4757
3.42857
3.38225
3.33673
3.292
3.24803
3.20483
3.16237
3.12064
3.07963
3.03933
2.99973
10.5076
10.4288
10.3486
10.2669
10.1837
10.099
10.0127
9.92487
9.83546
9.74444
9.6518
9.55751
9.46154
9.36389
9.26452
9.16342
9.06056
8.95592
8.84948
8.74121
8.6311
8.51912
8.40525
8.28946
8.17174
8.05206
7.93039
7.80672
7.68212
7.55874
7.43765
7.31882
7.20219
7.08774
6.97541
6.86517
6.75699
6.65081
6.54661
6.44435
6.34398
6.24548
6.1488
6.05391
5.96077
5.86935
5.77962
5.69153
5.60507
5.52018
5.43685
5.35504
5.27472
5.19586
5.11843
5.0424
4.96774
4.89442
4.82242
4.75171
4.68227
4.61406
4.54706
4.48125
4.41661
4.3531
4.29072
4.22943
4.16921
4.11005
4.05193
3.99482
3.9387
3.88356
3.82938
3.77613
3.72381
3.6724
3.62188
3.57222
3.52343
3.47548
3.42836
3.38205
3.33654
3.29181
3.24786
3.20467
3.16222
3.1205
3.07951
3.03923
2.99964
10.5074
10.4287
10.3484
10.2667
10.1835
10.0988
10.0126
9.92473
9.83531
9.7443
9.65165
9.55736
9.46139
9.36374
9.26437
9.16326
9.0604
8.95576
8.84932
8.74105
8.63093
8.51895
8.40508
8.28929
8.17157
8.05188
7.93021
7.80654
7.68193
7.55855
7.43746
7.31863
7.202
7.08754
6.97521
6.86497
6.75678
6.6506
6.5464
6.44413
6.34376
6.24525
6.14857
6.05368
5.96054
5.86911
5.77938
5.69129
5.60482
5.51993
5.4366
5.35479
5.27447
5.1956
5.11817
5.04214
4.96747
4.89416
4.82215
4.75144
4.68199
4.61378
4.54679
4.48098
4.41633
4.35283
4.29044
4.22916
4.16895
4.10979
4.05166
3.99456
3.93844
3.88331
3.82913
3.77589
3.72357
3.67217
3.62165
3.572
3.52322
3.47527
3.42816
3.38186
3.33636
3.29165
3.2477
3.20452
3.16209
3.12038
3.0794
3.03913
2.99956
10.5073
10.4285
10.3483
10.2666
10.1834
10.0987
10.0124
9.92459
9.83518
9.74416
9.65151
9.55722
9.46125
9.3636
9.26423
9.16312
9.06026
8.95561
8.84917
8.7409
8.63078
8.5188
8.40492
8.28913
8.1714
8.05172
7.93005
7.80637
7.68176
7.55838
7.43729
7.31844
7.20181
7.08735
6.97502
6.86477
6.75658
6.6504
6.54619
6.44392
6.34355
6.24504
6.14836
6.05346
5.96032
5.86889
5.77915
5.69106
5.60459
5.5197
5.43636
5.35455
5.27422
5.19535
5.11792
5.04188
4.96722
4.8939
4.8219
4.75118
4.68173
4.61352
4.54652
4.48071
4.41607
4.35257
4.29018
4.2289
4.16869
4.10953
4.05141
3.99431
3.9382
3.88306
3.82889
3.77566
3.72335
3.67194
3.62143
3.57179
3.52301
3.47508
3.42797
3.38168
3.33619
3.29149
3.24756
3.20439
3.16197
3.12028
3.07931
3.03905
2.99949
10.5072
10.4284
10.3482
10.2665
10.1833
10.0986
10.0123
9.92446
9.83505
9.74403
9.65139
9.55709
9.46112
9.36347
9.2641
9.16299
9.06012
8.95548
8.84903
8.74076
8.63064
8.51865
8.40478
8.28898
8.17125
8.05156
7.92989
7.80621
7.6816
7.55821
7.43712
7.31827
7.20164
7.08717
6.97484
6.86459
6.7564
6.65021
6.546
6.44373
6.34336
6.24484
6.14815
6.05325
5.96011
5.86868
5.77893
5.69084
5.60436
5.51947
5.43613
5.35431
5.27399
5.19512
5.11768
5.04164
4.96697
4.89365
4.82165
4.75093
4.68148
4.61327
4.54627
4.48046
4.41582
4.35232
4.28994
4.22865
4.16844
4.10929
4.05117
3.99407
3.93796
3.88283
3.82866
3.77543
3.72313
3.67173
3.62123
3.5716
3.52283
3.4749
3.4278
3.38152
3.33604
3.29135
3.24743
3.20427
3.16186
3.12018
3.07923
3.03898
2.99944
10.507
10.4283
10.3481
10.2664
10.1832
10.0984
10.0122
9.92435
9.83493
9.74391
9.65127
9.55697
9.46101
9.36335
9.26397
9.16286
9.06
8.95535
8.8489
8.74063
8.63051
8.51852
8.40464
8.28885
8.17111
8.05142
7.92975
7.80606
7.68145
7.55806
7.43696
7.31811
7.20148
7.08701
6.97467
6.86442
6.75622
6.65004
6.54582
6.44355
6.34317
6.24465
6.14796
6.05306
5.95991
5.86848
5.77873
5.69063
5.60415
5.51926
5.43592
5.3541
5.27376
5.19489
5.11745
5.04141
4.96674
4.89342
4.82141
4.7507
4.68125
4.61303
4.54603
4.48023
4.41558
4.35208
4.2897
4.22842
4.16821
4.10906
4.05095
3.99385
3.93774
3.88262
3.82845
3.77523
3.72293
3.67154
3.62104
3.57141
3.52265
3.47473
3.42765
3.38137
3.3359
3.29122
3.24731
3.20417
3.16177
3.1201
3.07916
3.03893
2.9994
10.5069
10.4282
10.348
10.2663
10.1831
10.0983
10.0121
9.92424
9.83483
9.74381
9.65116
9.55686
9.4609
9.36324
9.26386
9.16275
9.05988
8.95524
8.84879
8.74051
8.63039
8.5184
8.40452
8.28872
8.17099
8.05129
7.92961
7.80593
7.68131
7.55792
7.43682
7.31797
7.20133
7.08686
6.97451
6.86426
6.75606
6.64987
6.54566
6.44338
6.343
6.24448
6.14778
6.05288
5.95972
5.86829
5.77854
5.69044
5.60396
5.51906
5.43571
5.35389
5.27355
5.19468
5.11724
5.04119
4.96652
4.8932
4.82119
4.75047
4.68102
4.61281
4.54581
4.48
4.41536
4.35186
4.28948
4.2282
4.168
4.10885
4.05073
3.99364
3.93754
3.88241
3.82825
3.77503
3.72274
3.67135
3.62086
3.57125
3.52249
3.47458
3.4275
3.38124
3.33578
3.29111
3.24721
3.20407
3.16169
3.12004
3.07911
3.03889
2.99937
10.8077
10.7346
10.6601
10.5842
10.5068
10.4281
10.3479
10.2662
10.183
10.0982
10.012
9.92414
9.83473
9.74371
9.65106
9.55676
9.4608
9.36314
9.26376
9.16265
9.05978
8.95513
8.84868
8.7404
8.63028
8.51829
8.4044
8.28861
8.17087
8.05117
7.92949
7.8058
7.68118
7.55779
7.43669
7.31783
7.20119
7.08671
6.97437
6.86411
6.75591
6.64972
6.5455
6.44322
6.34283
6.24431
6.14761
6.0527
5.95955
5.86811
5.77836
5.69025
5.60377
5.51887
5.43552
5.35369
5.27336
5.19448
5.11703
5.04099
4.96631
4.89299
4.82098
4.75026
4.68081
4.61259
4.54559
4.47979
4.41514
4.35165
4.28927
4.22799
4.16779
4.10865
4.05053
3.99344
3.93734
3.88222
3.82807
3.77485
3.72256
3.67119
3.6207
3.57109
3.52234
3.47444
3.42737
3.38112
3.33567
3.29101
3.24712
3.204
3.16162
3.11998
3.07907
3.03886
2.99935
10.8076
10.7345
10.66
10.5841
10.5067
10.428
10.3478
10.2661
10.1829
10.0981
10.0119
9.92406
9.83464
9.74362
9.65097
9.55668
9.46071
9.36305
9.26367
9.16256
9.05969
8.95504
8.84858
8.74031
8.63018
8.51819
8.4043
8.2885
8.17076
8.05106
7.92938
7.80569
7.68107
7.55767
7.43656
7.31771
7.20106
7.08658
6.97424
6.86398
6.75577
6.64958
6.54536
6.44307
6.34268
6.24416
6.14746
6.05254
5.95938
5.86794
5.77819
5.69008
5.60359
5.51869
5.43534
5.35351
5.27317
5.19429
5.11684
5.04079
4.96612
4.89279
4.82078
4.75006
4.6806
4.61239
4.54539
4.47958
4.41494
4.35145
4.28908
4.2278
4.1676
4.10846
4.05035
3.99326
3.93716
3.88205
3.8279
3.77469
3.7224
3.67103
3.62055
3.57095
3.52221
3.47432
3.42726
3.38101
3.33557
3.29092
3.24705
3.20393
3.16157
3.11994
3.07904
3.03885
2.99935
10.8075
10.7344
10.6599
10.584
10.5067
10.4279
10.3477
10.266
10.1828
10.0981
10.0118
9.92398
9.83456
9.74354
9.65089
9.5566
9.46063
9.36296
9.26359
9.16248
9.0596
8.95495
8.8485
8.74022
8.63009
8.5181
8.40421
8.28841
8.17067
8.05097
7.92928
7.80559
7.68096
7.55756
7.43645
7.3176
7.20095
7.08647
6.97412
6.86386
6.75565
6.64945
6.54522
6.44293
6.34254
6.24402
6.14731
6.0524
5.95923
5.86779
5.77803
5.68992
5.60343
5.51852
5.43517
5.35334
5.27299
5.19411
5.11666
5.04061
4.96593
4.8926
4.82059
4.74987
4.68041
4.6122
4.5452
4.47939
4.41476
4.35127
4.2889
4.22762
4.16743
4.10828
4.05018
3.99309
3.937
3.88189
3.82774
3.77453
3.72226
3.67089
3.62042
3.57082
3.52209
3.47421
3.42715
3.38092
3.33549
3.29085
3.24698
3.20388
3.16153
3.11991
3.07902
3.03884
2.99936
11.0188
10.9496
10.8792
10.8074
10.7343
10.6598
10.5839
10.5066
10.4278
10.3476
10.2659
10.1827
10.098
10.0117
9.92391
9.8345
9.74347
9.65083
9.55653
9.46056
9.36289
9.26352
9.1624
9.05953
8.95488
8.84842
8.74014
8.63002
8.51802
8.40413
8.28832
8.17058
8.05088
7.92919
7.8055
7.68087
7.55747
7.43636
7.31749
7.20084
7.08636
6.97401
6.86374
6.75553
6.64933
6.5451
6.44281
6.34242
6.24389
6.14718
6.05226
5.95909
5.86765
5.77789
5.68977
5.60328
5.51837
5.43501
5.35318
5.27283
5.19395
5.11649
5.04044
4.96576
4.89243
4.82041
4.74969
4.68023
4.61202
4.54502
4.47922
4.41458
4.35109
4.28873
4.22746
4.16727
4.10813
4.05002
3.99293
3.93685
3.88174
3.8276
3.7744
3.72212
3.67076
3.6203
3.57071
3.52199
3.47411
3.42707
3.38084
3.33542
3.29079
3.24694
3.20385
3.1615
3.1199
3.07902
3.03885
2.99938
11.0187
10.9496
10.8791
10.8074
10.7343
10.6598
10.5839
10.5065
10.4278
10.3476
10.2659
10.1827
10.0979
10.0117
9.92385
9.83444
9.74341
9.65077
9.55647
9.4605
9.36283
9.26346
9.16234
9.05947
8.95481
8.84836
8.74008
8.62995
8.51795
8.40406
8.28825
8.17051
8.0508
7.92911
7.80542
7.68078
7.55738
7.43627
7.3174
7.20075
7.08626
6.97391
6.86364
6.75543
6.64922
6.54499
6.4427
6.3423
6.24377
6.14706
6.05213
5.95897
5.86752
5.77775
5.68964
5.60314
5.51823
5.43487
5.35303
5.27268
5.19379
5.11633
5.04028
4.9656
4.89226
4.82025
4.74952
4.68007
4.61185
4.54485
4.47905
4.41441
4.35093
4.28858
4.22732
4.16712
4.10798
4.04988
3.9928
3.93671
3.88161
3.82747
3.77427
3.72201
3.67065
3.62019
3.57061
3.52189
3.47403
3.42699
3.38078
3.33537
3.29075
3.2469
3.20382
3.16149
3.1199
3.07903
3.03887
2.99942
11.0186
10.9495
10.8791
10.8073
10.7342
10.6597
10.5838
10.5065
10.4277
10.3475
10.2658
10.1826
10.0979
10.0116
9.9238
9.83439
9.74336
9.65072
9.55642
9.46045
9.36278
9.2634
9.16229
9.05941
8.95476
8.8483
8.74002
8.62989
8.51789
8.404
8.28819
8.17044
8.05074
7.92905
7.80535
7.68071
7.55731
7.43619
7.31732
7.20067
7.08618
6.97382
6.86355
6.75533
6.64913
6.54489
6.4426
6.3422
6.24366
6.14695
6.05202
5.95885
5.8674
5.77763
5.68951
5.60301
5.5181
5.43473
5.35289
5.27254
5.19365
5.11619
5.04013
4.96545
4.89211
4.82009
4.74937
4.67991
4.61169
4.54469
4.47889
4.41426
4.35079
4.28845
4.22719
4.167
4.10786
4.04975
3.99267
3.93659
3.88149
3.82735
3.77416
3.7219
3.67055
3.6201
3.57053
3.52182
3.47396
3.42693
3.38073
3.33532
3.29071
3.24688
3.20381
3.16149
3.11991
3.07905
3.03891
2.99946
11.0186
10.9495
10.8791
10.8073
10.7342
10.6597
10.5838
10.5064
10.4277
10.3475
10.2658
10.1826
10.0979
10.0116
9.92376
9.83435
9.74332
9.65067
9.55638
9.4604
9.36274
9.26336
9.16225
9.05937
8.95472
8.84826
8.73997
8.62984
8.51784
8.40395
8.28814
8.17039
8.05068
7.92899
7.80529
7.68065
7.55724
7.43612
7.31725
7.20059
7.0861
6.97374
6.86347
6.75525
6.64904
6.54481
6.44251
6.3421
6.24356
6.14685
6.05192
5.95875
5.86729
5.77752
5.6894
5.60289
5.51798
5.43461
5.35277
5.27241
5.19352
5.11606
5.04
4.96531
4.89197
4.81995
4.74923
4.67976
4.61154
4.54454
4.47874
4.41413
4.35067
4.28833
4.22708
4.16689
4.10775
4.04964
3.99256
3.93648
3.88139
3.82725
3.77407
3.72181
3.67047
3.62002
3.57046
3.52175
3.4739
3.42689
3.38069
3.3353
3.2907
3.24687
3.20382
3.16151
3.11994
3.07909
3.03896
2.99952
11.0186
10.9495
10.879
10.8073
10.7341
10.6596
10.5837
10.5064
10.4277
10.3474
10.2657
10.1825
10.0978
10.0116
9.92373
9.83432
9.74329
9.65064
9.55634
9.46037
9.36271
9.26333
9.16221
9.05934
8.95468
8.84822
8.73994
8.6298
8.5178
8.40391
8.2881
8.17035
8.05064
7.92894
7.80524
7.6806
7.55719
7.43607
7.3172
7.20053
7.08604
6.97368
6.8634
6.75518
6.64897
6.54473
6.44243
6.34202
6.24348
6.14676
6.05183
5.95865
5.8672
5.77742
5.6893
5.60279
5.51787
5.4345
5.35265
5.2723
5.1934
5.11594
5.03988
4.96519
4.89185
4.81982
4.74909
4.67963
4.61141
4.54441
4.47862
4.41402
4.35056
4.28822
4.22697
4.16679
4.10765
4.04955
3.99247
3.93639
3.8813
3.82717
3.77399
3.72174
3.6704
3.61996
3.5704
3.52171
3.47386
3.42686
3.38067
3.33529
3.29069
3.24688
3.20383
3.16154
3.11998
3.07914
3.03902
2.99959
11.0185
10.9494
10.879
10.8072
10.7341
10.6596
10.5837
10.5064
10.4276
10.3474
10.2657
10.1825
10.0978
10.0115
9.92371
9.83429
9.74327
9.65062
9.55632
9.46035
9.36269
9.26331
9.16219
9.05931
8.95466
8.8482
8.73991
8.62978
8.51777
8.40388
8.28806
8.17031
8.0506
7.92891
7.8052
7.68056
7.55715
7.43602
7.31715
7.20049
7.08599
6.97362
6.86335
6.75512
6.64891
6.54467
6.44236
6.34195
6.24341
6.14669
6.05175
5.95857
5.86711
5.77734
5.68921
5.6027
5.51778
5.4344
5.35255
5.2722
5.1933
5.11583
5.03977
4.96508
4.89173
4.81971
4.74898
4.67951
4.61129
4.5443
4.47852
4.41392
4.35047
4.28813
4.22688
4.1667
4.10757
4.04947
3.99239
3.93631
3.88122
3.8271
3.77392
3.72168
3.67034
3.61991
3.57036
3.52167
3.47384
3.42684
3.38066
3.33529
3.29071
3.2469
3.20387
3.16158
3.12003
3.0792
3.03909
2.99967
11.0185
10.9494
10.879
10.8072
10.7341
10.6596
10.5837
10.5064
10.4276
10.3474
10.2657
10.1825
10.0978
10.0115
9.9237
9.83428
9.74326
9.65061
9.55631
9.46034
9.36267
9.26329
9.16217
9.0593
8.95464
8.84818
8.73989
8.62976
8.51775
8.40386
8.28804
8.17029
8.05058
7.92888
7.80517
7.68053
7.55711
7.43599
7.31711
7.20045
7.08595
6.97358
6.8633
6.75507
6.64886
6.54461
6.44231
6.3419
6.24335
6.14662
6.05169
5.9585
5.86704
5.77726
5.68913
5.60262
5.51769
5.43432
5.35247
5.27211
5.19321
5.11574
5.03967
4.96498
4.89163
4.81961
4.74887
4.6794
4.61119
4.54421
4.47845
4.41385
4.35039
4.28805
4.2268
4.16663
4.1075
4.04939
3.99232
3.93625
3.88116
3.82704
3.77387
3.72163
3.6703
3.61988
3.57033
3.52166
3.47383
3.42684
3.38067
3.3353
3.29073
3.24694
3.20391
3.16163
3.12009
3.07928
3.03918
2.99977
11.0185
10.9494
10.879
10.8072
10.7341
10.6596
10.5837
10.5064
10.4276
10.3474
10.2657
10.1825
10.0978
10.0115
9.92369
9.83428
9.74326
9.65061
9.55631
9.46033
9.36267
9.26329
9.16217
9.05929
8.95463
8.84817
8.73989
8.62975
8.51774
8.40385
8.28803
8.17028
8.05056
7.92886
7.80515
7.68051
7.55709
7.43597
7.31709
7.20042
7.08592
6.97355
6.86327
6.75504
6.64882
6.54457
6.44226
6.34185
6.2433
6.14657
6.05163
5.95845
5.86698
5.7772
5.68907
5.60255
5.51762
5.43425
5.35239
5.27203
5.19313
5.11565
5.03959
4.96489
4.89154
4.81952
4.74878
4.67931
4.61111
4.54415
4.47838
4.41378
4.35033
4.28799
4.22674
4.16657
4.10744
4.04934
3.99226
3.9362
3.88111
3.827
3.77383
3.7216
3.67028
3.61986
3.57032
3.52165
3.47383
3.42685
3.38069
3.33534
3.29077
3.24699
3.20397
3.1617
3.12017
3.07937
3.03928
2.99988
11.0185
10.9494
10.879
10.8072
10.7341
10.6596
10.5837
10.5064
10.4276
10.3474
10.2657
10.1825
10.0978
10.0115
9.9237
9.83429
9.74326
9.65061
9.55631
9.46034
9.36267
9.26329
9.16217
9.0593
8.95464
8.84818
8.73989
8.62975
8.51775
8.40385
8.28803
8.17028
8.05056
7.92886
7.80515
7.6805
7.55708
7.43595
7.31707
7.2004
7.0859
6.97353
6.86324
6.75501
6.64879
6.54454
6.44223
6.34181
6.24326
6.14653
6.05159
5.9584
5.86694
5.77715
5.68902
5.6025
5.51757
5.43419
5.35233
5.27196
5.19306
5.11559
5.03952
4.96482
4.89147
4.81944
4.7487
4.67925
4.61106
4.5441
4.47833
4.41373
4.35028
4.28794
4.22669
4.16652
4.10739
4.04929
3.99222
3.93616
3.88108
3.82697
3.77381
3.72158
3.67027
3.61986
3.57033
3.52167
3.47385
3.42688
3.38073
3.33538
3.29083
3.24706
3.20405
3.16179
3.12027
3.07947
3.03939
3
11.0186
10.9495
10.879
10.8073
10.7341
10.6596
10.5837
10.5064
10.4277
10.3474
10.2657
10.1825
10.0978
10.0115
9.92372
9.8343
9.74328
9.65063
9.55633
9.46035
9.36269
9.26331
9.16219
9.05931
8.95465
8.84819
8.7399
8.62976
8.51776
8.40385
8.28804
8.17028
8.05056
7.92886
7.80515
7.6805
7.55708
7.43595
7.31707
7.2004
7.08589
6.97352
6.86323
6.755
6.64877
6.54452
6.44221
6.34179
6.24324
6.1465
6.05156
5.95837
5.8669
5.77711
5.68898
5.60246
5.51752
5.43414
5.35228
5.27191
5.19301
5.11553
5.03946
4.96476
4.89141
4.81938
4.74864
4.6792
4.61103
4.54407
4.4783
4.4137
4.35025
4.28791
4.22666
4.16648
4.10736
4.04926
3.9922
3.93614
3.88106
3.82696
3.7738
3.72158
3.67028
3.61987
3.57035
3.52169
3.47389
3.42693
3.38078
3.33545
3.2909
3.24714
3.20414
3.16189
3.12038
3.07959
3.03952
3.00014
11.0186
10.9495
10.8791
10.8073
10.7342
10.6597
10.5838
10.5064
10.4277
10.3475
10.2658
10.1826
10.0978
10.0116
9.92374
9.83433
9.7433
9.65065
9.55635
9.46038
9.36271
9.26333
9.16221
9.05933
8.95467
8.84821
8.73992
8.62978
8.51778
8.40387
8.28806
8.1703
8.05058
7.92888
7.80516
7.68051
7.55709
7.43596
7.31708
7.2004
7.0859
6.97352
6.86323
6.755
6.64877
6.54452
6.4422
6.34178
6.24322
6.14649
6.05154
5.95835
5.86688
5.77709
5.68895
5.60243
5.51749
5.43411
5.35225
5.27188
5.19297
5.11549
5.03942
4.96472
4.89136
4.81933
4.74861
4.67918
4.61101
4.54405
4.47828
4.41369
4.35023
4.28789
4.22664
4.16646
4.10734
4.04925
3.99219
3.93613
3.88106
3.82696
3.77381
3.7216
3.6703
3.6199
3.57039
3.52174
3.47394
3.42699
3.38085
3.33552
3.29099
3.24723
3.20424
3.16201
3.1205
3.07973
3.03966
3.00029
11.0186
10.9495
10.8791
10.8073
10.7342
10.6597
10.5838
10.5065
10.4277
10.3475
10.2658
10.1826
10.0979
10.0116
9.92378
9.83436
9.74334
9.65069
9.55639
9.46041
9.36275
9.26336
9.16224
9.05937
8.9547
8.84824
8.73995
8.62981
8.5178
8.4039
8.28808
8.17033
8.05061
7.9289
7.80519
7.68054
7.55711
7.43598
7.31709
7.20042
7.08591
6.97353
6.86324
6.755
6.64878
6.54452
6.4422
6.34178
6.24322
6.14649
6.05154
5.95835
5.86687
5.77708
5.68894
5.60241
5.51747
5.43409
5.35222
5.27185
5.19294
5.11546
5.03939
4.96468
4.89133
4.8193
4.7486
4.67918
4.611
4.54405
4.47828
4.41368
4.35023
4.28789
4.22664
4.16646
4.10733
4.04925
3.99219
3.93614
3.88108
3.82698
3.77384
3.72163
3.67034
3.61995
3.57044
3.5218
3.47401
3.42706
3.38094
3.33562
3.29109
3.24735
3.20437
3.16214
3.12064
3.07988
3.03982
3.00046
11.0187
10.9496
10.8791
10.8074
10.7342
10.6597
10.5838
10.5065
10.4278
10.3475
10.2658
10.1826
10.0979
10.0117
9.92382
9.8344
9.74338
9.65073
9.55643
9.46045
9.36279
9.26341
9.16229
9.05941
8.95475
8.84828
8.73999
8.62985
8.51784
8.40394
8.28812
8.17036
8.05064
7.92894
7.80522
7.68057
7.55714
7.43601
7.31712
7.20045
7.08594
6.97356
6.86327
6.75503
6.6488
6.54454
6.44222
6.3418
6.24323
6.1465
6.05155
5.95835
5.86687
5.77708
5.68894
5.60241
5.51747
5.43408
5.35222
5.27184
5.19293
5.11545
5.03937
4.96467
4.89131
4.81931
4.74861
4.67919
4.61102
4.54406
4.4783
4.4137
4.35024
4.2879
4.22665
4.16647
4.10734
4.04926
3.99221
3.93616
3.88111
3.82702
3.77388
3.72168
3.67039
3.62001
3.57051
3.52188
3.4741
3.42716
3.38104
3.33573
3.29122
3.24748
3.20451
3.16229
3.1208
3.08004
3.03999
3.00064
11.0187
10.9496
10.8792
10.8074
10.7343
10.6598
10.5839
10.5066
10.4278
10.3476
10.2659
10.1827
10.098
10.0117
9.92387
9.83446
9.74343
9.65078
9.55648
9.46051
9.36284
9.26346
9.16234
9.05946
8.9548
8.84833
8.74004
8.6299
8.51789
8.40399
8.28817
8.17041
8.05069
7.92898
7.80526
7.68061
7.55719
7.43605
7.31716
7.20048
7.08597
6.97359
6.8633
6.75506
6.64883
6.54457
6.44225
6.34182
6.24326
6.14652
6.05157
5.95837
5.86689
5.77709
5.68895
5.60242
5.51748
5.43409
5.35222
5.27185
5.19293
5.11545
5.03937
4.96467
4.89132
4.81933
4.74864
4.67922
4.61105
4.54409
4.47833
4.41373
4.35027
4.28793
4.22668
4.16649
4.10737
4.0493
3.99225
3.93621
3.88115
3.82707
3.77394
3.72174
3.67046
3.62009
3.5706
3.52197
3.4742
3.42727
3.38116
3.33586
3.29136
3.24763
3.20467
3.16245
3.12098
3.08023
3.04019
3.00084
11.0188
10.9497
10.8793
10.8075
10.7344
10.6599
10.584
10.5066
10.4279
10.3477
10.266
10.1828
10.098
10.0118
9.92393
9.83452
9.74349
9.65084
9.55654
9.46057
9.3629
9.26352
9.1624
9.05952
8.95486
8.84839
8.7401
8.62996
8.51795
8.40405
8.28823
8.17047
8.05074
7.92904
7.80532
7.68066
7.55724
7.4361
7.31721
7.20053
7.08602
6.97364
6.86335
6.7551
6.64887
6.54461
6.44229
6.34186
6.2433
6.14655
6.0516
5.9584
5.86692
5.77712
5.68898
5.60245
5.5175
5.43411
5.35224
5.27186
5.19295
5.11547
5.03938
4.96469
4.89136
4.81937
4.74869
4.67927
4.61109
4.54414
4.47838
4.41378
4.35032
4.28797
4.22672
4.16654
4.10742
4.04934
3.9923
3.93626
3.88122
3.82714
3.77401
3.72183
3.67056
3.62019
3.5707
3.52209
3.47433
3.42741
3.38131
3.33601
3.29152
3.2478
3.20484
3.16264
3.12117
3.08043
3.0404
3.00106
11.0189
10.9498
10.8793
10.8076
10.7344
10.6599
10.584
10.5067
10.4279
10.3477
10.266
10.1828
10.0981
10.0118
9.924
9.83459
9.74356
9.65091
9.55661
9.46064
9.36297
9.26359
9.16247
9.05959
8.95492
8.84846
8.74017
8.63003
8.51802
8.40411
8.28829
8.17053
8.05081
7.9291
7.80538
7.68073
7.5573
7.43616
7.31727
7.20059
7.08608
6.9737
6.8634
6.75516
6.64892
6.54466
6.44234
6.34191
6.24334
6.1466
6.05165
5.95845
5.86696
5.77716
5.68901
5.60248
5.51754
5.43415
5.35228
5.2719
5.19298
5.11549
5.03941
4.96473
4.89142
4.81943
4.74875
4.67933
4.61116
4.5442
4.47844
4.41384
4.35038
4.28804
4.22678
4.16659
4.10748
4.04941
3.99237
3.93634
3.8813
3.82723
3.77411
3.72193
3.67066
3.6203
3.57083
3.52222
3.47447
3.42756
3.38147
3.33618
3.29169
3.24798
3.20504
3.16284
3.12139
3.08065
3.04063
3.0013
11.0868
11.019
10.9499
10.8794
10.8076
10.7345
10.66
10.5841
10.5068
10.428
10.3478
10.2661
10.1829
10.0982
10.0119
9.92408
9.83467
9.74364
9.65099
9.55669
9.46071
9.36305
9.26366
9.16254
9.05966
8.955
8.84854
8.74025
8.63011
8.51809
8.40419
8.28837
8.17061
8.05089
7.92918
7.80546
7.6808
7.55737
7.43624
7.31735
7.20066
7.08615
6.97377
6.86347
6.75523
6.64899
6.54473
6.4424
6.34197
6.24341
6.14666
6.05171
5.9585
5.86702
5.77722
5.68907
5.60254
5.51759
5.43419
5.35232
5.27194
5.19303
5.11554
5.03947
4.9648
4.89149
4.81951
4.74882
4.67941
4.61124
4.54428
4.47852
4.41392
4.35046
4.28811
4.22685
4.16667
4.10755
4.04949
3.99246
3.93643
3.8814
3.82733
3.77422
3.72205
3.67079
3.62044
3.57097
3.52238
3.47463
3.42773
3.38165
3.33637
3.29189
3.24819
3.20526
3.16307
3.12162
3.0809
3.04088
3.00156
11.0869
11.0191
10.9499
10.8795
10.8077
10.7346
10.6601
10.5842
10.5069
10.4281
10.3479
10.2662
10.183
10.0983
10.012
9.92417
9.83475
9.74373
9.65108
9.55678
9.4608
9.36313
9.26375
9.16263
9.05975
8.95509
8.84862
8.74033
8.63019
8.51818
8.40428
8.28846
8.17069
8.05097
7.92926
7.80554
7.68089
7.55746
7.43632
7.31743
7.20075
7.08623
6.97385
6.86355
6.75531
6.64907
6.54481
6.44248
6.34205
6.24348
6.14674
6.05178
5.95857
5.86709
5.77729
5.68914
5.6026
5.51765
5.43426
5.35239
5.27201
5.19309
5.1156
5.03955
4.96489
4.89159
4.8196
4.74892
4.6795
4.61133
4.54438
4.47862
4.41402
4.35056
4.28821
4.22695
4.16676
4.10765
4.04959
3.99257
3.93655
3.88152
3.82746
3.77436
3.72219
3.67094
3.6206
3.57114
3.52255
3.47482
3.42792
3.38185
3.33659
3.29212
3.24842
3.2055
3.16332
3.12188
3.08117
3.04116
3.00184
11.087
11.0192
10.95
10.8796
10.8078
10.7347
10.6602
10.5843
10.507
10.4282
10.348
10.2663
10.1831
10.0984
10.0121
9.92427
9.83485
9.74383
9.65117
9.55687
9.4609
9.36323
9.26385
9.16273
9.05985
8.95518
8.84872
8.74043
8.63029
8.51828
8.40437
8.28855
8.17079
8.05107
7.92936
7.80564
7.68098
7.55755
7.43641
7.31752
7.20084
7.08633
6.97394
6.86364
6.7554
6.64916
6.5449
6.44257
6.34214
6.24357
6.14682
6.05186
5.95866
5.86717
5.77737
5.68922
5.60268
5.51773
5.43434
5.35246
5.27208
5.19316
5.1157
5.03966
4.965
4.89169
4.81971
4.74903
4.67961
4.61145
4.54449
4.47873
4.41413
4.35067
4.28832
4.22705
4.16687
4.10776
4.04971
3.99269
3.93668
3.88166
3.82761
3.77451
3.72235
3.67111
3.62078
3.57133
3.52275
3.47502
3.42814
3.38208
3.33682
3.29236
3.24868
3.20576
3.16359
3.12216
3.08145
3.04145
11.0871
11.0193
10.9502
10.8797
10.808
10.7348
10.6603
10.5844
10.5071
10.4283
10.3481
10.2664
10.1832
10.0985
10.0122
9.92437
9.83496
9.74393
9.65128
9.55698
9.461
9.36333
9.26395
9.16283
9.05995
8.95529
8.84882
8.74053
8.63039
8.51838
8.40448
8.28866
8.1709
8.05117
7.92946
7.80574
7.68109
7.55766
7.43652
7.31763