/*--------------------------------*- C++ -*----------------------------------*\
  =========                 |
  \\      /  F ield         | OpenFOAM: The Open Source CFD Toolbox
   \\    /   O peration     | Website:  https://openfoam.org
    \\  /    A nd           | Version:  10
     \\/     M anipulation  |
\*---------------------------------------------------------------------------*/
FoamFile
{
    format      ascii;
    class       volVectorField;
    location    "29000";
    object      Urel;
}
// * * * * * * * * * * * * * * * * * * * * * * * * * * * * * * * * * * * * * //

dimensions      [0 1 -1 0 0 0 0];

internalField   nonuniform List<vector> 
17922
(
(1.70688 -1.86679 0)
(1.69357 -1.85224 4.52859e-19)
(1.68018 -1.83761 -1.76396e-18)
(1.66671 -1.82291 3.67268e-24)
(1.65317 -1.80811 4.12864e-19)
(1.63954 -1.79323 8.03548e-19)
(1.62582 -1.77826 2.1124e-23)
(1.61201 -1.76319 3.75255e-19)
(1.59811 -1.74801 -3.34582e-21)
(1.58411 -1.73274 -3.54834e-19)
(1.57001 -1.71736 -2.73351e-18)
(1.55581 -1.70186 0)
(1.54149 -1.68625 0)
(1.52706 -1.67052 -3.07195e-19)
(1.51252 -1.65467 3.00003e-19)
(1.49785 -1.63868 -2.86581e-19)
(1.48306 -1.62257 2.79908e-19)
(1.46814 -1.60631 -1.07466e-18)
(1.45309 -1.58992 -2.57704e-19)
(1.4379 -1.57337 -9.97429e-19)
(1.42256 -1.55667 -7.22213e-19)
(1.40707 -1.53981 2.31083e-19)
(1.39143 -1.52279 -1.12272e-18)
(1.37563 -1.50559 8.644e-19)
(1.35966 -1.48821 -8.32816e-19)
(1.34351 -1.47065 0)
(1.32719 -1.45289 0)
(1.31068 -1.43494 0)
(1.29412 -1.41693 1.45185e-18)
(1.27779 -1.39917 1.78428e-19)
(1.26182 -1.3818 5.33629e-19)
(1.2462 -1.36482 1.41559e-18)
(1.23092 -1.34821 -6.15553e-19)
(1.21597 -1.33194 6.10155e-19)
(1.20133 -1.31602 -6.9396e-19)
(1.18699 -1.30042 0)
(1.17295 -1.28515 8.51799e-20)
(1.15919 -1.27018 -8.54929e-19)
(1.1457 -1.2555 -5.11025e-19)
(1.13248 -1.24111 -8.48961e-19)
(1.11952 -1.227 8.53166e-20)
(1.1068 -1.21315 -8.37508e-20)
(1.09433 -1.19957 -5.894e-19)
(1.08209 -1.18623 -8.35043e-20)
(1.07008 -1.17314 6.73807e-19)
(1.05828 -1.16029 -1.17588e-18)
(1.0467 -1.14766 -1.29028e-21)
(1.03532 -1.13525 -6.7275e-19)
(1.02414 -1.12306 5.86961e-19)
(1.01316 -1.11108 0)
(1.00236 -1.09929 3.36151e-19)
(0.991734 -1.0877 3.36423e-19)
(0.981286 -1.07629 -4.20361e-19)
(0.971006 -1.06507 4.22207e-19)
(0.96089 -1.05402 0)
(0.950933 -1.04315 2.54382e-19)
(0.94113 -1.03244 8.53574e-20)
(0.931477 -1.02189 3.39561e-19)
(0.92197 -1.01149 0)
(0.912606 -1.00125 -3.41018e-19)
(0.903382 -0.991154 0)
(0.894294 -0.981205 8.50063e-20)
(0.885341 -0.971396 -4.29797e-19)
(0.876519 -0.961726 -3.44157e-19)
(0.867827 -0.952193 3.45024e-19)
(0.859262 -0.942792 -3.45864e-19)
(0.850823 -0.933523 2.60664e-19)
(0.842508 -0.924384 -1.73757e-19)
(0.834315 -0.915372 -4.36067e-19)
(0.826243 -0.906485 0)
(0.818291 -0.897723 1.75026e-19)
(0.810457 -0.889085 1.75415e-19)
(0.80274 -0.880567 -1.92871e-23)
(0.795139 -0.872171 2.63719e-19)
(0.787652 -0.863894 -2.65523e-19)
(0.780279 -0.855735 1.76986e-19)
(0.773018 -0.847694 1.77384e-19)
(0.765868 -0.83977 -3.55496e-19)
(0.758827 -0.831961 8.8438e-20)
(0.751895 -0.824266 -8.98541e-20)
(0.745069 -0.816685 2.67682e-19)
(0.738348 -0.809217 -1.79226e-19)
(0.73173 -0.80186 1.2451e-21)
(0.725213 -0.794613 9.05944e-20)
(0.718797 -0.787474 4.50461e-19)
(0.712477 -0.780443 3.14323e-24)
(0.706253 -0.773518 2.72585e-19)
(0.700122 -0.766697 0)
(0.694082 -0.759979 -9.05658e-20)
(0.688131 -0.75336 9.2083e-20)
(0.682265 -0.74684 -1.82968e-19)
(0.676483 -0.740416 9.33568e-20)
(0.670781 -0.734085 1.85061e-19)
(1.70239 -1.87086 -4.77779e-19)
(1.68912 -1.85628 4.60422e-19)
(1.67576 -1.84163 -4.5034e-19)
(1.66233 -1.82689 1.7411e-18)
(1.64882 -1.81206 -1.63722e-23)
(1.63523 -1.79714 -4.07637e-19)
(1.62155 -1.78213 1.19212e-18)
(1.60777 -1.76703 0)
(1.59391 -1.75182 -1.86037e-18)
(1.57994 -1.73651 3.6231e-19)
(1.56588 -1.7211 1.39627e-18)
(1.55171 -1.70557 -1.35107e-18)
(1.53743 -1.68992 0)
(1.52304 -1.67416 0)
(1.50854 -1.65826 0)
(1.49391 -1.64225 1.4742e-18)
(1.47916 -1.62609 1.13734e-18)
(1.46428 -1.6098 8.24574e-19)
(1.44926 -1.59337 2.64275e-19)
(1.43411 -1.57678 7.68306e-19)
(1.41881 -1.56005 2.39912e-23)
(1.40337 -1.54315 0)
(1.38777 -1.52609 2.28803e-19)
(1.372 -1.50885 -1.11199e-18)
(1.35608 -1.49143 8.56226e-19)
(1.33997 -1.47383 0)
(1.32369 -1.45604 0)
(1.30723 -1.43804 0)
(1.29071 -1.41999 -4.19242e-23)
(1.27442 -1.40219 0)
(1.2585 -1.38479 1.82089e-19)
(1.24292 -1.36777 -1.83599e-19)
(1.22768 -1.35111 1.4463e-18)
(1.21277 -1.33481 5.40178e-19)
(1.19817 -1.31885 1.79921e-19)
(1.18387 -1.30323 0)
(1.16986 -1.28791 -7.06569e-19)
(1.15614 -1.27291 7.03483e-19)
(1.14269 -1.2582 7.87643e-19)
(1.1295 -1.24378 6.10346e-19)
(1.11657 -1.22964 -6.09904e-19)
(1.10389 -1.21576 6.0703e-19)
(1.09145 -1.20215 0)
(1.07925 -1.18879 -8.58106e-20)
(1.06726 -1.17567 -6.89565e-19)
(1.0555 -1.16279 1.46738e-18)
(1.04395 -1.15013 8.5557e-20)
(1.0326 -1.1377 5.17136e-19)
(1.02145 -1.12548 -6.02617e-19)
(1.01049 -1.11347 4.3032e-19)
(0.999718 -1.10166 1.7246e-19)
(0.989123 -1.09004 -2.58229e-19)
(0.978701 -1.07862 3.45477e-19)
(0.968447 -1.06737 0)
(0.958356 -1.0563 -8.59205e-20)
(0.948423 -1.0454 8.73376e-20)
(0.938644 -1.03467 3.47288e-19)
(0.929014 -1.0241 -3.47884e-19)
(0.919531 -1.01369 0)
(0.910189 -1.00342 -8.66448e-20)
(0.900987 -0.993311 8.81004e-20)
(0.891922 -0.983343 -8.69926e-20)
(0.882989 -0.973518 7.0379e-19)
(0.874189 -0.963831 4.40637e-19)
(0.865517 -0.954282 0)
(0.856972 -0.944866 0)
(0.848552 -0.935582 -8.79223e-20)
(0.840256 -0.926428 4.44377e-19)
(0.832082 -0.917402 7.11455e-19)
(0.824028 -0.908502 0)
(0.816094 -0.899728 0)
(0.808277 -0.891076 -2.69056e-19)
(0.800577 -0.882547 -1.80568e-19)
(0.792992 -0.874139 -9.04536e-20)
(0.785521 -0.865851 1.79979e-19)
(0.778164 -0.857682 -1.80307e-19)
(0.770917 -0.84963 -1.80621e-19)
(0.763782 -0.841696 9.11014e-20)
(0.756755 -0.833877 1.82506e-19)
(0.749836 -0.826173 1.82817e-19)
(0.743022 -0.818582 1.24905e-21)
(0.736314 -0.811104 -9.04726e-20)
(0.729707 -0.803738 6.54046e-24)
(0.723202 -0.796482 -2.73688e-19)
(0.716796 -0.789334 -9.09938e-20)
(0.710487 -0.782294 -2.74794e-19)
(0.704273 -0.775359 -9.13889e-20)
(0.698152 -0.768528 0)
(0.692122 -0.761799 0)
(0.686179 -0.75517 2.77602e-19)
(0.680323 -0.748639 -9.30397e-20)
(0.674549 -0.742204 6.17218e-22)
(0.668857 -0.735862 0)
(1.69777 -1.87506 4.78312e-19)
(1.68453 -1.86044 -4.68139e-19)
(1.67121 -1.84575 1.81147e-18)
(1.65782 -1.83098 -1.75845e-18)
(1.64434 -1.81612 -8.53199e-19)
(1.63078 -1.80116 -4.12067e-19)
(1.61714 -1.78612 1.2056e-18)
(1.6034 -1.77098 1.55599e-18)
(1.58957 -1.75574 1.13264e-18)
(1.57565 -1.74039 -1.09377e-18)
(1.56162 -1.72494 0)
(1.54749 -1.70938 1.70995e-18)
(1.53325 -1.69369 -3.32974e-19)
(1.5189 -1.67789 -3.18796e-19)
(1.50443 -1.66197 3.11608e-19)
(1.48985 -1.64591 1.19852e-18)
(1.47513 -1.62972 -2.31666e-18)
(1.46029 -1.61339 0)
(1.44532 -1.59692 -8.12292e-19)
(1.43021 -1.5803 -3.2577e-21)
(1.41495 -1.56352 2.01154e-18)
(1.39955 -1.54658 -4.86051e-19)
(1.38399 -1.52948 9.41003e-19)
(1.36827 -1.51221 3.18313e-21)
(1.35239 -1.49475 -8.68842e-19)
(1.33633 -1.47711 2.11713e-19)
(1.32009 -1.45927 0)
(1.30367 -1.44123 1.93454e-19)
(1.2872 -1.42314 -1.71578e-18)
(1.27096 -1.4053 -1.87248e-19)
(1.25508 -1.38786 9.37169e-19)
(1.23954 -1.3708 -7.42563e-19)
(1.22435 -1.35411 -9.19888e-19)
(1.20947 -1.33777 -3.66071e-19)
(1.19491 -1.32178 -3.63803e-19)
(1.18065 -1.30611 9.05853e-19)
(1.16668 -1.29077 8.98466e-19)
(1.153 -1.27573 -1.80578e-19)
(1.13959 -1.26099 0)
(1.12644 -1.24653 -8.8767e-19)
(1.11354 -1.23236 7.11834e-19)
(1.1009 -1.21846 1.78167e-19)
(1.08849 -1.20481 -6.18027e-19)
(1.07632 -1.19142 -7.92924e-19)
(1.06437 -1.17827 7.90405e-19)
(1.05264 -1.16536 -8.77956e-19)
(1.04112 -1.15268 -6.13342e-19)
(1.0298 -1.14022 0)
(1.01868 -1.12798 6.14193e-19)
(1.00775 -1.11594 -6.1288e-19)
(0.997007 -1.1041 -4.37702e-19)
(0.98644 -1.09246 8.83757e-20)
(0.976045 -1.08101 0)
(0.965818 -1.06974 0)
(0.955753 -1.05865 -3.51744e-19)
(0.945845 -1.04773 0)
(0.936091 -1.03698 -3.52654e-19)
(0.926486 -1.02639 0)
(0.917026 -1.01595 3.53684e-19)
(0.907708 -1.00567 0)
(0.898529 -0.99554 0)
(0.889486 -0.985554 0)
(0.880576 -0.975711 -3.56162e-19)
(0.871797 -0.966008 0)
(0.863146 -0.956441 -8.87176e-20)
(0.854622 -0.94701 1.79063e-19)
(0.846223 -0.937711 -1.79395e-19)
(0.837946 -0.928542 -2.68927e-19)
(0.829792 -0.919502 -3.60118e-19)
(0.821757 -0.910589 0)
(0.813841 -0.901801 -1.80679e-19)
(0.806042 -0.893137 1.81003e-19)
(0.79836 -0.884596 1.81287e-19)
(0.790792 -0.876176 0)
(0.783338 -0.867876 0)
(0.775997 -0.859696 9.04383e-20)
(0.768766 -0.851634 -9.18284e-20)
(0.761646 -0.843689 0)
(0.754634 -0.83586 -9.08594e-20)
(0.747729 -0.828146 -9.09837e-20)
(0.740929 -0.820545 0)
(0.734233 -0.813058 3.67489e-19)
(0.72764 -0.805681 1.8403e-19)
(0.721147 -0.798415 -1.84304e-19)
(0.714753 -0.791258 0)
(0.708456 -0.784208 9.30919e-20)
(0.702253 -0.777263 9.32792e-20)
(0.696143 -0.770422 1.85705e-19)
(0.690123 -0.763682 1.8553e-19)
(0.684191 -0.757043 -2.79974e-19)
(0.678345 -0.750501 9.36032e-20)
(0.672582 -0.744054 -1.23676e-21)
(0.6669 -0.7377 -9.48798e-20)
(1.693 -1.87936 4.85705e-19)
(1.67979 -1.86471 -4.68494e-19)
(1.66651 -1.84999 -9.10218e-19)
(1.65315 -1.83518 1.33295e-18)
(1.63972 -1.82028 4.29002e-19)
(1.6262 -1.80529 -8.36134e-19)
(1.61259 -1.79022 -1.30027e-23)
(1.59889 -1.77504 -3.9514e-19)
(1.5851 -1.75976 3.79594e-19)
(1.57121 -1.74438 1.10701e-18)
(1.55723 -1.72889 0)
(1.54314 -1.71329 0)
(1.52894 -1.69757 -1.34282e-18)
(1.51463 -1.68173 1.29959e-18)
(1.5002 -1.66577 0)
(1.48565 -1.64967 -1.51839e-18)
(1.47098 -1.63344 1.47136e-18)
(1.45618 -1.61708 -1.13636e-18)
(1.44125 -1.60057 2.19598e-18)
(1.42618 -1.5839 -2.63484e-19)
(1.41097 -1.56709 -7.66445e-19)
(1.39561 -1.55011 0)
(1.38009 -1.53297 -9.54019e-19)
(1.36442 -1.51565 -9.20408e-19)
(1.34858 -1.49816 1.10809e-18)
(1.33257 -1.48047 -4.28003e-19)
(1.31638 -1.46259 2.07892e-19)
(1.3 -1.44451 0)
(1.28358 -1.42637 0)
(1.26738 -1.40849 0)
(1.25155 -1.39101 -7.628e-19)
(1.23606 -1.37391 0)
(1.2209 -1.35718 -7.5096e-19)
(1.20607 -1.34081 -9.3079e-19)
(1.19155 -1.32478 3.70586e-19)
(1.17733 -1.30908 -9.22676e-19)
(1.16341 -1.29369 0)
(1.14976 -1.27862 0)
(1.13639 -1.26385 0)
(1.12328 -1.24936 1.79592e-19)
(1.11042 -1.23516 5.39857e-19)
(1.09781 -1.22122 -1.78517e-19)
(1.08544 -1.20754 8.9886e-19)
(1.0733 -1.19412 7.16517e-19)
(1.06139 -1.18095 7.15279e-19)
(1.04969 -1.16801 7.14323e-19)
(1.0382 -1.1553 4.22658e-23)
(1.02692 -1.14281 0)
(1.01583 -1.13054 -8.84613e-20)
(1.00493 -1.11848 8.02408e-19)
(0.994209 -1.10662 -2.67921e-19)
(0.98367 -1.09495 -4.46209e-19)
(0.973304 -1.08347 0)
(0.963104 -1.07218 -8.85387e-20)
(0.953065 -1.06107 4.47093e-19)
(0.943184 -1.05012 8.87008e-20)
(0.933456 -1.03935 1.7892e-19)
(0.923876 -1.02874 5.37432e-19)
(0.914441 -1.01828 -5.38162e-19)
(0.905147 -1.00798 4.49727e-19)
(0.895991 -0.997827 -8.92854e-20)
(0.886971 -0.987823 9.0741e-20)
(0.878084 -0.977961 3.6087e-19)
(0.869327 -0.96824 -8.97051e-20)
(0.860698 -0.958657 4.5317e-19)
(0.852195 -0.949209 -3.62581e-19)
(0.843817 -0.939894 0)
(0.835561 -0.93071 3.63748e-19)
(0.827426 -0.921655 9.04196e-20)
(0.819411 -0.912727 -2.74265e-19)
(0.811514 -0.903925 2.7467e-19)
(0.803734 -0.895248 9.2116e-20)
(0.79607 -0.886694 -4.57319e-19)
(0.78852 -0.878262 9.23581e-20)
(0.781083 -0.86995 0)
(0.773758 -0.861758 1.83876e-19)
(0.766544 -0.853685 3.68205e-19)
(0.759439 -0.845729 0)
(0.752443 -0.837889 -2.76157e-19)
(0.745552 -0.830164 1.84733e-19)
(0.738767 -0.822553 -2.78043e-19)
(0.732085 -0.815055 -2.77116e-19)
(0.725505 -0.807668 1.26383e-21)
(0.719026 -0.800391 4.64696e-19)
(0.712644 -0.793223 0)
(0.706359 -0.786162 -9.37207e-20)
(0.700168 -0.779207 9.26083e-20)
(0.69407 -0.772354 -2.80878e-19)
(0.688062 -0.765604 -2.80851e-19)
(0.682142 -0.758953 9.38434e-20)
(0.676307 -0.752399 -9.40923e-20)
(0.670556 -0.74594 9.50092e-20)
(0.664885 -0.739575 0)
(1.68807 -1.88378 1.46413e-18)
(1.6749 -1.86909 -4.72138e-19)
(1.66166 -1.85433 4.6246e-19)
(1.64834 -1.83949 -8.95173e-19)
(1.63494 -1.82456 0)
(1.62146 -1.80953 0)
(1.60789 -1.79442 8.19385e-19)
(1.59424 -1.7792 -1.59006e-18)
(1.58049 -1.76389 -3.83782e-19)
(1.56664 -1.74847 3.7558e-19)
(1.55269 -1.73294 1.44926e-18)
(1.53864 -1.7173 1.75348e-18)
(1.52448 -1.70155 1.01831e-18)
(1.51021 -1.68567 -2.63365e-18)
(1.49583 -1.66967 -1.27452e-18)
(1.48132 -1.65353 -3.06583e-19)
(1.4667 -1.63727 2.99904e-19)
(1.45194 -1.62086 8.66715e-19)
(1.43705 -1.60431 -1.67223e-18)
(1.42202 -1.58761 -2.7099e-19)
(1.40686 -1.57075 -2.58476e-19)
(1.39154 -1.55373 2.52888e-19)
(1.37607 -1.53655 1.21102e-18)
(1.36044 -1.51919 1.86929e-18)
(1.34465 -1.50165 -4.51688e-19)
(1.32868 -1.48392 4.35691e-19)
(1.31254 -1.466 -3.24829e-21)
(1.29621 -1.44788 -2.04038e-19)
(1.27984 -1.4297 -1.96154e-19)
(1.26369 -1.41177 9.81464e-19)
(1.2479 -1.39425 0)
(1.23246 -1.37711 -5.79512e-19)
(1.21735 -1.36034 3.82426e-19)
(1.20256 -1.34393 9.5092e-19)
(1.18809 -1.32786 0)
(1.17391 -1.31212 -9.36363e-19)
(1.16003 -1.2967 1.88063e-19)
(1.14642 -1.28159 0)
(1.13309 -1.26678 7.39586e-19)
(1.12001 -1.25227 0)
(1.1072 -1.23803 -5.52172e-19)
(1.09463 -1.22406 5.47638e-19)
(1.08229 -1.21035 -1.81136e-19)
(1.07019 -1.1969 7.31438e-19)
(1.05831 -1.18369 -5.44079e-19)
(1.04664 -1.17072 -9.06354e-19)
(1.03519 -1.15798 7.28125e-19)
(1.02393 -1.14547 1.82552e-19)
(1.01288 -1.13317 -1.44839e-18)
(1.00201 -1.12108 -3.61968e-19)
(0.99132 -1.10919 2.18991e-23)
(0.98081 -1.0975 4.51729e-19)
(0.970472 -1.086 -9.11855e-20)
(0.960301 -1.07468 0)
(0.95029 -1.06354 0)
(0.940435 -1.05258 -8.9985e-20)
(0.930733 -1.04178 -2.71558e-19)
(0.921179 -1.03114 -3.63323e-19)
(0.911769 -1.02067 0)
(0.9025 -1.01034 -2.66634e-23)
(0.893369 -1.00017 0)
(0.884373 -0.990148 0)
(0.875509 -0.980268 -7.30923e-19)
(0.866775 -0.970529 -3.65921e-19)
(0.858168 -0.960927 -3.66427e-19)
(0.849688 -0.951462 9.10883e-20)
(0.841331 -0.942131 -9.25013e-20)
(0.833096 -0.93293 2.76515e-19)
(0.824982 -0.92386 -2.75536e-19)
(0.816987 -0.914918 1.84367e-19)
(0.80911 -0.906101 -3.69144e-19)
(0.801349 -0.89741 9.30351e-20)
(0.793703 -0.888843 2.78117e-19)
(0.786172 -0.880397 0)
(0.778753 -0.872073 0)
(0.771445 -0.863869 -1.85513e-19)
(0.764248 -0.855783 -3.71336e-19)
(0.75716 -0.847815 0)
(0.750179 -0.839963 1.85973e-19)
(0.743304 -0.832227 9.24255e-20)
(0.736534 -0.824605 1.8502e-19)
(0.729867 -0.817096 -2.80311e-19)
(0.723301 -0.809698 -1.86619e-19)
(0.716835 -0.80241 -1.86822e-19)
(0.710467 -0.795231 -1.87015e-19)
(0.704196 -0.788158 0)
(0.698018 -0.781191 -3.75045e-19)
(0.691933 -0.774328 1.87834e-19)
(0.685938 -0.767565 0)
(0.68003 -0.760902 9.42962e-20)
(0.674208 -0.754336 0)
(0.66847 -0.747865 -9.47965e-20)
(0.662812 -0.741486 -9.51094e-20)
(1.68299 -1.88831 -1.47025e-18)
(1.66986 -1.87359 1.9093e-18)
(1.65666 -1.8588 -3.63071e-21)
(1.64338 -1.84391 4.49411e-19)
(1.63002 -1.82894 0)
(1.61658 -1.81389 -8.51834e-19)
(1.60305 -1.79873 -8.27192e-19)
(1.58943 -1.78348 -2.00557e-18)
(1.57572 -1.76813 3.9136e-19)
(1.56192 -1.75267 -1.51156e-18)
(1.54801 -1.73711 -1.8304e-18)
(1.534 -1.72143 -1.06383e-18)
(1.51989 -1.70563 0)
(1.50566 -1.68972 -3.31599e-19)
(1.49132 -1.67367 1.93692e-18)
(1.47686 -1.6575 -3.14216e-19)
(1.46227 -1.64119 1.20946e-18)
(1.44756 -1.62474 0)
(1.43272 -1.60815 2.85293e-23)
(1.41774 -1.59141 -1.09363e-18)
(1.40261 -1.57451 1.05685e-18)
(1.38734 -1.55745 -1.02099e-18)
(1.37192 -1.54022 9.86037e-19)
(1.35634 -1.52282 -9.52028e-19)
(1.34059 -1.50524 0)
(1.32468 -1.48747 0)
(1.30858 -1.4695 6.43141e-19)
(1.29231 -1.45133 2.07754e-19)
(1.27598 -1.43311 0)
(1.25988 -1.41514 -7.98269e-19)
(1.24414 -1.39757 0)
(1.22875 -1.38039 7.84604e-19)
(1.21368 -1.36358 -1.93086e-19)
(1.19894 -1.34713 -7.69995e-19)
(1.18451 -1.33102 3.84046e-19)
(1.17038 -1.31524 5.71155e-19)
(1.15654 -1.29979 0)
(1.14297 -1.28464 9.43111e-19)
(1.12968 -1.2698 -7.55337e-19)
(1.11665 -1.25525 -2.94401e-21)
(1.10387 -1.24097 7.43784e-19)
(1.09133 -1.22697 -7.47318e-19)
(1.07904 -1.21323 -3.71179e-19)
(1.06697 -1.19975 -5.54035e-19)
(1.05513 -1.18651 1.83347e-19)
(1.0435 -1.17351 -3.68927e-19)
(1.03208 -1.16074 -5.5119e-19)
(1.02086 -1.1482 -1.82594e-19)
(1.00983 -1.13587 1.65606e-18)
(0.998992 -1.12375 0)
(0.988337 -1.11184 3.67359e-19)
(0.977858 -1.10012 0)
(0.967549 -1.08859 3.6729e-19)
(0.957406 -1.07725 0)
(0.947424 -1.06608 0)
(0.937597 -1.05509 -5.50146e-19)
(0.927922 -1.04427 5.53225e-19)
(0.918394 -1.03361 9.13606e-20)
(0.909011 -1.02312 -1.36228e-21)
(0.899767 -1.01277 -4.61682e-19)
(0.890661 -1.00258 -3.69122e-19)
(0.881689 -0.992534 0)
(0.87285 -0.982634 2.7408e-23)
(0.864139 -0.972875 3.70253e-19)
(0.855556 -0.963256 9.19817e-20)
(0.847098 -0.953773 2.77588e-19)
(0.838763 -0.944424 0)
(0.83055 -0.935207 -2.79471e-19)
(0.822457 -0.92612 2.78398e-19)
(0.814483 -0.917162 -9.24347e-20)
(0.806626 -0.908331 9.38548e-20)
(0.798885 -0.899625 -9.39208e-20)
(0.791259 -0.891044 -9.398e-20)
(0.783746 -0.882584 0)
(0.776346 -0.874247 0)
(0.769056 -0.866029 9.28494e-20)
(0.761877 -0.857931 1.85818e-19)
(0.754805 -0.84995 -1.29921e-21)
(0.747841 -0.842087 -1.88615e-19)
(0.740983 -0.834338 -1.29138e-21)
(0.734228 -0.826704 -1.8751e-19)
(0.727577 -0.819183 4.69688e-19)
(0.721026 -0.811773 1.87745e-19)
(0.714576 -0.804474 0)
(0.708222 -0.797282 1.88036e-19)
(0.701965 -0.790198 0)
(0.695802 -0.783219 1.3473e-23)
(0.689731 -0.776343 0)
(0.683749 -0.769568 9.38663e-20)
(0.677856 -0.762893 -1.25612e-21)
(0.672048 -0.756314 -9.48933e-20)
(0.666323 -0.749829 9.57734e-20)
(0.66068 -0.743437 1.90249e-19)
(1.67774 -1.89297 9.87252e-19)
(1.66465 -1.87821 -1.43944e-18)
(1.65149 -1.86338 4.69227e-19)
(1.63825 -1.84846 0)
(1.62494 -1.83345 0)
(1.61154 -1.81835 8.59012e-19)
(1.59805 -1.80316 0)
(1.58448 -1.78787 1.62094e-18)
(1.57081 -1.77248 1.5736e-18)
(1.55704 -1.75698 3.43426e-18)
(1.54318 -1.74138 -3.72165e-19)
(1.52922 -1.72566 0)
(1.51514 -1.70983 0)
(1.50096 -1.69387 1.34971e-18)
(1.48666 -1.67778 1.30749e-18)
(1.47225 -1.66157 3.14782e-19)
(1.45771 -1.64522 -1.53393e-18)
(1.44304 -1.62873 0)
(1.42824 -1.6121 2.74506e-23)
(1.41331 -1.59531 2.7186e-23)
(1.39823 -1.57837 -1.07286e-18)
(1.38301 -1.56127 2.57522e-19)
(1.36764 -1.544 -1.25392e-18)
(1.35211 -1.52655 2.40184e-19)
(1.33641 -1.50892 -3.39183e-21)
(1.32054 -1.49111 -2.27139e-19)
(1.3045 -1.4731 -8.70273e-19)
(1.28827 -1.45488 -1.67817e-18)
(1.272 -1.43661 -1.63993e-18)
(1.25595 -1.4186 0)
(1.24026 -1.40099 1.99674e-19)
(1.22492 -1.38376 -2.01217e-19)
(1.2099 -1.36691 0)
(1.19521 -1.35041 7.86601e-19)
(1.18082 -1.33427 -5.87593e-19)
(1.16673 -1.31845 -3.88333e-19)
(1.15293 -1.30296 3.86183e-19)
(1.13941 -1.28778 -9.6213e-19)
(1.12616 -1.27289 -7.64951e-19)
(1.11317 -1.2583 0)
(1.10043 -1.244 -1.70627e-18)
(1.08794 -1.22996 1.90604e-19)
(1.07568 -1.21619 -1.87109e-19)
(1.06365 -1.20267 1.89558e-19)
(1.05184 -1.1894 -5.64488e-19)
(1.04025 -1.17637 -1.88775e-19)
(1.02886 -1.16357 1.31068e-18)
(1.01768 -1.151 1.88221e-19)
(1.00669 -1.13864 -7.46399e-19)
(0.995881 -1.12649 0)
(0.985257 -1.11455 3.7266e-19)
(0.974809 -1.10281 -3.72517e-19)
(0.964531 -1.09125 -3.72464e-19)
(0.954418 -1.07988 -1.8482e-19)
(0.944464 -1.06869 1.87636e-19)
(0.934666 -1.05768 3.72587e-19)
(0.925019 -1.04683 -1.87754e-19)
(0.915519 -1.03615 -5.60689e-19)
(0.906162 -1.02563 5.58227e-19)
(0.896945 -1.01526 1.85265e-19)
(0.887864 -1.00505 3.73563e-19)
(0.878918 -0.994981 1.85535e-19)
(0.870103 -0.98506 1.85688e-19)
(0.861417 -0.975282 -1.85812e-19)
(0.852857 -0.965643 -1.85939e-19)
(0.844422 -0.956141 0)
(0.83611 -0.946774 -9.3111e-20)
(0.82792 -0.93754 -2.8086e-19)
(0.819849 -0.928437 3.75617e-19)
(0.811896 -0.919462 -9.32919e-20)
(0.80406 -0.910615 1.89369e-19)
(0.79634 -0.901894 9.47238e-20)
(0.788734 -0.893298 -9.34336e-20)
(0.781241 -0.884824 1.32473e-21)
(0.77386 -0.876472 3.76652e-19)
(0.766589 -0.868241 -9.485e-20)
(0.759428 -0.86013 0)
(0.752375 -0.852136 -9.35827e-20)
(0.745428 -0.844259 -9.35986e-20)
(0.738587 -0.836498 0)
(0.731849 -0.828851 1.88592e-19)
(0.725214 -0.821317 -1.88658e-19)
(0.71868 -0.813895 -9.37139e-20)
(0.712245 -0.806583 9.50384e-20)
(0.705907 -0.799379 1.88893e-19)
(0.699666 -0.792283 0)
(0.693518 -0.785291 1.89205e-19)
(0.687462 -0.778402 9.5332e-20)
(0.681496 -0.771614 6.33937e-22)
(0.675618 -0.764925 -6.27708e-22)
(0.669825 -0.758333 -2.8556e-19)
(0.664116 -0.751835 9.66747e-20)
(0.658488 -0.745429 9.63175e-20)
(1.67233 -1.89775 -1.98505e-18)
(1.65928 -1.88295 0)
(1.64616 -1.86808 0)
(1.63297 -1.85312 9.11647e-19)
(1.61969 -1.83807 -8.93982e-19)
(1.60633 -1.82294 -4.34665e-19)
(1.59289 -1.80771 -8.41413e-19)
(1.57936 -1.79238 8.17537e-19)
(1.56573 -1.77695 -2.38217e-18)
(1.55202 -1.76141 -1.5383e-18)
(1.5382 -1.74576 7.48265e-19)
(1.52428 -1.73001 -3.64795e-19)
(1.51025 -1.71413 -1.40819e-18)
(1.49611 -1.69813 1.70479e-18)
(1.48186 -1.682 -1.65578e-18)
(1.46749 -1.66575 1.60062e-18)
(1.453 -1.64936 -3.12159e-19)
(1.43838 -1.63282 1.20198e-18)
(1.42363 -1.61615 1.16332e-18)
(1.40874 -1.59932 2.60378e-23)
(1.39372 -1.58233 0)
(1.37854 -1.56519 7.91086e-19)
(1.36322 -1.54787 -7.61168e-19)
(1.34774 -1.53038 0)
(1.33209 -1.51271 0)
(1.31628 -1.49484 2.27481e-19)
(1.30029 -1.47678 -2.22974e-19)
(1.28411 -1.45852 2.11758e-19)
(1.26789 -1.4402 1.2515e-18)
(1.2519 -1.42215 2.08338e-19)
(1.23626 -1.40449 0)
(1.22096 -1.38722 0)
(1.206 -1.37032 -6.0596e-19)
(1.19135 -1.35379 -2.01584e-19)
(1.17701 -1.3376 9.91635e-19)
(1.16297 -1.32174 -3.94823e-19)
(1.14922 -1.30621 -7.82042e-19)
(1.13574 -1.29099 1.17163e-18)
(1.12253 -1.27607 1.35894e-18)
(1.10958 -1.26145 0)
(1.09689 -1.2471 7.71115e-19)
(1.08443 -1.23303 -7.68416e-19)
(1.07222 -1.21922 -1.90024e-19)
(1.06023 -1.20567 1.92475e-19)
(1.04846 -1.19237 7.62164e-19)
(1.0369 -1.17931 0)
(1.02555 -1.16648 -9.47561e-19)
(1.0144 -1.15387 1.13706e-18)
(1.00344 -1.14149 -1.9072e-19)
(0.992668 -1.12931 1.90511e-19)
(0.982077 -1.11734 -7.52839e-19)
(0.971661 -1.10556 5.6787e-19)
(0.961414 -1.09398 1.87304e-19)
(0.951331 -1.08258 -1.90093e-19)
(0.941408 -1.07137 1.87236e-19)
(0.931639 -1.06033 -1.90057e-19)
(0.922021 -1.04946 0)
(0.912549 -1.03875 3.77419e-19)
(0.90322 -1.0282 -3.7752e-19)
(0.89403 -1.01781 -2.48423e-23)
(0.884976 -1.00758 -3.77761e-19)
(0.876056 -0.99749 0)
(0.867266 -0.987548 -1.87664e-19)
(0.858605 -0.977749 3.78251e-19)
(0.85007 -0.96809 3.78416e-19)
(0.841659 -0.958569 3.78568e-19)
(0.833371 -0.949183 -1.90721e-19)
(0.825203 -0.939931 3.78864e-19)
(0.817155 -0.93081 -5.69809e-19)
(0.809224 -0.921819 -1.3579e-21)
(0.80141 -0.912955 0)
(0.793711 -0.904218 1.89599e-19)
(0.786126 -0.895606 -1.8962e-19)
(0.778654 -0.887117 1.89631e-19)
(0.771292 -0.878751 -3.79279e-19)
(0.764041 -0.870505 -2.83779e-19)
(0.756899 -0.862379 9.54699e-20)
(0.749865 -0.854372 1.89596e-19)
(0.742936 -0.846481 1.89591e-19)
(0.736113 -0.838707 0)
(0.729393 -0.831047 -9.54343e-20)
(0.722776 -0.8235 -1.89546e-19)
(0.716259 -0.816064 9.54231e-20)
(0.709841 -0.808739 0)
(0.70352 -0.801522 -3.79265e-19)
(0.697295 -0.794412 1.89707e-19)
(0.691164 -0.787407 9.4278e-20)
(0.685124 -0.780505 -1.91268e-19)
(0.679175 -0.773704 -6.29902e-22)
(0.673313 -0.767001 1.9048e-19)
(0.667537 -0.760395 0)
(0.661845 -0.753883 -9.562e-20)
(0.656234 -0.747463 9.52489e-20)
(1.66674 -1.90265 9.97165e-19)
(1.65374 -1.88782 9.67716e-19)
(1.64066 -1.8729 -9.49712e-19)
(1.62751 -1.8579 9.17245e-19)
(1.61428 -1.84282 -8.9991e-19)
(1.60096 -1.82764 1.74e-18)
(1.58756 -1.81237 -3.68828e-21)
(1.57408 -1.797 1.6483e-18)
(1.5605 -1.78153 7.97188e-19)
(1.54682 -1.76595 -6.93428e-24)
(1.53305 -1.75026 6.96421e-24)
(1.51918 -1.73446 1.09439e-18)
(1.5052 -1.71854 1.06542e-18)
(1.49111 -1.7025 -2.41721e-18)
(1.4769 -1.68633 -1.67465e-18)
(1.46258 -1.67004 -1.29717e-18)
(1.44814 -1.6536 0)
(1.43357 -1.63702 -1.5199e-18)
(1.41886 -1.6203 3.57419e-21)
(1.40403 -1.60343 2.56869e-18)
(1.38905 -1.5864 0)
(1.37393 -1.56921 -2.65158e-19)
(1.35866 -1.55184 2.59888e-19)
(1.34323 -1.53431 -2.47731e-19)
(1.32763 -1.51659 3.50153e-21)
(1.31187 -1.49868 2.34644e-19)
(1.29594 -1.48057 -8.99682e-19)
(1.27982 -1.46226 1.73618e-18)
(1.26365 -1.44389 -2.10413e-19)
(1.24771 -1.42579 2.11873e-19)
(1.23212 -1.40808 1.0395e-18)
(1.21688 -1.39077 -1.0339e-18)
(1.20197 -1.37383 1.63842e-18)
(1.18737 -1.35725 -8.13128e-19)
(1.17308 -1.34102 -1.00784e-18)
(1.15908 -1.32512 8.05637e-19)
(1.14538 -1.30955 1.1967e-18)
(1.13195 -1.29429 -9.93495e-19)
(1.11878 -1.27933 -7.89673e-19)
(1.10588 -1.26467 0)
(1.09323 -1.25029 0)
(1.08081 -1.23618 7.8015e-19)
(1.06864 -1.22234 -5.84687e-19)
(1.05669 -1.20875 -1.95333e-19)
(1.04496 -1.19542 -7.73291e-19)
(1.03344 -1.18232 -5.80128e-19)
(1.02212 -1.16946 -3.85e-19)
(1.01101 -1.15682 -5.75049e-19)
(1.00009 -1.1444 0)
(0.98935 -1.1322 -1.93112e-19)
(0.978793 -1.1202 7.62862e-19)
(0.96841 -1.10839 -3.82556e-19)
(0.958195 -1.09678 1.92589e-19)
(0.948144 -1.08536 0)
(0.938252 -1.07411 -1.92394e-19)
(0.928513 -1.06305 -5.74177e-19)
(0.918925 -1.05215 0)
(0.909482 -1.04142 -5.71192e-19)
(0.900181 -1.03085 5.74014e-19)
(0.891019 -1.02043 -3.81773e-19)
(0.881993 -1.01017 3.81806e-19)
(0.873099 -1.00006 -1.8952e-19)
(0.864336 -0.990098 1.92336e-19)
(0.8557 -0.980278 -3.81924e-19)
(0.847191 -0.970598 -7.63967e-19)
(0.838805 -0.961057 1.9238e-19)
(0.830541 -0.951652 1.92401e-19)
(0.822397 -0.942381 1.8966e-19)
(0.814372 -0.933241 1.89679e-19)
(0.806465 -0.924232 -1.37835e-23)
(0.798673 -0.915352 -1.90993e-19)
(0.790996 -0.906598 -1.90976e-19)
(0.783432 -0.897969 1.89593e-19)
(0.775981 -0.889465 -5.72635e-19)
(0.768641 -0.881083 7.63264e-19)
(0.76141 -0.872822 -3.81481e-19)
(0.754288 -0.864681 2.6556e-21)
(0.747273 -0.856659 -2.16786e-24)
(0.740364 -0.848755 -1.91833e-19)
(0.73356 -0.840966 9.45628e-20)
(0.726859 -0.833292 9.45238e-20)
(0.72026 -0.825731 9.45008e-20)
(0.713762 -0.818282 1.88954e-19)
(0.707362 -0.810943 -9.57593e-20)
(0.701059 -0.803712 1.90232e-19)
(0.694852 -0.796588 -3.8051e-19)
(0.688738 -0.789569 0)
(0.682717 -0.782653 1.90431e-19)
(0.676785 -0.775838 9.52996e-20)
(0.670941 -0.769121 -1.90204e-19)
(0.665184 -0.762501 9.55687e-20)
(0.659509 -0.755975 -9.57549e-20)
(0.653917 -0.74954 6.29644e-22)
(1.66097 -1.90768 -2.00598e-18)
(1.64801 -1.89281 0)
(1.63498 -1.87785 0)
(1.62187 -1.86281 -9.25983e-19)
(1.60869 -1.84769 -9.01564e-19)
(1.59542 -1.83247 0)
(1.58207 -1.81716 -8.53724e-19)
(1.56862 -1.80175 -1.66061e-18)
(1.55509 -1.78623 -8.03516e-19)
(1.54147 -1.77061 -3.1306e-18)
(1.52774 -1.75488 2.2901e-18)
(1.51391 -1.73904 -2.96054e-18)
(1.49998 -1.72308 2.15183e-18)
(1.48594 -1.70699 2.08809e-18)
(1.47178 -1.69078 2.46852e-23)
(1.45751 -1.67444 0)
(1.44312 -1.65796 0)
(1.4286 -1.64133 0)
(1.41395 -1.62457 0)
(1.39916 -1.60765 -8.68667e-19)
(1.38424 -1.59057 -2.81501e-19)
(1.36917 -1.57333 0)
(1.35395 -1.55592 1.0473e-18)
(1.33857 -1.53834 2.51406e-19)
(1.32303 -1.52057 -2.46542e-19)
(1.30733 -1.50261 9.46177e-19)
(1.29145 -1.48446 9.14157e-19)
(1.27538 -1.46609 -1.76465e-18)
(1.25927 -1.44768 2.139e-19)
(1.24339 -1.42952 6.3919e-19)
(1.22786 -1.41177 -2.37555e-23)
(1.21267 -1.39441 6.31128e-19)
(1.1978 -1.37743 4.1619e-19)
(1.18326 -1.3608 6.1798e-19)
(1.16902 -1.34453 8.20394e-19)
(1.15508 -1.32859 -1.01723e-18)
(1.14142 -1.31297 2.04157e-19)
(1.12803 -1.29767 0)
(1.11492 -1.28268 0)
(1.10206 -1.26798 0)
(1.08945 -1.25356 0)
(1.07708 -1.23941 9.87924e-19)
(1.06494 -1.22553 5.90118e-19)
(1.05303 -1.21191 9.81447e-19)
(1.04134 -1.19854 -1.97532e-19)
(1.02986 -1.18541 7.82255e-19)
(1.01859 -1.17252 0)
(1.00751 -1.15985 -1.93252e-19)
(0.996625 -1.1474 1.95898e-19)
(0.985924 -1.13516 1.92644e-19)
(0.975402 -1.12313 -5.83103e-19)
(0.965053 -1.11129 -3.87312e-19)
(0.954871 -1.09965 0)
(0.944853 -1.0882 -1.91874e-19)
(0.934992 -1.07693 5.81063e-19)
(0.925285 -1.06583 1.94551e-19)
(0.915727 -1.05491 5.80461e-19)
(0.906314 -1.04415 2.25602e-23)
(0.897042 -1.03356 -9.63e-19)
(0.887909 -1.02312 5.79924e-19)
(0.878911 -1.01283 1.91381e-19)
(0.870045 -1.0027 -5.79687e-19)
(0.861309 -0.992712 1.91321e-19)
(0.8527 -0.98287 3.82599e-19)
(0.844217 -0.973169 1.46823e-23)
(0.835856 -0.963607 -1.48655e-23)
(0.827618 -0.954181 -1.0961e-23)
(0.819498 -0.94489 2.76484e-21)
(0.811498 -0.935732 3.86273e-19)
(0.803614 -0.926704 -1.92385e-19)
(0.795846 -0.917805 1.92301e-19)
(0.788191 -0.909034 0)
(0.78065 -0.900389 5.74929e-19)
(0.773221 -0.891868 -2.70178e-21)
(0.765903 -0.883469 -5.76917e-19)
(0.758693 -0.875193 -1.90372e-19)
(0.751592 -0.867036 1.92923e-19)
(0.744598 -0.858999 1.91456e-19)
(0.73771 -0.851079 1.89985e-19)
(0.730925 -0.843276 -1.93799e-19)
(0.724244 -0.835587 -3.83397e-19)
(0.717665 -0.828012 -1.90914e-19)
(0.711186 -0.820548 -1.21596e-23)
(0.704805 -0.813195 0)
(0.698522 -0.80595 -1.89387e-19)
(0.692334 -0.798811 3.82598e-19)
(0.68624 -0.791778 0)
(0.680237 -0.784848 -1.90744e-19)
(0.674325 -0.778018 -1.90861e-19)
(0.6685 -0.771287 -9.55215e-20)
(0.662762 -0.764652 1.90677e-19)
(0.657107 -0.758111 -1.92275e-19)
(0.651535 -0.751661 3.20977e-24)
(1.65502 -1.91284 3.74133e-21)
(1.6421 -1.89793 -9.72025e-19)
(1.62912 -1.88293 1.90964e-18)
(1.61606 -1.86785 9.26709e-19)
(1.60292 -1.85268 9.0636e-19)
(1.5897 -1.83742 -8.7883e-19)
(1.57639 -1.82207 -8.51621e-19)
(1.563 -1.80661 8.39667e-19)
(1.54951 -1.79106 -1.6262e-18)
(1.53593 -1.77539 3.16242e-18)
(1.52226 -1.75962 2.30159e-18)
(1.50848 -1.74373 7.42921e-19)
(1.4946 -1.72773 7.21415e-19)
(1.4806 -1.7116 -2.11583e-18)
(1.4665 -1.69534 2.73315e-18)
(1.45228 -1.67895 -6.59213e-19)
(1.43794 -1.66242 6.46572e-19)
(1.42347 -1.64576 1.24651e-18)
(1.40887 -1.62894 -6.00345e-19)
(1.39414 -1.61198 5.888e-19)
(1.37927 -1.59485 -1.13334e-18)
(1.36425 -1.57756 0)
(1.34909 -1.56011 7.98172e-19)
(1.33377 -1.54247 2.58622e-19)
(1.31828 -1.52466 -9.93481e-19)
(1.30263 -1.50665 -9.60544e-19)
(1.28681 -1.48844 9.28371e-19)
(1.27081 -1.47003 2.01515e-18)
(1.25475 -1.45156 -2.20895e-19)
(1.23893 -1.43336 2.15287e-19)
(1.22345 -1.41556 -1.07683e-18)
(1.20832 -1.39815 0)
(1.19351 -1.38112 -8.45464e-19)
(1.17902 -1.36445 1.04701e-18)
(1.16483 -1.34813 6.23059e-19)
(1.15094 -1.33215 0)
(1.13733 -1.31649 -2.03965e-19)
(1.12399 -1.30115 4.08863e-19)
(1.11092 -1.28611 -2.04968e-19)
(1.09811 -1.27137 6.08748e-19)
(1.08555 -1.25691 3.15797e-21)