/*--------------------------------*- C++ -*----------------------------------*\
  =========                 |
  \\      /  F ield         | OpenFOAM: The Open Source CFD Toolbox
   \\    /   O peration     | Website:  https://openfoam.org
    \\  /    A nd           | Version:  10
     \\/     M anipulation  |
\*---------------------------------------------------------------------------*/
FoamFile
{
    format      ascii;
    class       volVectorField;
    location    "1000";
    object      Urel;
}
// * * * * * * * * * * * * * * * * * * * * * * * * * * * * * * * * * * * * * //

dimensions      [0 1 -1 0 0 0 0];

internalField   nonuniform List<vector> 
17969
(
(0.152443 -0.127378 0)
(-0.0266542 -0.0421596 0)
(-0.00282974 -0.0254624 -2.22957e-17)
(0.000277276 -0.019092 4.05793e-17)
(-0.000607224 -0.0142144 -1.55454e-17)
(-0.00141801 -0.0112951 -1.10261e-17)
(-0.00195655 -0.00969762 7.38545e-18)
(-0.00241796 -0.00876167 0)
(-0.00285934 -0.00815855 2.54858e-19)
(-0.00329459 -0.00773766 0)
(-0.00372841 -0.00742697 0)
(-0.00416314 -0.00718997 0)
(-0.00460072 -0.00700733 0)
(-0.00504175 -0.0068689 -1.85658e-18)
(-0.00548318 -0.00676784 1.84395e-18)
(-0.00592877 -0.00669418 0)
(-0.00637987 -0.00664186 -1.63336e-18)
(-0.00683272 -0.00661291 1.60373e-18)
(-0.00728842 -0.00660919 -1.56777e-18)
(-0.00774618 -0.00663172 1.54249e-18)
(-0.0082044 -0.00668122 0)
(-0.00866152 -0.00675805 0)
(-0.00911583 -0.00686208 -1.81595e-19)
(-0.00956543 -0.00699252 0)
(-0.0100083 -0.00714777 0)
(-0.0104425 -0.00732524 1.35976e-18)
(-0.0108662 -0.0075212 -2.66073e-18)
(-0.0112782 -0.00773087 1.30068e-18)
(-0.0116779 -0.00794873 1.26407e-18)
(-0.0120664 -0.00816927 -1.60223e-19)
(-0.0124459 -0.00838831 -1.52576e-18)
(-0.0128209 -0.00860482 0)
(-0.0131974 -0.00882306 1.22068e-18)
(-0.0135833 -0.00905458 -2.83982e-18)
(-0.0139867 -0.0093192 7.05289e-21)
(-0.0144146 -0.00964373 2.85142e-18)
(-0.0148691 -0.0100551 -1.5385e-18)
(-0.0153445 -0.0105634 -2.02501e-18)
(-0.0158243 -0.0111371 1.24257e-18)
(-0.0162853 -0.0116914 0)
(-0.0167094 -0.0121178 3.50907e-19)
(-0.0170942 -0.0123444 2.98574e-19)
(-0.0174371 -0.012374 2.06952e-18)
(-0.0177397 -0.0122771 -1.95678e-18)
(-0.0180113 -0.0121195 -1.92276e-18)
(-0.0182682 -0.011934 -4.69388e-19)
(-0.018533 -0.0117129 1.96692e-18)
(-0.0188136 -0.0114484 1.96432e-18)
(-0.0191104 -0.0111371 -1.94141e-20)
(-0.0194243 -0.0107742 -2.0184e-18)
(-0.0197582 -0.0103469 -2.52617e-18)
(-0.0201177 -0.00982519 2.58433e-18)
(-0.0205215 -0.00914341 0)
(-0.0209804 -0.00815146 0)
(-0.0215404 -0.0064688 6.77388e-19)
(-0.0221585 -0.00308357 5.51254e-18)
(-0.0226051 0.00372259 -4.97491e-18)
(-0.0235234 0.0128579 0)
(-0.0265142 0.0193526 0)
(-0.0306911 0.0213244 1.79793e-18)
(-0.0350322 0.0204913 -3.14989e-18)
(-0.0372865 0.0197174 0)
(-0.037447 0.019567 0)
(-0.035749 0.020204 -1.18931e-18)
(-0.0321606 0.0232738 -2.26299e-18)
(-0.0283008 0.0268017 1.16555e-18)
(-0.0249543 0.0304487 2.18293e-18)
(-0.022276 0.0325818 0)
(-0.0201893 0.0310589 0)
(-0.0189896 0.0240816 0)
(-0.0190832 0.0116021 2.06384e-18)
(-0.0204863 -0.00361663 -1.28303e-19)
(-0.0220843 -0.0169849 -4.10033e-18)
(-0.0212349 -0.0267608 0)
(-0.0211612 -0.0324239 1.66972e-18)
(-0.0218607 -0.0357548 1.53223e-18)
(-0.0224378 -0.0369457 -1.41123e-18)
(-0.0232737 -0.0358145 0)
(-0.0241807 -0.0331031 0)
(-0.0252883 -0.029427 0)
(-0.0271464 -0.0244049 0)
(-0.0297287 -0.0171501 0)
(-0.0325202 -0.00808528 1.91481e-18)
(-0.0348842 0.000294057 -3.23998e-18)
(-0.0365272 0.00541671 2.19333e-18)
(-0.0378688 0.00632697 -3.85892e-19)
(-0.0393571 0.00378738 0)
(-0.0404873 -0.00125695 0)
(-0.0410023 -0.00708086 0)
(-0.0408663 -0.0115353 -6.51234e-19)
(-0.0399546 -0.0129821 8.68331e-19)
(-0.0385351 -0.0112208 7.57414e-19)
(-0.0342896 -0.00533125 -1.02599e-18)
(-0.0275631 0.000742859 1.0513e-18)
(-0.0225976 0.00422145 -2.23568e-18)
(-0.0189793 0.00562047 6.57205e-19)
(-0.0172459 0.0062653 0)
(-0.0167097 0.00671678 -1.53992e-19)
(-0.0167179 0.00693933 1.58094e-19)
(-0.0168521 0.00641747 1.12852e-20)
(0.154961 -0.122736 0)
(-0.026094 -0.0405053 -4.28242e-17)
(-0.00244053 -0.0230065 4.65876e-17)
(0.000536617 -0.0164966 1.31693e-18)
(-0.000502466 -0.0115964 6.38979e-17)
(-0.00140117 -0.00868485 -8.7121e-17)
(-0.00198557 -0.00710018 3.00608e-17)
(-0.00247266 -0.00618036 2.16737e-17)
(-0.00293129 -0.00559625 -1.68488e-17)
(-0.00338033 -0.00519674 -1.36885e-17)
(-0.00382685 -0.00490929 2.41688e-20)
(-0.00427484 -0.00469688 9.53992e-18)
(-0.00472778 -0.0045398 0)
(-0.00518308 -0.00442742 0)
(-0.00564225 -0.00435045 -7.34482e-18)
(-0.00610985 -0.00429888 7.28536e-18)
(-0.00658326 -0.00427312 0)
(-0.00706071 -0.00427595 -6.80269e-18)
(-0.00754295 -0.00430911 6.93123e-18)
(-0.0080292 -0.00437422 0)
(-0.00851831 -0.00447279 -6.53302e-18)
(-0.00900904 -0.00460613 6.07593e-18)
(-0.00949981 -0.00477514 2.00009e-19)
(-0.0099886 -0.00498004 0)
(-0.0104729 -0.00521986 6.23901e-18)
(-0.0109497 -0.00549192 -4.07887e-19)
(-0.0114157 -0.00579113 -1.20868e-17)
(-0.0118672 -0.00610955 5.911e-18)
(-0.0123014 -0.00643633 -3.57487e-19)
(-0.012716 -0.0067584 5.66991e-18)
(-0.0131108 -0.00706226 -4.9628e-18)
(-0.0134882 -0.0073367 0)
(-0.0138533 -0.00757619 4.27393e-18)
(-0.0142144 -0.00778389 -3.94354e-18)
(-0.0145825 -0.007974 0)
(-0.0149712 -0.00817349 6.52897e-19)
(-0.0153944 -0.00842345 -7.1556e-19)
(-0.0158628 -0.00877678 -5.98426e-18)
(-0.0163785 -0.0092819 1.46977e-17)
(-0.0169285 -0.00994175 -1.00328e-18)
(-0.0174836 -0.0106655 -8.10462e-18)
(-0.0180103 -0.0112832 -8.20402e-18)
(-0.0184914 -0.0116486 1.17006e-17)
(-0.0189287 -0.0117347 -1.08515e-17)
(-0.0193097 -0.0116178 8.41572e-18)
(-0.019636 -0.0113907 -3.55669e-18)
(-0.019912 -0.0111208 4.02904e-18)
(-0.0201631 -0.0108375 -9.16022e-18)
(-0.0204165 -0.0105254 8.19475e-18)
(-0.0206695 -0.0101694 -8.25104e-18)
(-0.0209096 -0.00975638 3.6605e-18)
(-0.0211217 -0.00926779 -5.24774e-19)
(-0.0212882 -0.00867267 0)
(-0.0213989 -0.00791731 0)
(-0.0214686 -0.0069128 -5.95178e-19)
(-0.0214159 -0.00549683 -1.55309e-18)
(-0.0207177 -0.00361034 8.9043e-18)
(-0.0184625 -0.00197697 -1.87072e-17)
(-0.0148699 -0.00174252 -2.97478e-17)
(-0.0113981 -0.00367491 4.5682e-18)
(-0.00954446 -0.00632306 2.91091e-17)
(-0.00927545 -0.00797896 2.90598e-17)
(-0.0099484 -0.00758418 -2.48472e-17)
(-0.0119034 -0.00387986 2.1739e-18)
(-0.014472 0.00322208 0)
(-0.0166794 0.011246 1.60374e-18)
(-0.0180125 0.0186232 1.12874e-17)
(-0.0176227 0.0236054 -1.05922e-17)
(-0.0160879 0.0247672 -4.90654e-18)
(-0.0142337 0.0209672 -4.58446e-18)
(-0.0129095 0.0122281 9.59496e-18)
(-0.0110284 0.000768637 7.29607e-18)
(-0.00863012 -0.011621 8.6121e-18)
(-0.00572058 -0.021799 -8.40696e-18)
(-0.00555405 -0.0288535 -1.95225e-18)
(-0.0065416 -0.0342912 -1.82488e-18)
(-0.00772123 -0.0372084 1.69245e-18)
(-0.00842978 -0.0378849 3.16439e-18)
(-0.0086433 -0.0377191 8.84838e-18)
(-0.0079808 -0.0368759 -3.33852e-19)
(-0.00582876 -0.0347974 -5.93269e-18)
(-0.00193316 -0.0315518 -1.39247e-18)
(0.00309983 -0.0280014 0)
(0.00763588 -0.0249871 5.54742e-19)
(0.0108206 -0.0224353 -4.92798e-19)
(0.0118145 -0.020386 4.44757e-19)
(0.0111667 -0.0200364 0)
(0.00925159 -0.0217373 0)
(0.00626146 -0.0248043 -5.47169e-18)
(0.00250371 -0.0285109 2.34608e-19)
(-0.00141342 -0.0322551 7.2514e-18)
(-0.00407571 -0.0324199 0)
(-0.00424483 -0.0256233 0)
(-0.00496175 -0.0108963 6.76403e-18)
(-0.00785132 -0.000921755 -7.76397e-18)
(-0.0101067 0.00296409 2.29902e-18)
(-0.0112704 0.00433746 0)
(-0.0116157 0.00493323 0)
(-0.0115247 0.00524259 -3.06382e-19)
(-0.0113716 0.00535514 2.03906e-19)
(0.157436 -0.118187 4.02561e-17)
(-0.0256352 -0.0386786 -8.80938e-17)
(-0.00208792 -0.020328 2.00491e-16)
(0.000866945 -0.0137459 -9.4239e-17)
(-0.000239236 -0.0088583 2.13276e-18)
(-0.00120828 -0.00594457 0)
(-0.00183232 -0.0043724 9.8847e-19)
(-0.00234365 -0.00347599 0)
(-0.00282076 -0.00291925 0)
(-0.00328609 -0.00254749 8.63319e-19)
(-0.00374799 -0.00228671 3.59104e-19)
(-0.00421137 -0.00209934 0)
(-0.00468073 -0.0019655 0)
(-0.00515041 -0.00187406 4.96849e-19)
(-0.00562534 -0.00181486 -7.60151e-18)
(-0.00611026 -0.00178247 6.76244e-18)
(-0.00659862 -0.00177892 -6.84827e-18)
(-0.00709197 -0.0018063 7.21076e-18)
(-0.00759087 -0.00186621 -2.22146e-19)
(-0.00809471 -0.00196045 -7.46369e-18)
(-0.00860313 -0.0020911 6.55444e-18)
(-0.00911574 -0.00226063 8.67907e-19)
(-0.00963191 -0.00247175 4.32676e-19)
(-0.0101506 -0.00272723 0)
(-0.0106701 -0.00302933 0)
(-0.011188 -0.00337886 7.3308e-18)
(-0.0117005 -0.00377388 -6.04043e-18)
(-0.0122028 -0.00420811 -8.52914e-19)
(-0.0126894 -0.00466947 -5.42699e-18)
(-0.0131539 -0.00513951 6.49936e-18)
(-0.0135912 -0.00559461 0)
(-0.0139985 -0.00600935 0)
(-0.0143763 -0.00636174 6.70778e-19)
(-0.0147295 -0.00663864 9.27983e-18)
(-0.0150666 -0.00683956 -1.86753e-17)
(-0.0154 -0.00697782 8.58447e-18)
(-0.0157463 -0.0070804 5.89692e-19)
(-0.0161256 -0.0071887 -1.29279e-18)
(-0.016559 -0.00736279 1.48371e-18)
(-0.0170613 -0.00768915 8.69921e-19)
(-0.0176347 -0.00824987 0)
(-0.0182595 -0.00904381 1.08651e-18)
(-0.018892 -0.00990394 2.13679e-18)
(-0.0194868 -0.0105648 -1.31849e-17)
(-0.0200261 -0.0108697 1.01024e-19)
(-0.0205102 -0.0108517 1.14433e-17)
(-0.0209257 -0.0106389 0)
(-0.0212688 -0.0103264 4.89401e-22)
(-0.0215418 -0.00998771 -2.1117e-18)
(-0.0217753 -0.00966154 0)
(-0.0219972 -0.00933006 1.06534e-18)
(-0.0222032 -0.00897477 -8.51478e-18)
(-0.022376 -0.00857815 8.66823e-18)
(-0.0224869 -0.00811271 0)
(-0.0225036 -0.00752172 2.20437e-18)
(-0.0223983 -0.0067053 0)
(-0.0221573 -0.00551165 -2.4613e-18)
(-0.021689 -0.00367066 -1.16553e-17)
(-0.0206897 -0.000984871 1.52767e-17)
(-0.0186045 0.00179821 4.86337e-18)
(-0.0156204 0.00247337 0)
(-0.0137172 0.00140356 -2.48463e-17)
(-0.0130272 0.00164933 4.56686e-17)
(-0.0125686 0.0039963 -3.45417e-19)
(-0.011653 0.00734258 -7.91815e-18)
(-0.0101544 0.0111121 -3.97542e-18)
(-0.00797662 0.0146199 -2.72649e-17)
(-0.00550292 0.0167754 3.75905e-19)
(-0.00290632 0.0159014 2.39147e-17)
(-0.000973358 0.0110778 3.24636e-22)
(-0.000335516 0.00166989 0)
(-0.000277288 -0.0118633 1.55143e-17)
(-0.00145334 -0.0233501 4.20347e-18)
(-0.00178052 -0.0277081 -1.99039e-17)
(-0.00288357 -0.0294373 0)
(-0.00425308 -0.0315996 0)
(-0.00645451 -0.0321061 -3.56431e-18)
(-0.00867749 -0.0311242 9.25265e-18)
(-0.0105636 -0.0294896 -2.59328e-17)
(-0.012241 -0.0277612 2.07898e-17)
(-0.0130818 -0.0254947 -1.20967e-17)
(-0.013046 -0.021688 -7.34656e-18)
(-0.0122315 -0.0151939 8.37836e-18)
(-0.0109858 -0.00667097 -8.32846e-18)
(-0.00957267 0.00167473 1.53133e-17)
(-0.00830475 0.00756283 -8.97303e-18)
(-0.00708119 0.0101253 9.42304e-18)
(-0.00604252 0.0109278 -2.03044e-17)
(-0.00577844 0.0112205 9.14009e-19)
(-0.00655792 0.0113498 8.95349e-19)
(-0.00859435 0.0111893 9.01497e-18)
(-0.0115233 0.00990246 0)
(-0.0145525 0.00823783 4.51316e-18)
(-0.0164434 0.00708166 -6.98297e-18)
(-0.0168434 0.00618537 1.30184e-19)
(-0.0165196 0.00546368 2.36598e-19)
(-0.0160582 0.00495657 1.47425e-19)
(-0.0156289 0.00457878 1.6051e-19)
(-0.0152389 0.00422985 4.80047e-19)
(-0.0148519 0.00388947 1.33919e-20)
(0.159634 -0.113756 -1.27888e-18)
(-0.0252996 -0.0370788 -1.7786e-16)
(-0.00188281 -0.0179577 3.40455e-19)
(0.0010248 -0.0112639 6.2896e-18)
(-0.000166033 -0.00632897 1.42878e-16)
(-0.00120526 -0.00336967 9.66191e-17)
(-0.00186286 -0.00177826 -1.16962e-18)
(-0.00238776 -0.000882821 -4.76765e-17)
(-0.00287091 -0.000337182 0)
(-0.00333937 1.89576e-05 2.82802e-17)
(-0.00380334 0.000262392 -2.35337e-17)
(-0.00426845 0.000432177 0)
(-0.00473949 0.000549114 0)
(-0.0052118 0.000625314 -5.13678e-19)
(-0.00568914 0.000670139 4.90112e-19)
(-0.0061761 0.000684258 4.79257e-19)
(-0.00666671 0.000666539 1.45693e-17)
(-0.0071616 0.000616488 -1.48489e-17)
(-0.00766165 0.000533574 0)
(-0.00816654 0.000417019 4.53284e-19)
(-0.00867627 0.000265539 1.57416e-17)
(-0.0091912 7.69914e-05 -2.92041e-17)
(-0.0097118 -0.000151896 1.39781e-17)
(-0.0102386 -0.000425685 9.06055e-19)
(-0.0107719 -0.00075015 1.46332e-17)
(-0.0113115 -0.00113172 -1.49089e-17)
(-0.011856 -0.00157617 -1.6053e-17)
(-0.0124021 -0.00208617 1.73327e-17)
(-0.0129445 -0.00265783 -2.05894e-22)
(-0.0134753 -0.00327702 -1.54429e-17)
(-0.0139845 -0.00391725 1.51716e-17)
(-0.0144619 -0.00454124 0)
(-0.0148996 -0.00510749 0)
(-0.0152947 -0.00557974 -1.20486e-17)
(-0.0156505 -0.00593538 1.20584e-17)
(-0.0159758 -0.00616967 -9.43408e-18)
(-0.0162809 -0.00629536 8.67175e-18)
(-0.0165837 -0.00634243 -7.32409e-18)
(-0.0169059 -0.00634822 -1.04137e-18)
(-0.0172741 -0.00634797 6.48401e-20)
(-0.0177135 -0.00639766 2.35326e-17)
(-0.0182367 -0.00660919 -2.85155e-17)
(-0.0188466 -0.00713456 1.48957e-17)
(-0.0195205 -0.00798928 0)
(-0.0202073 -0.00894408 0)
(-0.0208509 -0.00965751 -2.02404e-18)
(-0.0214322 -0.0099568 -1.31396e-17)
(-0.0219525 -0.0099058 9.37839e-18)
(-0.0223957 -0.00965645 -6.85827e-18)
(-0.0227487 -0.00931171 1.10486e-17)
(-0.0230075 -0.00895447 1.08882e-17)
(-0.0232091 -0.00863211 -1.10014e-17)
(-0.023384 -0.00832116 0)
(-0.0235241 -0.00799502 -6.54595e-18)
(-0.0236033 -0.00762966 8.89684e-18)
(-0.0235877 -0.00718796 0)
(-0.0234359 -0.00660014 2.26672e-18)
(-0.023094 -0.00575318 2.34835e-18)
(-0.0225172 -0.00451918 -4.98216e-18)
(-0.0217263 -0.00276504 -2.71144e-18)
(-0.0209822 -0.000454388 5.9221e-18)
(-0.0205294 0.00212725 2.57039e-17)
(-0.0202698 0.00466808 -3.40399e-17)
(-0.0196092 0.00762487 2.70957e-17)
(-0.0179782 0.0109107 -4.03859e-17)
(-0.0153194 0.0141056 2.61747e-17)
(-0.0118357 0.0171332 -3.02606e-17)
(-0.007342 0.0196897 2.93395e-17)
(-0.00255028 0.0201021 -5.55878e-18)
(0.00148608 0.0179491 -2.68323e-17)
(0.00437881 0.0136782 2.21108e-17)
(0.00601102 0.00778768 0)
(0.00347984 0.00236257 -5.35251e-18)
(-0.000792152 -0.00424952 0)
(-0.00397514 -0.009419 0)
(-0.00636926 -0.012089 0)
(-0.00989118 -0.0126351 1.68407e-17)
(-0.0138983 -0.0133074 -1.27018e-17)
(-0.0175582 -0.0146063 -5.57941e-18)
(-0.0207675 -0.016472 -5.03157e-18)
(-0.0235592 -0.0183831 2.27693e-18)
(-0.0261844 -0.0194742 -2.0622e-18)
(-0.0284343 -0.0194936 -7.32577e-18)
(-0.0295107 -0.0173614 7.71798e-18)
(-0.0295059 -0.0138132 8.05997e-18)
(-0.0272284 -0.0100773 -7.53173e-19)
(-0.0248484 -0.00658399 -2.87329e-17)
(-0.0231567 -0.00343785 1.45828e-18)
(-0.0221198 -0.0013303 1.42753e-17)
(-0.0212551 3.60678e-05 -1.44948e-18)
(-0.0204028 0.000840199 6.09192e-19)
(-0.0197604 0.00134612 -7.4285e-18)
(-0.0193741 0.00172272 6.54442e-18)
(-0.0190645 0.00206687 -2.88982e-19)
(-0.0186625 0.0023188 2.19079e-19)
(-0.0181684 0.00245077 2.17837e-18)
(-0.0176317 0.00248236 -3.78423e-18)
(-0.0170853 0.00244194 1.73619e-18)
(-0.01656 0.00235671 6.56386e-19)
(-0.0160808 0.00225122 -8.29649e-19)
(-0.0156498 0.002135 -7.26544e-20)
(-0.0152641 0.0020298 2.81098e-19)
(-0.0149162 0.00193143 -1.06048e-18)
(-0.0145997 0.00184168 1.03746e-18)
(0.161654 -0.109436 8.57859e-17)
(-0.025064 -0.0355601 0)
(-0.00178576 -0.0157195 2.19653e-16)
(0.00107794 -0.00895569 2.82179e-18)
(-0.00019111 -0.00398811 -3.0921e-16)
(-0.00129246 -0.000976163 2.10374e-16)
(-0.00198066 0.000649141 -6.79736e-17)
(-0.00251656 0.00155941 0)
(-0.00300093 0.00210822 3.87706e-17)
(-0.00346665 0.00246119 -5.98766e-17)
(-0.00392621 0.00269801 2.40702e-17)
(-0.00438598 0.00285929 -6.64259e-19)
(-0.00485079 0.00296665 1.86654e-17)
(-0.00531863 0.00303263 -3.3899e-17)
(-0.00579005 0.00306545 1.55502e-17)
(-0.00626958 0.00306362 -9.76631e-19)
(-0.00675428 0.00302684 1.53398e-17)
(-0.00724216 0.00295555 -1.42005e-17)
(-0.00773419 0.0028503 0)
(-0.00822991 0.00271195 1.47366e-17)
(-0.00872891 0.00254139 -1.64806e-17)
(-0.00923132 0.00233895 -9.09093e-19)
(-0.0097378 0.00210382 0)
(-0.0102496 0.00183337 -1.82401e-18)
(-0.0107688 0.00152238 0)
(-0.0112975 0.00116245 1.40921e-17)
(-0.0118385 0.000741907 9.07841e-19)
(-0.0123931 0.000246836 -1.81062e-17)
(-0.0129612 -0.000335948 -1.04425e-18)
(-0.0135392 -0.00101281 0)
(-0.0141189 -0.00177463 0)
(-0.0146868 -0.00258938 0)
(-0.0152264 -0.00340252 -1.49808e-17)
(-0.0157231 -0.00414983 1.60242e-17)
(-0.0161675 -0.00477583 -1.79039e-18)
(-0.0165588 -0.00524707 1.23963e-17)
(-0.0169079 -0.00555551 -9.29997e-18)
(-0.0172204 -0.00571383 9.24048e-18)
(-0.0175039 -0.00576004 -8.75399e-18)
(-0.0177766 -0.00573296 0)
(-0.0180702 -0.00566526 1.10954e-17)
(-0.0184207 -0.00557906 -9.64685e-18)
(-0.0188571 -0.00551898 8.51789e-18)
(-0.0193924 -0.00560147 -1.06329e-17)
(-0.0200088 -0.00601654 4.2468e-18)
(-0.0206966 -0.00684207 -4.75915e-18)
(-0.0214058 -0.00784373 0)
(-0.0220735 -0.00862697 1.99498e-21)
(-0.0226747 -0.00897229 0)
(-0.0232133 -0.00894784 1.94257e-17)
(-0.0236738 -0.00871617 -2.15777e-17)
(-0.0240347 -0.0083881 2.26995e-18)
(-0.0242869 -0.00805914 -1.78617e-17)
(-0.0244736 -0.00779183 1.58161e-17)
(-0.0246369 -0.00755907 -2.24245e-18)
(-0.0247778 -0.00732912 0)
(-0.024883 -0.00706427 0)
(-0.0249392 -0.00670439 -1.80434e-17)
(-0.0249626 -0.00614134 4.94786e-18)
(-0.0250054 -0.00520239 2.01342e-17)
(-0.025013 -0.00367776 1.76532e-17)
(-0.0246829 -0.00148266 -2.98634e-17)
(-0.024208 0.000930658 0)
(-0.0244625 0.00369465 0)
(-0.0250173 0.00710516 -7.05362e-18)
(-0.0254834 0.0108959 0)
(-0.0259523 0.0147509 -6.24282e-18)
(-0.0265974 0.0192525 1.68134e-17)
(-0.0260419 0.0240032 -2.1417e-17)
(-0.0248688 0.0267144 1.00077e-17)
(-0.0237864 0.0263385 9.89141e-18)
(-0.023878 0.0207321 1.03576e-17)
(-0.0239928 0.00869831 0)
(-0.02333 -0.00259522 9.22334e-18)
(-0.0237986 -0.00905897 -9.2489e-18)
(-0.02464 -0.0122855 1.55568e-17)
(-0.0248442 -0.0153625 -7.63526e-18)
(-0.0245658 -0.0192093 2.61152e-17)
(-0.0241166 -0.023305 -1.38694e-18)
(-0.0238051 -0.0272106 4.53723e-18)
(-0.0238776 -0.0305203 -2.27013e-17)
(-0.0245199 -0.032772 1.76969e-17)
(-0.0251512 -0.0340051 -1.72654e-17)
(-0.0239231 -0.030891 0)
(-0.0198444 -0.0236305 3.87994e-18)
(-0.0182052 -0.0140894 2.51111e-17)
(-0.0189635 -0.008345 -3.62857e-18)
(-0.0199688 -0.00567821 -1.00428e-18)
(-0.0205469 -0.00420689 -8.83983e-18)
(-0.0206731 -0.00309268 3.17809e-21)
(-0.0205247 -0.00215036 4.31729e-18)
(-0.0202739 -0.00141914 -5.58481e-18)
(-0.0199258 -0.000879908 4.15382e-18)
(-0.0194726 -0.000482187 -4.30526e-18)
(-0.0189471 -0.000191181 2.85113e-18)
(-0.0183887 1.49227e-05 -2.64533e-18)
(-0.0178298 0.000154967 0)
(-0.0172945 0.000244534 0)
(-0.0167952 0.000297162 7.09004e-19)
(-0.0163338 0.000324095 -6.15834e-19)
(-0.0159075 0.000334575 -2.85336e-21)
(-0.0155131 0.000335818 9.37776e-22)
(-0.0151488 0.00033304 -1.09713e-18)
(-0.0148153 0.00033257 1.07323e-18)
(0.163498 -0.105225 -3.88666e-18)
(-0.024918 -0.0341402 3.9235e-16)
(-0.00178142 -0.0136383 -4.67837e-16)
(0.00105348 -0.0068336 2.09147e-16)
(-0.000281154 -0.00183933 0)
(-0.00144648 0.00123391 0)
(-0.00217206 0.00290484 -4.56989e-18)
(-0.00271882 0.00383977 -5.19114e-17)
(-0.00320204 0.00439979 7.72806e-17)
(-0.00366159 0.00475653 -3.12397e-17)
(-0.00411248 0.00499314 0)
(-0.0045619 0.00515203 3.32188e-23)
(-0.00501474 0.00525582 -6.06797e-19)
(-0.00547325 0.00531709 0)
(-0.00593384 0.00534308 1.02113e-18)
(-0.00640114 0.00533272 9.92371e-19)
(-0.00687662 0.0052826 -9.7889e-19)
(-0.0073548 0.00519231 -9.66474e-19)
(-0.00783695 0.00506275 0)
(-0.00832231 0.00489573 0)
(-0.00880937 0.00469408 9.34298e-19)
(-0.00929706 0.00446135 1.09964e-22)
(-0.00978482 0.00420114 9.14993e-19)
(-0.0102729 0.00391628 1.24178e-22)
(-0.0107625 0.00360751 0)
(-0.0112566 0.00327201 -9.13204e-19)
(-0.0117593 0.00290181 -2.7924e-18)
(-0.0122764 0.00248237 -9.62199e-19)
(-0.0128139 0.00199207 0)
(-0.0133771 0.00140383 0)
(-0.0139678 0.000691463 -2.29319e-18)
(-0.0145813 -0.000156515 2.43199e-18)
(-0.0152046 -0.00111759 1.50639e-17)
(-0.0158161 -0.00212365 -2.61111e-18)
(-0.0163905 -0.00307623 -2.48096e-18)
(-0.0169089 -0.00388407 -1.93383e-17)
(-0.0173646 -0.00449377 -1.47296e-17)
(-0.0177637 -0.00489318 1.55264e-17)
(-0.0181205 -0.00510338 -1.04161e-17)
(-0.0184353 -0.00517537 9.35783e-18)
(-0.0187163 -0.00516536 -2.26334e-18)
(-0.0189751 -0.00510295 0)
(-0.0192451 -0.00499064 2.07987e-17)
(-0.0195751 -0.00485129 -1.94735e-17)
(-0.0199942 -0.00472972 -2.76034e-18)
(-0.0205148 -0.00471333 3.37035e-18)
(-0.0211194 -0.00498453 4.06704e-18)
(-0.021787 -0.00570904 -2.76134e-17)
(-0.022483 -0.00670107 3.80144e-17)
(-0.0231493 -0.0075543 0)
(-0.023753 -0.00799585 -7.15448e-18)
(-0.0243003 -0.00805076 0)
(-0.0247825 -0.00790068 0)
(-0.0251663 -0.0076388 -4.6472e-18)
(-0.0254301 -0.00737358 0)
(-0.0256155 -0.00717875 -4.562e-18)
(-0.0257654 -0.00701498 4.54691e-18)
(-0.0258764 -0.0068241 -1.80248e-17)
(-0.0259195 -0.00653132 2.2926e-17)
(-0.0258944 -0.00601391 1.82875e-17)
(-0.0258433 -0.00505767 -2.56562e-17)
(-0.0255708 -0.00338194 1.35407e-17)
(-0.0243937 -0.00122083 1.79596e-17)
(-0.0226183 0.000194131 -4.26814e-17)
(-0.0213612 0.000969097 4.26683e-17)
(-0.0202857 0.00163783 -4.17394e-17)
(-0.0185234 0.00186023 1.9226e-17)
(-0.018024 -0.000537774 3.57111e-17)
(-0.0175502 -0.004669 -3.27029e-17)
(-0.0166137 -0.00954409 -1.40842e-17)
(-0.0145309 -0.0166101 -2.57965e-17)
(-0.0095931 -0.0263138 1.14663e-17)
(-0.00492796 -0.0337585 3.07489e-17)
(-0.00189482 -0.0381821 -1.06976e-17)
(6.37355e-05 -0.0410045 2.68554e-17)
(0.00133993 -0.04378 -3.57746e-17)
(0.00170776 -0.0449102 7.95316e-21)
(0.00143577 -0.0435129 -2.23449e-17)
(0.000666616 -0.0410274 3.83889e-17)
(0.000582051 -0.0390934 0)
(0.00107778 -0.0358929 0)
(0.00188318 -0.0296351 1.26269e-17)
(-0.000376929 -0.0198974 -5.6587e-17)
(-0.0071595 -0.0113335 3.62589e-17)
(-0.0131435 -0.00744725 1.92852e-17)
(-0.0171491 -0.00627194 -1.10811e-17)
(-0.0192035 -0.00563032 8.35528e-18)
(-0.0200457 -0.00506993 -7.7971e-18)
(-0.0202442 -0.0044727 -9.43617e-19)
(-0.0201672 -0.00388521 8.44612e-19)
(-0.019953 -0.00336252 7.46725e-19)
(-0.0196281 -0.00291509 0)
(-0.019225 -0.00253563 0)
(-0.0187796 -0.00222036 4.79477e-19)
(-0.0183146 -0.00196478 3.96374e-19)
(-0.0178448 -0.00176169 2.28599e-18)
(-0.0173808 -0.00160245 -5.37803e-19)
(-0.0169306 -0.00147813 -1.85969e-18)
(-0.0164992 -0.00138019 6.48853e-19)
(-0.0160893 -0.00130136 -6.62486e-19)
(-0.0157021 -0.00123586 2.98973e-19)
(-0.0153377 -0.00117869 -3.245e-19)
(-0.0149962 -0.00112547 -1.07487e-18)
(-0.0146722 -0.00106962 -3.99333e-19)
(0.165182 -0.101127 -8.58485e-17)
(-0.0248515 -0.0328208 2.0411e-16)
(-0.0018534 -0.0117171 -4.97849e-16)
(0.000970097 -0.00489882 2.29884e-16)
(-0.000426349 0.000121327 5.47401e-18)
(-0.00166459 0.00326064 -1.13826e-16)
(-0.00242583 0.0049834 1.55097e-16)
(-0.00297856 0.00594722 -5.44211e-17)
(-0.00345684 0.00652202 4.23157e-17)
(-0.00390613 0.0068862 -3.2665e-17)
(-0.0043436 0.00712672 0)
(-0.00477748 0.00728806 7.208e-19)
(-0.00521275 0.00739408 -2.08369e-17)
(-0.00565405 0.0074578 1.81437e-17)
(-0.00609889 0.00748676 -1.04449e-18)
(-0.0065487 0.0074828 -1.60251e-17)
(-0.00700764 0.00743655 1.6847e-17)
(-0.00747258 0.00734339 1.6703e-17)
(-0.00794264 0.0072024 -4.5996e-20)
(-0.00841771 0.00701385 -1.56259e-17)
(-0.00889589 0.0067799 -9.69583e-19)
(-0.00937479 0.00650503 9.61643e-19)
(-0.00985205 0.00619581 -2.85117e-18)
(-0.0103256 0.00586044 -9.36081e-19)
(-0.0107941 0.00550762 -1.65417e-17)
(-0.0112577 0.00514472 1.63349e-17)
(-0.0117187 0.00477533 2.76834e-22)
(-0.0121819 0.0043967 1.79949e-18)
(-0.0126549 0.00399707 -1.83981e-18)
(-0.013148 0.0035534 1.92785e-18)
(-0.0136729 0.00302989 1.86049e-17)
(-0.0142404 0.0023799 -2.04583e-17)
(-0.0148558 0.00155723 2.49764e-18)
(-0.0155139 0.000543856 6.41107e-22)
(-0.0161936 -0.000612804 2.82984e-18)
(-0.0168596 -0.00178989 2.79235e-18)
(-0.0174764 -0.00283677 -4.37336e-17)
(-0.0180237 -0.00364685 2.16163e-19)
(-0.0185004 -0.00418778 3.37071e-17)
(-0.0189207 -0.00448487 0)
(-0.0192922 -0.00459506 0)
(-0.0196172 -0.00459481 0)
(-0.0199005 -0.00453761 -2.12894e-17)
(-0.0201517 -0.00445467 1.91787e-17)
(-0.0204028 -0.00433591 0)
(-0.0207043 -0.0041872 0)
(-0.0210945 -0.00405503 -2.34747e-17)
(-0.0215865 -0.00400219 2.18302e-17)
(-0.0221616 -0.00416113 2.99557e-17)
(-0.022778 -0.0047177 -3.45599e-17)
(-0.0234277 -0.00561384 9.00501e-18)
(-0.0240614 -0.00649221 0)
(-0.0246519 -0.00703915 0)
(-0.0251985 -0.00720869 1.18714e-17)
(-0.0256934 -0.00717299 1.99244e-17)
(-0.0260942 -0.00703261 -1.4321e-17)
(-0.0263624 -0.00686827 -4.6502e-18)
(-0.0265147 -0.0067735 0)
(-0.0265798 -0.00671209 -2.27594e-17)
(-0.0265031 -0.00660822 3.16755e-19)
(-0.0262339 -0.00635132 2.29373e-17)
(-0.0257017 -0.00570132 -1.98132e-17)
(-0.0245001 -0.00438448 1.27153e-17)
(-0.0216337 -0.002397 0)
(-0.0168104 -0.000521176 0)
(-0.0106191 0.000734518 2.41578e-17)
(-0.00346818 0.00171298 -1.53881e-18)
(0.00474706 0.00347214 -1.94601e-18)
(0.0153033 0.00280105 -3.49129e-17)
(0.025206 -0.00213124 0)
(0.0322932 -0.00714226 4.46441e-17)
(0.0356676 -0.011462 3.83077e-17)
(0.0355915 -0.0149277 -5.31111e-17)
(0.0331301 -0.0173703 -3.48425e-17)
(0.0288638 -0.0178263 0)
(0.0243835 -0.0154145 -1.19006e-16)
(0.0214568 -0.0110181 1.03741e-16)
(0.0158965 -0.0076526 -1.56498e-21)
(0.00838333 -0.00550706 -1.42545e-17)
(0.0012628 -0.00430027 1.21474e-17)
(-0.00554002 -0.00416911 1.05439e-17)
(-0.0117173 -0.00483236 0)
(-0.0159573 -0.00558401 0)
(-0.0182734 -0.00600515 0)
(-0.0194548 -0.00603313 -1.17201e-17)
(-0.0199764 -0.00591841 -1.78982e-18)
(-0.0201124 -0.00562839 2.10581e-17)
(-0.0200551 -0.00524012 -9.89135e-18)
(-0.0198901 -0.00485813 -6.28433e-18)
(-0.0196425 -0.00451223 7.13568e-18)
(-0.0193295 -0.00420319 0)
(-0.0189682 -0.00393143 4.92983e-18)
(-0.0185743 -0.00369713 -4.86076e-18)
(-0.0181608 -0.003497 0)
(-0.0177374 -0.00332555 -8.02334e-19)
(-0.0173121 -0.00317666 -2.30239e-18)
(-0.0168917 -0.00304497 2.26551e-18)
(-0.0164822 -0.00292664 -1.16451e-18)
(-0.0160876 -0.00281866 1.14641e-18)
(-0.0157109 -0.00271861 0)
(-0.0153535 -0.00262437 3.30748e-19)
(-0.0150162 -0.00253396 -3.12688e-19)
(-0.0146989 -0.00244542 1.04663e-18)
(-0.0144004 -0.00235675 -2.60303e-18)
(-0.0141192 -0.00226682 1.61895e-18)
(0.166712 -0.0971392 2.72409e-18)
(-0.0248554 -0.0316 0)
(-0.00198514 -0.00995426 -2.50433e-16)
(0.000840789 -0.00315185 2.44753e-16)
(-0.00062759 0.00188837 -3.07691e-23)
(-0.00194465 0.00509707 -3.70389e-18)
(-0.00273292 0.00687224 0)
(-0.00328989 0.00786567 -5.5162e-17)
(-0.00376168 0.00845605 4.4465e-17)
(-0.00419822 0.00882843 0)
(-0.00461898 0.00907361 1.7658e-18)
(-0.00503345 0.00923839 0)
(-0.00544677 0.00934816 5.47631e-23)
(-0.00586251 0.00941728 -1.88584e-17)
(-0.00628494 0.00945384 3.43715e-17)
(-0.0067108 0.00946207 -1.61111e-17)
(-0.00714269 0.00943773 1.56481e-17)
(-0.00758437 0.00936912 -3.32058e-17)
(-0.00803228 0.00924755 1.57113e-17)
(-0.00848778 0.00906908 9.87489e-19)
(-0.00895074 0.00883163 -9.95365e-19)
(-0.00941904 0.00853568 -1.39963e-17)
(-0.00988973 0.00818545 1.80851e-17)
(-0.0103591 0.0077894 1.99585e-18)
(-0.0108231 0.00736024 1.9679e-18)
(-0.011278 0.00691383 -1.9221e-18)
(-0.0117216 0.00646678 1.86361e-18)
(-0.0121537 0.00603288 0)
(-0.0125779 0.00561921 2.83891e-22)
(-0.0130011 0.00522255 -2.96258e-22)
(-0.0134349 0.00482642 -1.77069e-18)
(-0.0138951 0.00439833 0)
(-0.0144003 0.0038869 0)
(-0.0149683 0.00322243 3.97515e-17)
(-0.0156091 0.00233322 -3.74251e-17)
(-0.0163172 0.00119186 0)
(-0.017063 -0.000125001 -4.95698e-17)
(-0.0177943 -0.00143494 8.52352e-17)
(-0.018462 -0.00254097 -4.98829e-17)
(-0.0190465 -0.00333081 0)
(-0.0195544 -0.00379864 -3.43299e-17)
(-0.0200051 -0.00400847 2.49627e-17)
(-0.020401 -0.00405106 5.32349e-18)
(-0.020745 -0.00400195 -2.24807e-17)
(-0.0210377 -0.00391345 1.74532e-17)
(-0.0212887 -0.00382774 0)
(-0.0215302 -0.00373859 1.99302e-17)
(-0.0217999 -0.00362221 -2.54672e-17)
(-0.0221441 -0.00351485 2.07759e-17)
(-0.0225872 -0.0034779 -1.72775e-17)
(-0.0231129 -0.00358261 -3.3347e-17)
(-0.0236793 -0.00397346 3.08355e-17)
(-0.0242531 -0.00469183 -8.13839e-18)
(-0.0248227 -0.00551075 2.34003e-17)
(-0.0253703 -0.00613008 -3.69825e-19)
(-0.0258889 -0.00644019 -2.38734e-17)
(-0.0263683 -0.00656517 0)
(-0.0267644 -0.00660837 -2.85969e-17)
(-0.0270376 -0.00665536 2.81451e-17)
(-0.0271926 -0.00679288 -1.8708e-17)
(-0.0272381 -0.00700824 0)
(-0.0272023 -0.00722732 9.05145e-18)
(-0.0271332 -0.00729689 2.84829e-17)
(-0.0269535 -0.00700679 1.10244e-17)
(-0.026361 -0.00606559 -6.74264e-19)
(-0.0250982 -0.00432003 -1.69707e-17)
(-0.0231312 -0.001953 7.08395e-17)
(-0.0203557 0.000945275 -7.79025e-17)
(-0.0171099 0.00363725 -3.97642e-17)
(-0.0140401 0.0054562 7.88643e-17)
(-0.0117026 0.00633116 -6.06944e-17)
(-0.0103902 0.00620888 -7.66244e-17)
(-0.0102401 0.00537676 1.08609e-16)
(-0.0109851 0.00417053 -3.63132e-17)
(-0.0124714 0.00235934 0)
(-0.0145019 -3.17897e-05 -2.76563e-17)
(-0.0162682 -0.00213046 2.72103e-17)
(-0.017189 -0.00429607 -7.73796e-17)
(-0.0175222 -0.0062569 4.76735e-17)
(-0.0177415 -0.00742552 -1.48563e-17)
(-0.018531 -0.00788545 -2.64865e-17)
(-0.0198215 -0.00790304 1.01727e-18)
(-0.0208179 -0.00768123 9.17628e-19)
(-0.0211703 -0.00743275 1.28455e-17)
(-0.0210804 -0.00709395 1.36512e-17)
(-0.0208069 -0.00671099 -8.0867e-19)
(-0.0204664 -0.00634782 -7.4083e-18)
(-0.0200993 -0.00602264 2.11376e-18)
(-0.019714 -0.0057286 -7.2491e-18)
(-0.0193142 -0.00545852 8.85218e-18)
(-0.0189056 -0.00521118 0)
(-0.0184933 -0.00499198 4.94217e-18)
(-0.0180787 -0.00480803 -8.54272e-18)
(-0.0176608 -0.00466016 4.17686e-18)
(-0.0172389 -0.00453927 3.32012e-18)
(-0.0168165 -0.0044308 -2.87348e-18)
(-0.0164019 -0.00432374 2.48032e-19)
(-0.016003 -0.00421357 -9.81424e-19)
(-0.0156234 -0.00410025 1.03138e-18)
(-0.0152647 -0.00398462 4.63552e-20)
(-0.0149271 -0.00386742 -1.19093e-20)
(-0.0146105 -0.0037491 0)
(-0.0143141 -0.00362974 6.07623e-20)
(-0.0140367 -0.0035091 -8.55187e-20)
(-0.0137775 -0.00338689 -1.0853e-19)
(-0.0135351 -0.00326308 4.28152e-18)
(-0.0133065 -0.00313772 -4.58548e-18)
(0.168102 -0.0932603 -8.84876e-17)
(-0.0249236 -0.0304793 0)
(-0.00216723 -0.00833227 2.81302e-16)
(0.000669543 -0.00156795 -2.60361e-16)
(-0.000873685 0.00347497 -5.8537e-18)
(-0.00227262 0.00675353 7.70694e-18)
(-0.00308696 0.00858026 8.3524e-17)
(-0.00364956 0.00960219 -6.1738e-17)
(-0.00411602 0.0102066 -2.82626e-18)
(-0.00454025 0.0105849 -3.80815e-17)
(-0.00494409 0.0108317 2.96457e-17)
(-0.00533829 0.0109961 1.57707e-18)
(-0.00572859 0.0111051 4.95297e-23)
(-0.00611821 0.0111741 1.23138e-18)