/*--------------------------------*- C++ -*----------------------------------*\
  =========                 |
  \\      /  F ield         | OpenFOAM: The Open Source CFD Toolbox
   \\    /   O peration     | Website:  https://openfoam.org
    \\  /    A nd           | Version:  10
     \\/     M anipulation  |
\*---------------------------------------------------------------------------*/
FoamFile
{
    format      ascii;
    class       volScalarField;
    location    "16000";
    object      Co;
}
// * * * * * * * * * * * * * * * * * * * * * * * * * * * * * * * * * * * * * //

dimensions      [0 0 0 0 0 0 0];

internalField   nonuniform List<scalar> 
17808
(
5909.77
5229.81
4935.39
4735.99
4583.68
4460.48
4356.85
4267.23
4188.12
4117.17
4052.74
3993.63
3938.96
3888.02
3840.28
3795.31
3752.75
3712.32
3673.78
3636.92
3601.58
3567.6
3534.87
3503.26
3472.69
3443.08
3414.34
3386.41
3359.23
3332.75
3306.92
3281.69
3257.04
3232.92
3209.31
3186.16
3163.46
3141.18
3119.29
3097.78
3076.62
3055.81
3035.31
3015.12
2995.21
2975.58
2956.22
2937.1
2918.22
2899.57
2881.14
2862.91
2844.89
2827.05
2809.39
2791.91
2774.59
2757.44
2740.43
2723.57
2706.85
2690.26
2673.79
2657.45
2641.22
2625.16
2609.24
2593.43
2577.7
2562.06
2546.49
2531
2515.58
2500.23
2484.94
2469.71
2454.53
2439.4
2424.33
2409.29
2394.29
2379.33
2364.4
2349.5
2334.62
2319.76
2304.91
2290.08
2275.26
2260.44
2245.62
2230.79
5729.66
5064.48
4777.23
4584.34
4438.06
4320.23
4221.33
4135.87
4060.41
3992.68
3931.09
3874.51
3822.1
3773.21
3727.33
3684.05
3643.06
3604.08
3566.89
3531.3
3497.15
3464.3
3432.64
3402.05
3372.46
3343.78
3315.94
3288.87
3262.53
3236.86
3211.81
3187.35
3163.44
3140.04
3117.12
3094.66
3072.63
3051
3029.76
3008.87
2988.34
2968.12
2948.22
2928.61
2909.28
2890.22
2871.41
2852.84
2834.5
2816.39
2798.48
2780.78
2763.27
2745.94
2728.79
2711.81
2694.98
2678.32
2661.79
2645.41
2629.17
2613.05
2597.06
2581.18
2565.42
2549.79
2534.32
2518.96
2503.68
2488.48
2473.36
2458.31
2443.34
2428.42
2413.57
2398.77
2384.03
2369.33
2354.69
2340.08
2325.51
2310.98
2296.47
2282
2267.54
2253.11
2238.69
2224.28
2209.88
2195.48
2181.09
2166.69
5564.07
4917.83
4638
4449.71
4306.95
4192.08
4095.84
4012.84
3939.69
3874.13
3814.59
3759.94
3709.35
3662.16
3617.88
3576.11
3536.54
3498.91
3462.99
3428.6
3395.59
3363.83
3333.2
3303.61
3274.97
3247.2
3220.24
3194.02
3168.5
3143.62
3119.34
3095.63
3072.44
3049.74
3027.52
3005.73
2984.35
2963.36
2942.74
2922.47
2902.54
2882.92
2863.59
2844.55
2825.78
2807.27
2789.01
2770.98
2753.17
2735.58
2718.19
2700.99
2683.98
2667.15
2650.49
2633.99
2617.65
2601.46
2585.41
2569.5
2553.72
2538.06
2522.52
2507.1
2491.79
2476.59
2461.55
2446.62
2431.78
2417.02
2402.33
2387.71
2373.16
2358.67
2344.24
2329.87
2315.55
2301.28
2287.05
2272.86
2258.7
2244.59
2230.5
2216.43
2202.39
2188.37
2174.36
2160.37
2146.38
2132.39
2118.41
2104.42
5402.96
4775.15
4503.14
4320.15
4181.38
4069.68
3976.08
3895.37
3824.26
3760.57
3702.78
3649.77
3600.71
3554.99
3512.11
3471.68
3433.38
3396.96
3362.2
3328.93
3296.99
3266.25
3236.61
3207.96
3180.23
3153.34
3127.23
3101.83
3077.1
3053
3029.46
3006.47
2983.99
2961.99
2940.43
2919.29
2898.55
2878.19
2858.18
2838.51
2819.17
2800.12
2781.36
2762.88
2744.66
2726.69
2708.95
2691.44
2674.15
2657.07
2640.18
2623.48
2606.96
2590.61
2574.43
2558.41
2542.53
2526.8
2511.21
2495.76
2480.43
2465.22
2450.12
2435.14
2420.27
2405.49
2390.86
2376.37
2361.95
2347.61
2333.34
2319.14
2305
2290.93
2276.91
2262.95
2249.04
2235.17
2221.35
2207.56
2193.82
2180.1
2166.41
2152.75
2139.11
2125.49
2111.88
2098.29
2084.7
2071.11
2057.52
2043.93
5246.78
4636.72
4372.09
4194.18
4059.31
3950.79
3859.88
3781.51
3712.48
3650.66
3594.58
3543.16
3495.59
3451.26
3409.69
3370.51
3333.41
3298.12
3264.46
3232.23
3201.3
3171.53
3142.82
3115.08
3088.22
3062.17
3036.87
3012.26
2988.3
2964.93
2942.13
2919.84
2898.04
2876.7
2855.8
2835.3
2815.18
2795.43
2776.02
2756.93
2738.15
2719.67
2701.46
2683.52
2665.84
2648.39
2631.17
2614.17
2597.38
2580.79
2564.39
2548.18
2532.13
2516.26
2500.54
2484.98
2469.56
2454.28
2439.14
2424.13
2409.24
2394.46
2379.8
2365.25
2350.8
2336.44
2322.22
2308.13
2294.12
2280.19
2266.33
2252.53
2238.8
2225.13
2211.51
2197.95
2184.43
2170.96
2157.53
2144.14
2130.79
2117.47
2104.17
2090.9
2077.65
2064.42
2051.2
2037.99
2024.79
2011.59
1998.39
1985.19
5095.5
4502.9
4245.59
4072.6
3941.46
3835.96
3747.61
3671.45
3604.39
3544.35
3489.9
3439.98
3393.81
3350.81
3310.49
3272.49
3236.51
3202.31
3169.67
3138.43
3108.45
3079.61
3051.79
3024.9
2998.87
2973.63
2949.11
2925.26
2902.03
2879.38
2857.27
2835.67
2814.53
2793.84
2773.56
2753.68
2734.17
2715.01
2696.18
2677.66
2659.44
2641.5
2623.84
2606.42
2589.26
2572.32
2555.6
2539.1
2522.8
2506.69
2490.77
2475.02
2459.44
2444.02
2428.76
2413.65
2398.67
2383.84
2369.13
2354.55
2340.08
2325.73
2311.49
2297.35
2283.32
2269.37
2255.55
2241.85
2228.24
2214.71
2201.24
2187.84
2174.5
2161.22
2147.99
2134.81
2121.68
2108.6
2095.55
2082.55
2069.57
2056.63
2043.71
2030.82
2017.95
2005.1
1992.25
1979.42
1966.6
1953.78
1940.96
1928.13
4948.77
4373.2
4123.15
3955.02
3827.54
3725
3639.12
3565.09
3499.92
3441.57
3388.66
3340.17
3295.33
3253.57
3214.42
3177.54
3142.62
3109.44
3077.78
3047.48
3018.4
2990.43
2963.45
2937.38
2912.15
2887.67
2863.9
2840.78
2818.26
2796.3
2774.86
2753.91
2733.41
2713.34
2693.68
2674.39
2655.47
2636.88
2618.61
2600.64
2582.96
2565.56
2548.41
2531.52
2514.85
2498.41
2482.19
2466.17
2450.34
2434.7
2419.24
2403.95
2388.83
2373.86
2359.03
2344.36
2329.81
2315.41
2301.12
2286.96
2272.91
2258.97
2245.14
2231.41
2217.77
2204.23
2190.79
2177.47
2164.25
2151.1
2138.02
2125
2112.04
2099.14
2086.29
2073.49
2060.74
2048.03
2035.35
2022.72
2010.11
1997.54
1984.99
1972.47
1959.97
1947.48
1935
1922.54
1910.08
1897.62
1885.17
1872.71
4806.34
4247.3
4004.37
3840.98
3717.1
3617.45
3533.99
3462.05
3398.71
3342.02
3290.6
3243.48
3199.92
3159.36
3121.34
3085.52
3051.62
3019.4
2988.67
2959.27
2931.06
2903.91
2877.74
2852.45
2827.97
2804.23
2781.18
2758.75
2736.91
2715.61
2694.82
2674.5
2654.62
2635.15
2616.08
2597.37
2579.01
2560.98
2543.26
2525.82
2508.67
2491.78
2475.14
2458.74
2442.57
2426.61
2410.87
2395.31
2379.95
2364.77
2349.76
2334.91
2320.23
2305.69
2291.3
2277.04
2262.92
2248.93
2235.06
2221.3
2207.66
2194.12
2180.69
2167.35
2154.11
2140.95
2127.89
2114.94
2102.1
2089.33
2076.62
2063.97
2051.38
2038.85
2026.36
2013.93
2001.54
1989.19
1976.88
1964.6
1952.36
1940.15
1927.96
1915.79
1903.64
1891.51
1879.4
1867.29
1855.18
1843.08
1830.98
1818.88
4668.05
4125.08
3889.08
3730.31
3609.93
3513.1
3432.01
3362.11
3300.56
3245.47
3195.52
3149.74
3107.42
3068.01
3031.09
2996.3
2963.38
2932.09
2902.26
2873.71
2846.32
2819.98
2794.58
2770.04
2746.28
2723.25
2700.88
2679.12
2657.93
2637.27
2617.1
2597.38
2578.1
2559.22
2540.71
2522.56
2504.75
2487.25
2470.06
2453.14
2436.5
2420.11
2403.96
2388.05
2372.35
2356.87
2341.58
2326.48
2311.57
2296.83
2282.26
2267.85
2253.59
2239.47
2225.5
2211.66
2197.95
2184.36
2170.89
2157.53
2144.28
2131.13
2118.08
2105.13
2092.26
2079.49
2066.79
2054.21
2041.73
2029.32
2016.98
2004.69
1992.46
1980.28
1968.16
1956.08
1944.04
1932.04
1920.08
1908.16
1896.27
1884.4
1872.56
1860.74
1848.94
1837.16
1825.38
1813.62
1801.86
1790.11
1778.35
1766.6
4533.79
4006.41
3777.16
3622.9
3505.94
3411.86
3333.07
3265.15
3205.35
3151.83
3103.29
3058.82
3017.7
2979.42
2943.55
2909.76
2877.78
2847.4
2818.42
2790.7
2764.11
2738.54
2713.88
2690.06
2667
2644.65
2622.94
2601.82
2581.26
2561.21
2541.64
2522.51
2503.8
2485.47
2467.52
2449.91
2432.62
2415.65
2398.96
2382.55
2366.39
2350.49
2334.82
2319.37
2304.14
2289.11
2274.27
2259.62
2245.14
2230.84
2216.69
2202.7
2188.85
2175.15
2161.58
2148.14
2134.83
2121.63
2108.55
2095.58
2082.71
2069.94
2057.27
2044.69
2032.2
2019.79
2007.46
1995.23
1983.1
1971.04
1959.05
1947.11
1935.23
1923.4
1911.62
1899.88
1888.19
1876.54
1864.92
1853.34
1841.78
1830.25
1818.75
1807.27
1795.81
1784.36
1772.92
1761.49
1750.07
1738.65
1727.23
1715.81
4403.42
3891.2
3668.52
3518.65
3405.01
3313.61
3237.05
3171.07
3112.98
3060.97
3013.82
2970.61
2930.66
2893.47
2858.62
2825.8
2794.74
2765.22
2737.08
2710.16
2684.34
2659.51
2635.56
2612.44
2590.05
2568.35
2547.28
2526.78
2506.82
2487.36
2468.37
2449.8
2431.64
2413.86
2396.44
2379.35
2362.58
2346.1
2329.91
2313.98
2298.3
2282.87
2267.66
2252.67
2237.88
2223.29
2208.89
2194.67
2180.62
2166.73
2152.99
2139.41
2125.97
2112.66
2099.49
2086.44
2073.51
2060.7
2048
2035.4
2022.9
2010.51
1998.2
1985.98
1973.85
1961.79
1949.82
1937.93
1926.15
1914.43
1902.78
1891.19
1879.64
1868.15
1856.71
1845.31
1833.95
1822.63
1811.34
1800.09
1788.86
1777.66
1766.49
1755.33
1744.2
1733.08
1721.97
1710.86
1699.77
1688.67
1677.58
1666.49
4276.81
3779.32
3563.03
3417.44
3307.04
3218.23
3143.86
3079.76
3023.32
2972.79
2926.98
2885
2846.19
2810.06
2776.21
2744.32
2714.15
2685.48
2658.15
2632.01
2606.93
2582.81
2559.56
2537.1
2515.37
2494.3
2473.83
2453.94
2434.56
2415.67
2397.23
2379.21
2361.59
2344.33
2327.42
2310.83
2294.55
2278.56
2262.84
2247.38
2232.17
2217.19
2202.43
2187.88
2173.52
2159.36
2145.38
2131.58
2117.94
2104.45
2091.12
2077.93
2064.89
2051.97
2039.18
2026.51
2013.96
2001.51
1989.18
1976.95
1964.81
1952.77
1940.82
1928.95
1917.17
1905.47
1893.84
1882.29
1870.83
1859.45
1848.13
1836.86
1825.65
1814.49
1803.37
1792.29
1781.26
1770.26
1759.3
1748.36
1737.46
1726.58
1715.73
1704.89
1694.07
1683.27
1672.47
1661.69
1650.91
1640.13
1629.35
1618.58
4153.87
3670.67
3460.59
3319.16
3211.91
3125.64
3053.38
2991.11
2936.28
2887.2
2842.69
2801.91
2764.21
2729.11
2696.22
2665.25
2635.94
2608.09
2581.54
2556.15
2531.79
2508.36
2485.78
2463.97
2442.87
2422.41
2402.54
2383.22
2364.41
2346.07
2328.17
2310.67
2293.56
2276.81
2260.4
2244.29
2228.49
2212.97
2197.71
2182.71
2167.94
2153.4
2139.07
2124.95
2111.02
2097.27
2083.7
2070.3
2057.05
2043.97
2031.02
2018.22
2005.55
1993.01
1980.59
1968.29
1956.1
1944.02
1932.05
1920.17
1908.38
1896.69
1885.09
1873.56
1862.12
1850.75
1839.46
1828.23
1817.1
1806.04
1795.05
1784.1
1773.21
1762.36
1751.56
1740.8
1730.08
1719.4
1708.75
1698.13
1687.53
1676.97
1666.42
1655.89
1645.38
1634.89
1624.4
1613.92
1603.45
1592.98
1582.51
1572.04
4034.47
3565.16
3361.11
3223.73
3119.54
3035.73
2965.54
2905.05
2851.78
2804.1
2760.87
2721.25
2684.62
2650.53
2618.58
2588.49
2560.02
2532.97
2507.18
2482.51
2458.85
2436.1
2414.17
2392.99
2372.49
2352.62
2333.33
2314.57
2296.3
2278.49
2261.11
2244.13
2227.52
2211.25
2195.31
2179.68
2164.34
2149.27
2134.46
2119.9
2105.56
2091.45
2077.54
2063.83
2050.3
2036.96
2023.79
2010.77
1997.92
1985.21
1972.65
1960.22
1947.92
1935.74
1923.69
1911.74
1899.91
1888.18
1876.55
1865.02
1853.57
1842.22
1830.95
1819.76
1808.64
1797.6
1786.63
1775.73
1764.91
1754.17
1743.49
1732.85
1722.27
1711.73
1701.24
1690.79
1680.37
1670
1659.65
1649.33
1639.04
1628.77
1618.53
1608.3
1598.09
1587.89
1577.71
1567.53
1557.35
1547.18
1537.01
1526.84
3918.51
3462.69
3264.51
3131.06
3029.85
2948.43
2880.25
2821.48
2769.74
2723.42
2681.42
2642.94
2607.36
2574.23
2543.2
2513.97
2486.31
2460.04
2434.99
2411.03
2388.05
2365.95
2344.65
2324.07
2304.17
2284.87
2266.13
2247.92
2230.18
2212.89
2196.01
2179.52
2163.38
2147.59
2132.12
2116.94
2102.05
2087.42
2073.04
2058.9
2044.98
2031.28
2017.78
2004.47
1991.34
1978.38
1965.59
1952.96
1940.48
1928.15
1915.95
1903.88
1891.94
1880.12
1868.41
1856.82
1845.33
1833.94
1822.64
1811.44
1800.33
1789.31
1778.36
1767.5
1756.7
1745.98
1735.33
1724.74
1714.23
1703.79
1693.41
1683.08
1672.8
1662.56
1652.37
1642.21
1632.09
1622.01
1611.96
1601.94
1591.94
1581.96
1572.01
1562.08
1552.16
1542.25
1532.36
1522.47
1512.58
1502.7
1492.82
1482.94
3805.9
3363.18
3170.68
3041.06
2942.75
2863.66
2797.43
2740.34
2690.07
2645.08
2604.29
2566.9
2532.34
2500.16
2470.02
2441.62
2414.76
2389.23
2364.9
2341.63
2319.3
2297.84
2277.15
2257.17
2237.83
2219.09
2200.89
2183.2
2165.98
2149.18
2132.79
2116.78
2101.11
2085.78
2070.76
2056.02
2041.56
2027.35
2013.39
1999.66
1986.15
1972.85
1959.74
1946.81
1934.07
1921.49
1909.08
1896.81
1884.7
1872.72
1860.88
1849.16
1837.57
1826.09
1814.72
1803.46
1792.31
1781.25
1770.28
1759.41
1748.62
1737.91
1727.28
1716.73
1706.25
1695.84
1685.49
1675.21
1664.99
1654.85
1644.76
1634.73
1624.74
1614.8
1604.89
1595.03
1585.2
1575.4
1565.64
1555.9
1546.19
1536.5
1526.83
1517.18
1507.54
1497.92
1488.3
1478.69
1469.09
1459.49
1449.9
1440.3
3696.52
3266.53
3079.57
2953.66
2858.17
2781.34
2717
2661.55
2612.72
2569.01
2529.38
2493.07
2459.5
2428.24
2398.96
2371.38
2345.28
2320.49
2296.85
2274.24
2252.56
2231.71
2211.62
2192.21
2173.43
2155.22
2137.55
2120.37
2103.64
2087.33
2071.41
2055.86
2040.65
2025.76
2011.17
1996.86
1982.82
1969.03
1955.47
1942.14
1929.02
1916.1
1903.37
1890.83
1878.45
1866.24
1854.19
1842.28
1830.51
1818.89
1807.39
1796.01
1784.75
1773.61
1762.58
1751.64
1740.81
1730.07
1719.43
1708.87
1698.39
1687.99
1677.67
1667.42
1657.25
1647.14
1637.09
1627.1
1617.17
1607.31
1597.51
1587.76
1578.06
1568.4
1558.78
1549.2
1539.65
1530.13
1520.65
1511.19
1501.75
1492.34
1482.95
1473.57
1464.21
1454.86
1445.51
1436.18
3590.29
3172.66
2991.07
2868.78
2776.02
2701.4
2638.9
2585.03
2537.6
2495.15
2456.65
2421.37
2388.76
2358.4
2329.96
2303.17
2277.82
2253.73
2230.77
2208.82
2187.75
2167.5
2147.98
2129.13
2110.89
2093.21
2076.05
2059.36
2043.11
2027.27
2011.81
1996.71
1981.94
1967.48
1953.31
1939.41
1925.78
1912.38
1899.22
1886.28
1873.54
1860.99
1848.63
1836.45
1824.44
1812.58
1800.87
1789.31
1777.89
1766.6
1755.44
1744.39
1733.46
1722.64
1711.93
1701.31
1690.79
1680.37
1670.03
1659.77
1649.6
1639.5
1629.48
1619.53
1609.65
1599.83
1590.07
1580.37
1570.73
1561.15
1551.62
1542.15
1532.72
1523.34
1513.99
1504.68
1495.41
1486.16
1476.95
1467.76
1458.59
1449.45
1440.32
1431.21
1422.11
1413.03
1403.95
1394.88
3487.12
3081.49
2905.13
2786.35
2696.25
2623.76
2563.05
2510.72
2464.65
2423.41
2386.02
2351.75
2320.08
2290.59
2262.96
2236.93
2212.31
2188.92
2166.61
2145.28
2124.83
2105.16
2086.2
2067.89
2050.17
2033
2016.33
2000.12
1984.34
1968.95
1953.94
1939.27
1924.92
1910.88
1897.12
1883.63
1870.38
1857.38
1844.6
1832.03
1819.66
1807.48
1795.47
1783.64
1771.98
1760.46
1749.1
1737.87
1726.78
1715.82
1704.98
1694.25
1683.64
1673.14
1662.73
1652.42
1642.21
1632.09
1622.05
1612.09
1602.21
1592.41
1582.68
1573.01
1563.41
1553.88
1544.4
1534.99
1525.62
1516.31
1507.05
1497.84
1488.69
1479.57
1470.49
1461.44
1452.43
1443.45
1434.5
1425.57
1416.67
1407.78
1398.92
1390.07
1381.23
1372.4
1363.58
1354.78
3386.92
2992.95
2821.65
2706.29
2618.77
2548.36
2489.39
2438.56
2393.81
2353.75
2317.43
2284.14
2253.38
2224.73
2197.89
2172.61
2148.7
2125.97
2104.31
2083.59
2063.72
2044.61
2026.2
2008.41
1991.21
1974.53
1958.33
1942.59
1927.26
1912.32
1897.74
1883.49
1869.56
1855.92
1842.56
1829.45
1816.59
1803.96
1791.55
1779.34
1767.33
1755.5
1743.85
1732.36
1721.03
1709.85
1698.82
1687.92
1677.15
1666.5
1655.97
1645.56
1635.25
1625.05
1614.95
1604.94
1595.02
1585.19
1575.44
1565.78
1556.18
1546.66
1537.21
1527.83
1518.51
1509.25
1500.05
1490.9
1481.81
1472.76
1463.77
1454.82
1445.91
1437.05
1428.23
1419.45
1410.69
1401.97
1393.27
1384.6
1375.95
1367.32
1358.7
1350.1
1341.52
3289.6
2906.95
2740.58
2628.53
2543.52
2475.13
2417.85
2368.48
2325
2286.1
2250.81
2218.48
2188.6
2160.77
2134.7
2110.15
2086.92
2064.85
2043.81
2023.68
2004.38
1985.82
1967.94
1950.66
1933.95
1917.75
1902.02
1886.73
1871.84
1857.33
1843.17
1829.33
1815.8
1802.55
1789.57
1776.85
1764.36
1752.09
1740.04
1728.18
1716.52
1705.03
1693.71
1682.56
1671.55
1660.7
1649.98
1639.4
1628.94
1618.6
1608.38
1598.27
1588.26
1578.35
1568.54
1558.82
1549.19
1539.65
1530.18
1520.79
1511.48
1502.23
1493.06
1483.94
1474.89
1465.9
1456.96
1448.08
1439.25
1430.47
1421.73
1413.04
1404.39
1395.77
1387.2
1378.66
1370.15
1361.67
1353.22
1344.8
1336.4
1328.02
1319.66
1311.31
1302.99
3195.08
2823.43
2661.84
2553.01
2470.44
2404.01
2348.37
2300.41
2258.19
2220.39
2186.12
2154.72
2125.69
2098.66
2073.34
2049.49
2026.93
2005.49
1985.05
1965.5
1946.76
1928.73
1911.36
1894.58
1878.34
1862.61
1847.33
1832.48
1818.02
1803.92
1790.17
1776.73
1763.59
1750.72
1738.12
1725.76
1713.63
1701.72
1690.01
1678.5
1667.17
1656.01
1645.02
1634.19
1623.5
1612.96
1602.55
1592.28
1582.12
1572.08
1562.16
1552.34
1542.62
1533
1523.47
1514.03
1504.68
1495.41
1486.22
1477.1
1468.06
1459.08
1450.17
1441.32
1432.53
1423.79
1415.12
1406.49
1397.91
1389.38
1380.9
1372.46
1364.05
1355.69
1347.36
1339.07
1330.8
1322.57
1314.36
1306.18
1298.02
1289.88
1281.76
1273.66
1265.57
3103.27
2742.31
2585.36
2479.66
2399.46
2334.93
2280.89
2234.31
2193.29
2156.58
2123.29
2092.79
2064.59
2038.34
2013.75
1990.58
1968.66
1947.84
1927.99
1909
1890.79
1873.28
1856.41
1840.11
1824.34
1809.06
1794.22
1779.8
1765.75
1752.06
1738.7
1725.65
1712.89
1700.39
1688.15
1676.15
1664.37
1652.8
1641.43
1630.24
1619.24
1608.41
1597.73
1587.21
1576.84
1566.6
1556.49
1546.51
1536.65
1526.9
1517.26
1507.73
1498.29
1488.95
1479.7
1470.53
1461.45
1452.45
1443.52
1434.67
1425.88
1417.16
1408.51
1399.92
1391.38
1382.9
1374.47
1366.09
1357.77
1349.48
1341.24
1333.04
1324.88
1316.76
1308.67
1300.61
1292.59
1284.59
1276.62
1268.67
1260.74
1252.84
1244.95
1237.08
1229.22
3014.11
2663.51
2511.08
2408.41
2330.52
2267.85
2215.35
2170.11
2130.27
2094.61
2062.28
2032.65
2005.26
1979.76
1955.87
1933.37
1912.08
1891.86
1872.57
1854.13
1836.45
1819.44
1803.05
1787.22
1771.9
1757.06
1742.65
1728.64
1715
1701.7
1688.72
1676.05
1663.65
1651.51
1639.62
1627.96
1616.52
1605.29
1594.24
1583.38
1572.7
1562.18
1551.81
1541.59
1531.52
1521.57
1511.76
1502.07
1492.49
1483.02
1473.66
1464.4
1455.24
1446.16
1437.18
1428.28
1419.46
1410.72
1402.05
1393.45
1384.92
1376.45
1368.05
1359.7
1351.41
1343.18
1334.99
1326.86
1318.77
1310.72
1302.72
1294.76
1286.83
1278.94
1271.09
1263.26
1255.47
1247.7
1239.96
1232.24
1224.54
1216.86
1209.2
1201.55
1193.92
2927.51
2586.99
2438.94
2339.22
2263.57
2202.69
2151.7
2107.75
2069.06
2034.42
2003.01
1974.24
1947.63
1922.87
1899.66
1877.81
1857.13
1837.49
1818.76
1800.84
1783.66
1767.15
1751.23
1735.85
1720.98
1706.56
1692.56
1678.95
1665.7
1652.79
1640.18
1627.87
1615.83
1604.04
1592.5
1581.17
1570.06
1559.15
1548.42
1537.88
1527.5
1517.28
1507.21
1497.29
1487.5
1477.85
1468.31
1458.9
1449.6
1440.41
1431.31
1422.32
1413.42
1404.61
1395.89
1387.24
1378.68
1370.19
1361.77
1353.42
1345.13
1336.91
1328.75
1320.65
1312.6
1304.6
1296.65
1288.75
1280.89
1273.08
1265.31
1257.57
1249.88
1242.21
1234.58
1226.98
1219.41
1211.87
1204.35
1196.85
1189.37
1181.92
1174.47
1167.05
1159.63
2843.39
2512.66
2368.87
2272.02
2198.53
2139.41
2089.88
2047.2
2009.61
1975.97
1945.46
1917.51
1891.67
1867.61
1845.07
1823.84
1803.76
1784.68
1766.49
1749.09
1732.4
1716.36
1700.9
1685.96
1671.52
1657.51
1643.92
1630.7
1617.83
1605.29
1593.05
1581.09
1569.39
1557.94
1546.73
1535.73
1524.94
1514.34
1503.92
1493.68
1483.6
1473.67
1463.9
1454.26
1444.76
1435.38
1426.12
1416.98
1407.94
1399.02
1390.19
1381.45
1372.81
1364.25
1355.78
1347.39
1339.07
1330.82
1322.65
1314.54
1306.49
1298.51
1290.58
1282.71
1274.89
1267.13
1259.41
1251.73
1244.1
1236.52
1228.97
1221.46
1213.98
1206.54
1199.13
1191.75
1184.4
1177.07
1169.76
1162.48
1155.22
1147.97
1140.74
1133.53
1126.33
2761.69
2440.47
2300.81
2206.74
2135.37
2077.95
2029.85
1988.38
1951.88
1919.2
1889.56
1862.41
1837.31
1813.94
1792.05
1771.43
1751.93
1733.39
1715.73
1698.83
1682.62
1667.04
1652.02
1637.51
1623.48
1609.88
1596.67
1583.83
1571.34
1559.15
1547.26
1535.65
1524.29
1513.17
1502.28
1491.6
1481.11
1470.82
1460.7
1450.75
1440.97
1431.33
1421.83
1412.47
1403.24
1394.13
1385.14
1376.26
1367.49
1358.82
1350.24
1341.76
1333.37
1325.06
1316.83
1308.68
1300.6
1292.59
1284.65
1276.78
1268.96
1261.21
1253.51
1245.87
1238.27
1230.73
1223.23
1215.78
1208.37
1201
1193.67
1186.38
1179.12
1171.89
1164.69
1157.52
1150.38
1143.27
1136.17
1129.1
1122.04
1115.01
1107.98
1100.98
1093.98
2682.35
2370.35
2234.71
2143.34
2074.03
2018.25
1971.53
1931.26
1895.8
1864.06
1835.28
1808.9
1784.52
1761.82
1740.56
1720.53
1701.58
1683.58
1666.42
1650.01
1634.27
1619.13
1604.55
1590.46
1576.83
1563.62
1550.79
1538.32
1526.18
1514.35
1502.8
1491.52
1480.49
1469.69
1459.11
1448.73
1438.55
1428.56
1418.73
1409.07
1399.56
1390.2
1380.98
1371.89
1362.92
1354.07
1345.34
1336.72
1328.2
1319.78
1311.45
1303.21
1295.06
1286.99
1279
1271.08
1263.24
1255.46
1247.75
1240.1
1232.51
1224.98
1217.51
1210.08
1202.71
1195.38
1188.1
1180.86
1173.67
1166.51
1159.39
1152.31
1145.26
1138.24
1131.25
1124.28
1117.35
1110.43
1103.54
1096.67
1089.82
1082.99
1076.17
1069.36
1062.56
2605.28
2302.25
2170.5
2081.77
2014.44
1960.27
1914.89
1875.78
1841.34
1810.51
1782.55
1756.93
1733.25
1711.2
1690.55
1671.1
1652.69
1635.21
1618.54
1602.6
1587.31
1572.61
1558.44
1544.76
1531.52
1518.69
1506.23
1494.12
1482.33
1470.84
1459.62
1448.66
1437.95
1427.46
1417.18
1407.11
1397.22
1387.51
1377.96
1368.58
1359.35
1350.25
1341.3
1332.47
1323.76
1315.17
1306.69
1298.31
1290.04
1281.86
1273.77
1265.77
1257.85
1250.02
1242.25
1234.57
1226.95
1219.39
1211.91
1204.48
1197.11
1189.79
1182.53
1175.32
1168.16
1161.05
1153.98
1146.95
1139.96
1133.01
1126.09
1119.21
1112.36
1105.55
1098.76
1092
1085.26
1078.54
1071.85
1065.18
1058.52
1051.88
1045.26
1038.65
1032.05
2530.42
2236.11
2108.15
2021.96
1956.57
1903.95
1859.88
1821.89
1788.44
1758.49
1731.34
1706.46
1683.45
1662.04
1641.98
1623.08
1605.21
1588.22
1572.03
1556.55
1541.7
1527.42
1513.66
1500.37
1487.51
1475.05
1462.95
1451.19
1439.74
1428.57
1417.68
1407.04
1396.63
1386.44
1376.46
1366.68
1357.07
1347.64
1338.37
1329.26
1320.29
1311.46
1302.76
1294.19
1285.73
1277.38
1269.15
1261.01
1252.98
1245.03
1237.18
1229.41
1221.72
1214.11
1206.57
1199.1
1191.7
1184.37
1177.09
1169.88
1162.72
1155.62
1148.57
1141.57
1134.61
1127.7
1120.83
1114.01
1107.22
1100.47
1093.75
1087.07
1080.42
1073.8
1067.2
1060.63
1054.09
1047.57
1041.07
1034.59
1028.12
1021.68
1015.24
1008.82
1002.41
2457.72
2171.86
2047.58
1963.87
1900.36
1849.25
1806.44
1769.55
1737.05
1707.97
1681.6
1657.43
1635.09
1614.29
1594.8
1576.45
1559.08
1542.59
1526.87
1511.83
1497.4
1483.54
1470.17
1457.26
1444.77
1432.67
1420.92
1409.49
1398.37
1387.53
1376.95
1366.61
1356.5
1346.61
1336.92
1327.41
1318.08
1308.92
1299.92
1291.07
1282.36
1273.78
1265.33
1257
1248.79
1240.69
1232.69
1224.79
1216.98
1209.27
1201.64
1194.09
1186.62
1179.23
1171.91
1164.66
1157.47
1150.35
1143.28
1136.28
1129.33
1122.43
1115.58
1108.78
1102.02
1095.31
1088.64
1082.01
1075.42
1068.86
1062.34
1055.85
1049.39
1042.96
1036.55
1030.18
1023.82
1017.49
1011.17
1004.88
998.597
992.334
986.084
979.846
973.621
2387.1
2109.46
1988.75
1907.45
1845.76
1796.13
1754.55
1718.71
1687.15
1658.9
1633.28
1609.81
1588.11
1567.9
1548.98
1531.15
1514.29
1498.27
1483
1468.39
1454.38
1440.91
1427.93
1415.39
1403.26
1391.51
1380.09
1369
1358.19
1347.66
1337.39
1327.35
1317.53
1307.92
1298.51
1289.28
1280.22
1271.32
1262.58
1253.98
1245.52
1237.19
1228.98
1220.89
1212.92
1205.05
1197.28
1189.6
1182.02
1174.53
1167.12
1159.79
1152.54
1145.36
1138.25
1131.2
1124.22
1117.3
1110.44
1103.64
1096.89
1090.19
1083.54
1076.93
1070.37
1063.85
1057.38
1050.94
1044.53
1038.17
1031.83
1025.53
1019.25
1013.01
1006.79
1000.59
994.416
988.264
982.132
976.017
969.919
963.835
957.765
951.706
945.659
2318.52
2048.85
1931.61
1852.65
1792.74
1744.52
1704.14
1669.33
1638.67
1611.24
1586.35
1563.55
1542.48
1522.86
1504.47
1487.16
1470.78
1455.22
1440.39
1426.2
1412.6
1399.51
1386.91
1374.73
1362.95
1351.53
1340.44
1329.67
1319.17
1308.95
1298.97
1289.22
1279.68
1270.35
1261.2
1252.24
1243.44
1234.8
1226.3
1217.95
1209.74
1201.65
1193.68
1185.82
1178.07
1170.43
1162.88
1155.43
1148.07
1140.79
1133.59
1126.47
1119.43
1112.46
1105.55
1098.71
1091.93
1085.21
1078.55
1071.94
1065.38
1058.88
1052.42
1046
1039.63
1033.3
1027.01
1020.75
1014.54
1008.35
1002.2
996.075
989.981
983.914
977.872
971.854
965.858
959.882
953.926
947.987
942.064
936.155
930.258
924.373
918.5
2251.9
1989.99
1876.12
1799.42
1741.23
1694.41
1655.18
1621.37
1591.59
1564.94
1540.77
1518.63
1498.16
1479.1
1461.25
1444.44
1428.53
1413.41
1399.01
1385.23
1372.01
1359.31
1347.06
1335.23
1323.79
1312.7
1301.93
1291.46
1281.27
1271.34
1261.65
1252.18
1242.92
1233.85
1224.97
1216.26
1207.72
1199.32
1191.08
1182.96
1174.98
1167.13
1159.39
1151.76
1144.23
1136.81
1129.48
1122.24
1115.09
1108.02
1101.03
1094.12
1087.28
1080.5
1073.8
1067.15
1060.57
1054.04
1047.57
1041.15
1034.78
1028.46
1022.19
1015.96
1009.77
1003.62
997.512
991.437
985.398
979.391
973.415
967.468
961.549
955.657
949.788
943.943
938.119
932.315
926.53
920.761
915.008
909.268
903.541
897.825
892.121
2187.2
1932.81
1822.22
1747.73
1691.21
1645.73
1607.63
1574.79
1545.87
1519.98
1496.51
1475
1455.12
1436.61
1419.27
1402.94
1387.49
1372.81
1358.81
1345.43
1332.59
1320.25
1308.36
1296.87
1285.76
1274.99
1264.53
1254.36
1244.47
1234.82
1225.4
1216.21
1207.21
1198.41
1189.78
1181.32
1173.02
1164.87
1156.86
1148.98
1141.23
1133.6
1126.08
1118.67
1111.36
1104.15
1097.03
1090
1083.06
1076.19
1069.41
1062.69
1056.05
1049.47
1042.95
1036.5
1030.11
1023.77
1017.48
1011.25
1005.06
998.925
992.831
986.78
980.769
974.798
968.863
962.963
957.097
951.263
945.459
939.683
933.934
928.211
922.511
916.834
911.177
905.54
899.92
894.317
888.729
883.154
877.591
872.04
866.499
2124.36
1877.28
1769.86
1697.51
1642.62
1598.45
1561.44
1529.54
1501.46
1476.31
1453.52
1432.62
1413.31
1395.34
1378.49
1362.63
1347.62
1333.37
1319.77
1306.78
1294.31
1282.32
1270.77
1259.61
1248.82
1238.36
1228.2
1218.33
1208.71
1199.34
1190.2
1181.27
1172.53
1163.98
1155.6
1147.39
1139.32
1131.41
1123.63
1115.98
1108.45
1101.04
1093.73
1086.54
1079.44
1072.43
1065.52
1058.69
1051.95
1045.28
1038.69
1032.17
1025.71
1019.32
1013
1006.73
1000.52
994.363
988.258
982.204
976.196
970.235
964.316
958.439
952.601
946.801
941.037
935.307
929.61
923.943
918.306
912.696
907.112
901.553
896.017
890.503
885.008
879.533
874.075
868.632
863.204
857.789
852.386
846.994
2063.32
1823.34
1719.01
1648.74
1595.43
1552.52
1516.58
1485.6
1458.32
1433.9
1411.76
1391.47
1372.71
1355.25
1338.89
1323.48
1308.91
1295.06
1281.86
1269.23
1257.12
1245.48
1234.26
1223.43
1212.94
1202.78
1192.92
1183.33
1173.99
1164.89
1156.01
1147.33
1138.85
1130.54
1122.4
1114.42
1106.6
1098.91
1091.35
1083.92
1076.61
1069.41
1062.32
1055.33
1048.43
1041.63
1034.92
1028.28
1021.73
1015.26
1008.85
1002.52
996.251
990.046
983.901
977.814
971.782
965.803
959.874
953.994
948.159
942.369
936.62
930.912
925.242
919.609
914.01
908.445
902.911
897.408
891.932
886.483
881.06
875.661
870.284
864.928
859.591
854.273
848.971
843.685
838.413
833.153
827.904
822.667
2004.04
1770.96
1669.62
1601.37
1549.59
1507.92
1473.01
1442.92
1416.42
1392.71
1371.2
1351.49
1333.27
1316.31
1300.42
1285.46
1271.3
1257.85
1245.03
1232.77
1221.01
1209.7
1198.8
1188.28
1178.1
1168.23
1158.65
1149.33
1140.26
1131.42
1122.8
1114.37
1106.13
1098.06
1090.16
1082.41
1074.81
1067.34
1060
1052.78
1045.68
1038.69
1031.8
1025.01
1018.32
1011.71
1005.19
998.748
992.385
986.096
979.876
973.724
967.636
961.609
955.641
949.729
943.871
938.064
932.305
926.594
920.927
915.303
909.72
904.176
898.669
893.198
887.76
882.354
876.98
871.634
866.316
861.024
855.756
850.512
845.289
840.087
834.904
829.738
824.588
819.454
814.333
809.224
804.125
799.038
1946.46
1720.07
1621.65
1555.37
1505.07
1464.6
1430.69
1401.47
1375.73
1352.69
1331.81
1312.66
1294.97
1278.5
1263.06
1248.53
1234.78
1221.72
1209.26
1197.35
1185.93
1174.95
1164.36
1154.14
1144.25
1134.66
1125.36
1116.31
1107.51
1098.92
1090.54
1082.36
1074.35
1066.52
1058.84
1051.32
1043.93
1036.68
1029.55
1022.54
1015.64
1008.85
1002.16
995.569
989.066
982.65
976.316
970.061
963.88
957.772
951.731
945.756
939.843
933.99
928.193
922.451
916.761
911.121
905.528
899.981
894.477
889.015
883.592
878.207
872.859
867.544
862.263
857.013
851.793
846.6
841.435
836.295
831.179
826.085
821.012
815.959
810.925
805.907
800.905
795.918
790.943
785.981
781.029
776.087
1890.53
1670.65
1575.06
1510.68
1461.83
1422.52
1389.59
1361.2
1336.21
1313.83
1293.54
1274.95
1257.77
1241.77
1226.78
1212.66
1199.3
1186.62
1174.52
1162.95
1151.86
1141.19
1130.91
1120.98
1111.38
1102.07
1093.03
1084.24
1075.69
1067.35
1059.21
1051.27
1043.49
1035.88
1028.43
1021.12
1013.94
1006.9
999.977
993.169
986.47
979.875
973.377
966.972
960.656
954.424
948.273
942.197
936.195
930.262
924.395
918.591
912.849
907.163
901.534
895.957
890.43
884.952
879.52
874.132
868.786
863.481
858.214
852.984
847.789
842.628
837.498
832.399
827.328
822.285
817.268
812.276
807.306
802.359
797.432
792.524
787.633
782.76
777.902
773.057
768.225
763.405
758.595
753.795
1836.21
1622.65
1529.8
1467.27
1419.83
1381.65
1349.67
1322.1
1297.82
1276.09
1256.38
1238.32
1221.63
1206.09
1191.53
1177.82
1164.85
1152.53
1140.78
1129.54
1118.77
1108.4
1098.42
1088.78
1079.45
1070.41
1061.63
1053.09
1044.79
1036.69
1028.79
1021.07
1013.51
1006.12
998.884
991.784
984.817
977.975
971.251
964.639
958.133
951.727
945.417
939.196
933.062
927.009
921.034
915.134
909.304
903.541
897.843
892.207
886.629
881.107
875.639
870.223
864.855
859.534
854.258
849.025
843.833
838.68
833.565
828.485
823.44
818.426
813.444
808.491
803.566
798.668
793.795
788.946
784.119
779.314
774.528
769.761
765.011
760.277
755.558
750.852
746.159
741.477
736.804
732.142
1783.46
1576.03
1485.85
1425.12
1379.04
1341.95
1310.89
1284.11
1260.53
1239.42
1220.28
1202.75
1186.53
1171.44
1157.3
1143.98
1131.38
1119.41
1108
1097.09
1086.62
1076.56
1066.86
1057.5
1048.44
1039.65
1031.13
1022.84
1014.77
1006.91
999.231
991.732
984.399
977.221
970.189
963.293
956.527
949.882
943.351
936.93
930.61
924.389
918.259
912.218
906.26
900.381
894.578
888.847
883.185
877.588
872.054
866.58
861.162
855.799
850.488
845.227
840.014
834.846
829.722
824.639
819.597
814.592
809.623
804.689
799.789
794.92
790.08
785.27
780.486
775.729
770.996
766.286
761.597
756.93
752.281
747.651
743.037
738.439
733.855
729.285
724.726
720.178
715.639
711.111
1732.21
1530.74
1443.16
1384.17
1339.41
1303.4
1273.23
1247.22
1224.32
1203.82
1185.23
1168.19
1152.44
1137.78
1124.05
1111.12
1098.88
1087.25
1076.17
1065.57
1055.41
1045.63
1036.21
1027.12
1018.32
1009.79
1001.51
993.456
985.618
977.979
970.524
963.242
956.12