/*--------------------------------*- C++ -*----------------------------------*\
  =========                 |
  \\      /  F ield         | OpenFOAM: The Open Source CFD Toolbox
   \\    /   O peration     | Website:  https://openfoam.org
    \\  /    A nd           | Version:  10
     \\/     M anipulation  |
\*---------------------------------------------------------------------------*/
FoamFile
{
    format      ascii;
    class       volScalarField;
    location    "16000";
    object      omega;
}
// * * * * * * * * * * * * * * * * * * * * * * * * * * * * * * * * * * * * * //

dimensions      [0 0 -1 0 0 0 0];

internalField   nonuniform List<scalar> 
17808
(
13896.1
5597.35
3193.16
2194.11
1657.07
1324.69
1099.64
937.497
815.264
719.882
643.41
580.746
528.469
484.198
446.228
413.305
384.487
359.051
336.437
316.2
297.985
281.504
266.521
252.842
240.303
228.769
218.124
208.27
199.122
190.608
182.664
175.235
168.275
161.739
155.592
149.799
144.332
139.165
134.273
129.637
125.237
121.055
117.077
113.289
109.678
106.231
102.939
99.792
96.7808
93.8973
91.1339
88.4839
85.9407
83.4984
81.1515
78.895
76.7242
74.6345
72.622
70.6828
68.8134
67.0103
65.2706
63.5912
61.9694
60.4026
58.8884
57.4246
56.009
54.6396
53.3145
52.0319
50.7901
49.5876
48.4227
47.2941
46.2004
45.1402
44.1125
43.1159
42.1495
41.2121
40.3028
39.4206
38.5647
37.7341
36.9282
36.146
35.3869
34.6501
33.9351
33.2411
13894.8
5596.79
3194.38
2195.54
1658.36
1325.77
1100.52
938.214
815.85
720.365
643.81
581.08
528.75
484.436
446.431
413.479
384.636
359.181
336.55
316.299
298.072
281.58
266.588
252.901
240.356
228.816
218.166
208.307
199.156
190.638
182.691
175.26
168.296
161.759
155.609
149.815
144.347
139.178
134.285
129.648
125.246
121.064
117.086
113.297
109.684
106.237
102.945
99.7972
96.7856
93.9017
91.138
88.4876
85.9441
83.5016
81.1545
78.8978
76.7267
74.6369
72.6242
70.6848
68.8153
67.0121
65.2722
63.5927
61.9708
60.4039
58.8897
57.4258
56.0101
54.6407
53.3155
52.0329
50.7911
49.5885
48.4236
47.295
46.2012
45.141
44.1133
43.1167
42.1502
41.2128
40.3035
39.4213
38.5654
37.7348
36.9288
36.1466
35.3875
34.6508
33.9357
33.2418
13896.3
5595.72
3194.98
2196.22
1658.98
1326.32
1101
938.629
816.208
720.674
644.078
581.314
528.954
484.615
446.588
413.617
384.758
359.289
336.645
316.384
298.147
281.648
266.649
252.955
240.404
228.859
218.205
208.342
199.187
190.666
182.716
175.283
168.317
161.778
155.626
149.831
144.361
139.191
134.297
129.658
125.256
121.073
117.094
113.304
109.691
106.243
102.95
99.8023
96.7902
93.9059
91.1419
88.4912
85.9474
83.5046
81.1572
78.9003
76.729
74.639
72.6262
70.6867
68.817
67.0137
65.2737
63.5941
61.9721
60.4051
58.8908
57.4269
56.0111
54.6416
53.3164
52.0338
50.7919
49.5893
48.4244
47.2957
46.2019
45.1417
44.1139
43.1173
42.1508
41.2134
40.3041
39.4219
38.566
37.7354
36.9294
36.1472
35.3881
34.6513
33.9363
33.2423
13897.7
5594.7
3195.35
2196.66
1659.4
1326.71
1101.35
938.927
816.466
720.898
644.274
581.487
529.107
484.751
446.71
413.727
384.857
359.377
336.725
316.456
298.212
281.706
266.702
253.003
240.448
228.899
218.241
208.375
199.216
190.693
182.74
175.305
168.337
161.796
155.643
149.846
144.375
139.203
134.308
129.669
125.266
121.082
117.102
113.311
109.698
106.249
102.956
99.8074
96.7949
93.9102
91.1459
88.4948
85.9507
83.5077
81.1601
78.9029
76.7315
74.6413
72.6283
70.6886
68.8188
67.0153
65.2752
63.5955
61.9734
60.4064
58.892
57.428
56.0122
54.6426
53.3174
52.0347
50.7928
49.5901
48.4251
47.2964
46.2026
45.1424
44.1146
43.118
42.1515
41.214
40.3047
39.4225
38.5665
37.736
36.9299
36.1478
35.3886
34.6519
33.9368
33.2428
13899.1
5593.37
3195.29
2196.79
1659.63
1326.96
1101.58
939.14
816.654
721.065
644.422
581.619
529.226
484.858
446.807
413.814
384.936
359.45
336.792
316.516
298.268
281.757
266.748
253.045
240.486
228.934
218.273
208.404
199.243
190.717
182.763
175.325
168.356
161.813
155.659
149.86
144.388
139.215
134.32
129.679
125.275
121.09
117.11
113.318
109.704
106.256
102.962
99.8126
96.7997
93.9146
91.1499
88.4986
85.9542
83.5108
81.163
78.9056
76.734
74.6436
72.6304
70.6906
68.8206
67.0171
65.2768
63.597
61.9748
60.4077
58.8932
57.4291
56.0132
54.6436
53.3183
52.0356
50.7936
49.5909
48.4259
47.2972
46.2033
45.1431
44.1152
43.1186
42.1521
41.2147
40.3053
39.4231
38.5671
37.7365
36.9305
36.1483
35.3892
34.6524
33.9374
33.2434
13900.6
5592.01
3195.01
2196.75
1659.71
1327.09
1101.72
939.28
816.784
721.183
644.53
581.717
529.315
484.94
446.882
413.883
385
359.509
336.846
316.567
298.314
281.8
266.788
253.082
240.52
228.965
218.302
208.431
199.268
190.74
182.784
175.345
168.374
161.83
155.674
149.874
144.401
139.227
134.33
129.689
125.284
121.099
117.117
113.326
109.711
106.262
102.967
99.8178
96.8045
93.9191
91.154
88.5023
85.9577
83.514
81.166
78.9084
76.7365
74.646
72.6326
70.6927
68.8225
67.0188
65.2785
63.5985
61.9762
60.409
58.8944
57.4302
56.0143
54.6446
53.3193
52.0365
50.7945
49.5918
48.4267
47.2979
46.2041
45.1438
44.1159
43.1193
42.1527
41.2153
40.3059
39.4237
38.5677
37.7371
36.9311
36.1489
35.3897
34.653
33.9379
33.2439
13902.1
5590.82
3194.66
2196.64
1659.72
1327.16
1101.81
939.374
816.876
721.269
644.609
581.79
529.383
485.003
446.94
413.937
385.051
359.556
336.89
316.608
298.353
281.836
266.821
253.113
240.549
228.993
218.327
208.455
199.29
190.761
182.803
175.362
168.39
161.845
155.688
149.887
144.413
139.239
134.341
129.699
125.293
121.107
117.125
113.333
109.718
106.268
102.973
99.823
96.8093
93.9235
91.1581
88.5061
85.9612
83.5173
81.169
78.9112
76.7391
74.6484
72.6349
70.6947
68.8244
67.0206
65.2801
63.6001
61.9777
60.4104
58.8957
57.4314
56.0155
54.6457
53.3203
52.0374
50.7954
49.5926
48.4275
47.2987
46.2048
45.1445
44.1166
43.1199
42.1534
41.2159
40.3065
39.4243
38.5683
37.7377
36.9317
36.1494
35.3903
34.6535
33.9384
33.2445
13903.4
5589.81
3194.27
2196.49
1659.7
1327.19
1101.87
939.439
816.942
721.333
644.669
581.846
529.435
485.051
446.985
413.98
385.091
359.594
336.926
316.642
298.384
281.866
266.85
253.14
240.575
229.016
218.349
208.475
199.31
190.779
182.82
175.378
168.405
161.859
155.701
149.899
144.424
139.249
134.351
129.708
125.302
121.115
117.132
113.34
109.724
106.274
102.978
99.8281
96.814
93.9279
91.1622
88.5099
85.9647
83.5206
81.1721
78.914
76.7418
74.6508
72.6371
70.6969
68.8264
67.0224
65.2818
63.6017
61.9792
60.4118
58.897
57.4327
56.0166
54.6468
53.3213
52.0384
50.7963
49.5935
48.4284
47.2995
46.2056
45.1453
44.1173
43.1206
42.1541
41.2166
40.3072
39.4249
38.5689
37.7383
36.9322
36.15
35.3909
34.6541
33.939
33.245
13904.5
5588.93
3193.88
2196.33
1659.64
1327.18
1101.9
939.482
816.989
721.38
644.715
581.889
529.475
485.089
447.021
414.014
385.123
359.625
336.955
316.669
298.411
281.891
266.873
253.163
240.596
229.037
218.369
208.494
199.327
190.795
182.835
175.393
168.419
161.872
155.713
149.911
144.435
139.259
134.36
129.717
125.31
121.123
117.139
113.346
109.73
106.279
102.984
99.8331
96.8187
93.9322
91.1662
88.5137
85.9682
83.5238
81.1751
78.9169
76.7444
74.6533
72.6394
70.699
68.8284
67.0243
65.2836
63.6033
61.9807
60.4132
58.8984
57.4339
56.0178
54.6479
53.3224
52.0394
50.7973
49.5944
48.4292
47.3004
46.2064
45.146
44.1181
43.1213
42.1547
41.2172
40.3078
39.4255
38.5695
37.7389
36.9328
36.1506
35.3914
34.6547
33.9396
33.2456
13905.6
5588.17
3193.48
2196.16
1659.56
1327.16
1101.9
939.506
817.021
721.414
644.749
581.922
529.507
485.119
447.05
414.041
385.149
359.649
336.979
316.692
298.433
281.912
266.893
253.182
240.614
229.054
218.385
208.51
199.342
190.809
182.849
175.406
168.431
161.883
155.724
149.921
144.444
139.268
134.369
129.725
125.317
121.13
117.146
113.352
109.736
106.285
102.989
99.8379
96.8232
93.9365
91.1702
88.5174
85.9717
83.5271
81.1781
78.9197
76.747
74.6558
72.6417
70.7012
68.8304
67.0262
65.2854
63.6049
61.9822
60.4146
58.8997
57.4352
56.019
54.6491
53.3235
52.0405
50.7983
49.5953
48.4301
47.3012
46.2072
45.1468
44.1188
43.1221
42.1554
41.2179
40.3085
39.4262
38.5701
37.7395
36.9335
36.1512
35.392
34.6552
33.9402
33.2462
13906.5
5587.51
3193.1
2195.98
1659.47
1327.12
1101.9
939.516
817.04
721.437
644.773
581.946
529.531
485.142
447.072
414.063
385.17
359.669
336.998
316.711
298.451
281.929
266.91
253.198
240.63
229.069
218.4
208.523
199.355
190.822
182.861
175.417
168.442
161.894
155.734
149.93
144.453
139.277
134.377
129.732
125.325
121.137
117.152
113.358
109.742
106.29
102.994
99.8426
96.8276
93.9406
91.1741
88.521
85.9751
83.5303
81.1811
78.9225
76.7497
74.6582
72.6441
70.7033
68.8325
67.0281
65.2871
63.6066
61.9838
60.4161
58.9011
57.4366
56.0203
54.6503
53.3246
52.0415
50.7993
49.5963
48.431
47.3021
46.208
45.1476
44.1196
43.1228
42.1562
41.2186
40.3092
39.4269
38.5708
37.7401
36.9341
36.1518
35.3926
34.6558
33.9408
33.2467
13907.2
5586.95
3192.74
2195.8
1659.38
1327.08
1101.88
939.515
817.049
721.452
644.791
581.964
529.549
485.16
447.09
414.08
385.186
359.685
337.014
316.726
298.466
281.944
266.924
253.212
240.643
229.082
218.412
208.535
199.367
190.833
182.872
175.427
168.452
161.903
155.743
149.939
144.461
139.284
134.384
129.739
125.331
121.143
117.158
113.364
109.747
106.295
102.999
99.8471
96.8318
93.9446
91.1778
88.5246
85.9784
83.5334
81.1841
78.9253
76.7523
74.6607
72.6464
70.7055
68.8345
67.03
65.289
63.6083
61.9854
60.4176
58.9026
57.4379
56.0216
54.6515
53.3258
52.0426
50.8003
49.5973
48.432
47.303
46.2089
45.1484
44.1204
43.1236
42.1569
41.2193
40.3099
39.4275
38.5715
37.7408
36.9347
36.1525
35.3933
34.6565
33.9414
33.2473
13907.9
5586.46
3192.4
2195.62
1659.28
1327.02
1101.85
939.506
817.051
721.46
644.802
581.977
529.562
485.174
447.103
414.093
385.2
359.698
337.027
316.739
298.478
281.956
266.936
253.223
240.654
229.093
218.423
208.546
199.377
190.843
182.881
175.436
168.461
161.911
155.751
149.947
144.469
139.291
134.391
129.746
125.337
121.149
117.164
113.369
109.752
106.3
103.003
99.8514
96.8359
93.9484
91.1815
88.528
85.9817
83.5365
81.187
78.928
76.7549
74.6631
72.6487
70.7077
68.8366
67.032
65.2908
63.61
61.987
60.4192
58.904
57.4393
56.0229
54.6527
53.3269
52.0437
50.8014
49.5983
48.433
47.3039
46.2098
45.1493
44.1212
43.1244
42.1577
41.2201
40.3106
39.4283
38.5722
37.7415
36.9354
36.1531
35.3939
34.6571
33.942
33.248
13908.4
5586.04
3192.1
2195.46
1659.18
1326.96
1101.82
939.491
817.047
721.462
644.808
581.986
529.572
485.184
447.114
414.104
385.21
359.709
337.037
316.749
298.488
281.966
266.946
253.233
240.664
229.102
218.432
208.555
199.385
190.851
182.889
175.444
168.468
161.919
155.758
149.954
144.476
139.298
134.397
129.752
125.343
121.154
117.169
113.374
109.757
106.305
103.007
99.8555
96.8398
93.9521
91.185
88.5313
85.9848
83.5395
81.1898
78.9307
76.7574
74.6655
72.651
70.7098
68.8386
67.0339
65.2926
63.6118
61.9887
60.4207
58.9055
57.4407
56.0242
54.654
53.3281
52.0449
50.8025
49.5993
48.4339
47.3048
46.2107
45.1502
44.122
43.1252
42.1585
41.2209
40.3113
39.429
38.5729
37.7422
36.9361
36.1538
35.3946
34.6578
33.9427
33.2486
13908.9
5585.68
3191.81
2195.29
1659.08
1326.9
1101.78
939.47
817.037
721.46
644.81
581.99
529.578
485.191
447.121
414.112
385.218
359.717
337.045
316.757
298.496
281.974
266.954
253.241
240.672
229.11
218.44
208.562
199.393
190.859
182.897
175.452
168.475
161.925
155.765
149.96
144.482
139.304
134.402
129.757
125.348
121.159
117.174
113.379
109.761
106.309
103.012
99.8594
96.8435
93.9557
91.1883
88.5346
85.9879
83.5424
81.1926
78.9334
76.7599
74.6679
72.6532
70.712
68.8406
67.0358
65.2944
63.6135
61.9903
60.4223
58.907
57.4421
56.0255
54.6552
53.3293
52.046
50.8036
49.6004
48.435
47.3058
46.2116
45.1511
44.1229
43.126
42.1593
41.2217
40.3121
39.4298
38.5736
37.7429
36.9368
36.1546
35.3954
34.6585
33.9434
33.2493
13909.3
5585.36
3191.56
2195.14
1658.98
1326.84
1101.74
939.446
817.023
721.453
644.808
581.992
529.581
485.196
447.126
414.117
385.224
359.723
337.052
316.764
298.503
281.981
266.961
253.248
240.679
229.117
218.447
208.569
199.399
190.865
182.903
175.458
168.481
161.931
155.77
149.966
144.487
139.309
134.408
129.762
125.353
121.164
117.179
113.383
109.765
106.313
103.015
99.8631
96.847
93.959
91.1916
88.5376
85.9908
83.5452
81.1953
78.9359
76.7624
74.6702
72.6554
70.7141
68.8426
67.0377
65.2962
63.6152
61.992
60.4238
58.9085
57.4435
56.0269
54.6566
53.3306
52.0472
50.8047
49.6015
48.436
47.3068
46.2126
45.152
44.1238
43.1269
42.1601
41.2225
40.3129
39.4306
38.5744
37.7437
36.9376
36.1554
35.3962
34.6594
33.9442
33.2501
13909.7
5585.08
3191.32
2195
1658.89
1326.78
1101.7
939.419
817.007
721.444
644.803
581.99
529.582
485.198
447.13
414.121
385.229
359.728
337.057
316.769
298.508
281.986
266.967
253.254
240.685
229.123
218.452
208.575
199.405
190.871
182.909
175.463
168.487
161.937
155.776
149.971
144.492
139.314
134.412
129.767
125.358
121.168
117.183
113.387
109.769
106.317
103.019
99.8666
96.8504
93.9623
91.1947
88.5406
85.9937
83.548
81.1979
78.9384
76.7648
74.6725
72.6576
70.7162
68.8446
67.0396
65.298
63.617
61.9936
60.4254
58.91
57.445
56.0283
54.6579
53.3319
52.0484
50.8059
49.6026
48.4371
47.3079
46.2136
45.153
44.1248
43.1278
42.161
41.2233
40.3138
39.4314
38.5753
37.7446
36.9385
36.1563
13910
5584.83
3191.11
2194.86
1658.8
1326.72
1101.66
939.391
816.988
721.432
644.796
581.986
529.581
485.198
447.131
414.124
385.232
359.732
337.06
316.773
298.513
281.991
266.971
253.258
240.69
229.128
218.457
208.58
199.41
190.876
182.914
175.468
168.492
161.942
155.78
149.975
144.497
139.318
134.417
129.771
125.362
121.172
117.187
113.391
109.773
106.32
103.022
99.8699
96.8536
93.9653
91.1976
88.5435
85.9964
83.5506
81.2004
78.9408
76.7671
74.6748
72.6597
70.7182
68.8466
67.0415
65.2998
63.6187
61.9953
60.427
58.9115
57.4464
56.0297
54.6592
53.3331
52.0497
50.8071
49.6037
48.4382
47.3089
46.2146
45.1539
44.1257
43.1287
42.1619
41.2242
40.3147
39.4323
38.5762
37.7455
36.9394
36.1572
13910.2
5584.61
3190.92
2194.74
1658.72
1326.66
1101.62
939.361
816.967
721.418
644.787
581.981
529.577
485.197
447.131
414.125
385.233
359.734
337.063
316.776
298.516
281.995
266.975
253.262
240.694
229.132
218.462
208.584
199.415
190.88
182.918
175.473
168.496
161.946
155.785
149.979
144.501
139.322
134.421
129.775
125.365
121.176
117.19
113.395
109.776
106.323
103.026
99.873
96.8566
93.9683
91.2005
88.5462
85.9991
83.5531
81.2029
78.9432
76.7694
74.6769
72.6618
70.7202
68.8485
67.0433
65.3016
63.6204
61.9969
60.4286
58.913
57.4479
56.0311
54.6606
53.3345
52.0509
50.8083
49.6049
48.4393
47.31
46.2157
45.155
44.1267
43.1297
42.1629
41.2252
40.3156
39.4332
38.5771
37.7465
36.9404
36.1582
13910.4
5584.42
3190.75
2194.62
1658.64
1326.6
1101.58
939.332
816.946
721.402
644.776
581.973
529.573
485.194
447.13
414.124
385.234
359.735
337.065
316.778
298.519
281.997
266.978
253.266
240.697
229.136
218.465
208.588
199.418
190.884
182.922
175.476
168.5
161.95
155.788
149.983
144.505
139.326
134.424
129.778
125.369
121.179
117.194
113.398
109.779
106.327
103.029
99.8759
96.8595
93.9711
91.2032
88.5488
86.0016
83.5556
81.2053
78.9455
76.7716
74.6791
72.6639
70.7222
68.8504
67.0452
65.3034
63.6221
61.9985
60.4302
58.9145
57.4494
56.0325
54.6619
53.3358
52.0522
50.8095
49.6061
48.4405
47.3111
46.2167
45.156
44.1277
43.1307
42.1639
41.2262
40.3166
39.4343
38.5783
13910.6
5584.24
3190.59
2194.51
1658.57
1326.55
1101.54
939.302
816.923
721.386
644.764
581.964
529.567
485.19
447.127
414.123
385.233
359.735
337.066
316.78
298.52
281.999
266.981
253.268
240.7
229.138
218.468
208.591
199.422
190.887
182.925
175.48
168.503
161.953
155.792
149.987
144.508
139.329
134.428
129.782
125.372
121.182
117.197
113.401
109.783
106.33
103.032
99.8788
96.8622
93.9737
91.2058
88.5513
86.0041
83.558
81.2076
78.9477
76.7737
74.6812
72.6659
70.7242
68.8523
67.047
65.3052
63.6238
62.0002
60.4318
58.9161
57.4508
56.0339
54.6633
53.3371
52.0535
50.8108
49.6073
48.4416
47.3123
46.2179
45.1571
44.1288
43.1318
42.1649
41.2272
40.3177
39.4353
38.5794
13910.8
5584.08
3190.45
2194.41
1658.5
1326.5
1101.5
939.273
816.901
721.368
644.751
581.955
529.559
485.185
447.123
414.121
385.232
359.735
337.066
316.78
298.521
282.001
266.982
253.27
240.702
229.141
218.471
208.594
199.425
190.89
182.928
175.483
168.506
161.956
155.795
149.99
144.511
139.333
134.431
129.785
125.375
121.185
117.2
113.404
109.785
106.332
103.034
99.8814
96.8648
93.9763
91.2083
88.5538
86.0064
83.5603
81.2098
78.9499
76.7759
74.6832
72.6679
70.7261
68.8542
67.0488
65.3069
63.6255
62.0018
60.4333
58.9176
57.4523
56.0354
54.6647
53.3385
52.0548
50.8121
49.6086
48.4429
47.3135
46.219
45.1582
44.1299
43.1329
42.166
41.2283
40.3188
39.4364
38.5804
13911
5583.94
3190.32
2194.31
1658.43
1326.45
1101.46
939.245
816.879
721.351
644.737
581.944
529.551
485.179
447.119
414.117
385.23
359.734
337.065
316.78
298.522
282.002
266.984
253.272
240.704
229.143
218.473
208.596
199.427
190.893
182.931
175.486
168.509
161.959
155.798
149.993
144.514
139.336
134.434
129.788
125.378
121.188
117.202
113.407
109.788
106.335
103.037
99.884
96.8674
93.9788
91.2107
88.5561
86.0087
83.5625
81.212
78.952
76.7779
74.6852
72.6699
70.728
68.856
67.0506
65.3086
63.6272
62.0035
60.4349
58.9192
57.4538
56.0369
54.6662
53.3399
52.0562
50.8134
49.6098
48.4441
47.3147
46.2202
45.1594
44.1311
43.134
42.1672
41.2294
40.3199
39.4375
38.5815
13911.1
5583.8
3190.2
2194.23
1658.37
1326.41
1101.43
939.217
816.857
721.333
644.723
581.933
529.543
485.172
447.114
414.113
385.227
359.732
337.064
316.78
298.522
282.002
266.984
253.273
240.705
229.145
218.475
208.598
199.429
190.895
182.933
175.488
168.512
161.962
155.801
149.996
144.517
139.338
134.436
129.79
125.381
121.191
117.205
113.409
109.791
106.338
103.039
99.8865
96.8698
93.9811
91.213
88.5584
86.011
83.5647
81.2141
78.9541
76.78
74.6872
72.6718
70.7299
68.8578
67.0524
65.3104
63.6289
62.0051
60.4365
58.9207
57.4554
56.0383
54.6676
53.3413
52.0575
50.8147
49.6111
48.4454
47.3159
46.2214
45.1606
44.1323
43.1352
42.1683
41.2306
40.321
39.4387
38.5826
13911.2
5583.68
3190.09
2194.15
1658.31
1326.36
1101.4
939.191
816.835
721.316
644.709
581.922
529.533
485.164
447.108
414.109
385.224
359.729
337.062
316.779
298.521
282.002
266.985
253.274
240.706
229.146
218.477
208.6
199.431
190.897
182.936
175.491
168.514
161.964
155.803
149.998
144.519
139.341
134.439
129.793
125.383
121.193
117.208
113.412
109.793
106.34
103.042
99.8889
96.8721
93.9834
91.2153
88.5606
86.0131
83.5668
81.2162
78.9562
76.7819
74.6892
72.6737
70.7317
68.8597
67.0542
65.3121
63.6306
62.0068
60.4381
58.9223
57.4569
56.0398
54.6691
53.3427
52.0589
50.8161
49.6125
48.4467
47.3172
46.2227
45.1619
44.1335
43.1364
42.1695
41.2318
40.3222
39.4399
38.5838
13911.3
5583.56
3189.99
2194.07
1658.25
1326.32
1101.36
939.165
816.815
721.299
644.695
581.91
529.524
485.157
447.102
414.104
385.22
359.726
337.06
316.777
298.521
282.002
266.985
253.274
240.707
229.147
218.478
208.601
199.433
190.899
182.938
175.493
168.516
161.966
155.805
150
144.522
139.343
134.441
129.795
125.386
121.196
117.21
113.414
109.795
106.342
103.044
99.8912
96.8744
93.9857
91.2175
88.5628
86.0153
83.5689
81.2183
78.9582
76.7839
74.6911
72.6756
70.7336
68.8615
67.0559
65.3138
63.6322
62.0084
60.4397
58.9238
57.4584
56.0413
54.6705
53.3441
52.0603
50.8174
49.6138
48.448
47.3185
46.224
45.1632
44.1348
43.1377
42.1708
41.2331
40.3235
39.441
38.5849
13911.4
5583.46
3189.9
2194
1658.2
1326.28
1101.33
939.141
816.795
721.283
644.681
581.898
529.514
485.149
447.095
414.099
385.215
359.723
337.058
316.775
298.519
282.001
266.985
253.274
240.708
229.148
218.479
208.603
199.434
190.901
182.939
175.494
168.518
161.968
155.808
150.002
144.524
139.345
134.444
129.798
125.388
121.198
117.212
113.416
109.798
106.345
103.046
99.8934
96.8766
93.9878
91.2196
88.5649
86.0174
83.571
81.2203
78.9601
76.7859
74.693
72.6775
70.7354
68.8633
67.0577
65.3156
63.6339
62.0101
60.4414
58.9254
57.46
56.0429
54.672
53.3456
52.0618
50.8189
49.6152
48.4494
47.3199
46.2253
45.1645
44.1361
43.139
42.1721
41.2343
40.3247
39.4423
38.5861
13911.6
5583.36
3189.82
2193.93
1658.15
1326.25
1101.31
939.119
816.776
721.267
644.668
581.887
529.504
485.14
447.088
414.093
385.211
359.719
337.055
316.773
298.518
282
266.984
253.274
240.708
229.148
218.48
208.604
199.435
190.902
182.941
175.496
168.52
161.97
155.81
150.005
144.526
139.348
134.446
129.8
125.39
121.2
117.215
113.419
109.8
106.347
103.049
99.8956
96.8787
93.99
91.2217
88.567
86.0194
83.573
81.2223
78.9621
76.7878
74.6949
72.6793
70.7372
68.8651
67.0595
65.3173
63.6356
62.0117
60.443
58.927
57.4616
56.0444
54.6736
53.3471
52.0633
50.8203
49.6167
48.4508
47.3213
46.2267
45.1659
44.1374
43.1403
42.1734
41.2356
40.326
39.4435
38.5873
13911.7
5583.27
3189.73
2193.87
1658.11
1326.21
1101.28
939.097
816.758
721.251
644.655
581.875
529.495
485.132
447.081
414.087
385.206
359.715
337.052
316.771
298.516
281.999
266.983
253.274
240.708
229.149
218.48
208.604
199.436
190.903
182.942
175.498
168.522
161.972
155.811
150.006
144.528
139.35
134.448
129.802
125.392
121.203
117.217
113.421
109.802
106.349
103.051
99.8977
96.8809
93.9921
91.2238
88.5691
86.0214
83.575
81.2242
78.9641
76.7897
74.6968
72.6812
70.7391
68.8669
67.0612
65.319
63.6373
62.0134
60.4447
58.9287
57.4632
56.046
54.6751
53.3486
52.0648
50.8218
49.6181
48.4523
47.3227
46.2281
45.1673
44.1388
43.1417
42.1748
41.237
40.3273
39.4448
38.5886
13911.7
5583.18
3189.66
2193.81
1658.06
1326.18
1101.25
939.076
816.741
721.237
644.642
581.864
529.485
485.124
447.074
414.081
385.201
359.711
337.048
316.768
298.514
281.997
266.982
253.273
240.707
229.149
218.481
208.605
199.437
190.904
182.943
175.499
168.523
161.974
155.813
150.008
144.53
139.352
134.45
129.804
125.395
121.205
117.219
113.423
109.804
106.351
103.053
99.8998
96.883
93.9942
91.2259
88.5711
86.0235
83.577
81.2262
78.966
76.7916
74.6987
72.6831
70.7409
68.8687
67.063
65.3208
63.6391
62.0151
60.4463
58.9303
57.4648
56.0476
54.6767
53.3502
52.0663
50.8233
49.6196
48.4537
47.3242
46.2296
45.1687
44.1403
43.1431
42.1762
41.2384
40.3287
39.4461
38.5899
13911.8
5583.1
3189.59
2193.76
1658.02
1326.15
1101.23
939.057
816.725
721.223
644.63
581.854
529.476
485.115
447.067
414.075
385.195
359.706
337.044
316.765
298.511
281.995
266.981
253.272
240.707
229.148
218.481
208.606
199.438
190.905
182.945
175.5
168.525
161.975
155.815
150.01
144.532
139.353
134.452
129.806
125.397
121.207
117.221
113.425
109.806
106.353
103.055
99.9019
96.885
93.9962
91.2279
88.5731
86.0255
83.579
81.2282
78.968
76.7936
74.7006
72.6849
70.7428
68.8705
67.0648
65.3225
63.6408
62.0168
60.448
58.932
57.4664
56.0492
54.6783
53.3518
52.0679
50.8249
49.6212
48.4553
47.3257
46.2311
45.1702
44.1418
43.1446
42.1776
41.2398
40.3301
39.4475
38.5912
13911.9
5583.03
3189.52
2193.71
1657.98
1326.12
1101.21
939.038
816.709
721.209
644.618
581.844
529.467
485.107
447.06
414.069
385.19
359.702
337.041
316.762
298.509
281.993
266.979
253.271
240.706
229.148
218.481
208.606
199.439
190.906
182.946
175.501
168.526
161.977
155.816
150.012
144.533
139.355
134.454
129.808
125.398
121.209
117.223
113.427
109.808
106.355
103.057
99.9039
96.8871
93.9983
91.2299
88.5751
86.0275
83.581
81.2301
78.9699
76.7955
74.7025
72.6868
70.7446
68.8723
67.0666
65.3243
63.6426
62.0186
60.4498
58.9337
57.4681
56.0509
54.6799
53.3534
52.0695
50.8265
49.6228
48.4568
47.3273
46.2327
45.1717
44.1433
43.1461
42.1791
41.2413
40.3315
39.4489
38.5926
13912
5582.95
3189.46
2193.66
1657.95
1326.09
1101.18
939.021
816.694
721.197
644.607
581.834
529.458
485.1
447.053
414.062
385.185
359.697
337.037
316.758
298.506
281.991
266.977
253.27
240.705
229.148
218.481
208.606
199.439
190.907
182.946
175.503
168.527
161.978
155.818
150.013
144.535
139.357
134.456
129.81
125.4
121.211
117.225
113.429
109.81
106.357
103.059
99.906
96.8891
94.0003
91.2319
88.5772
86.0295
83.583
81.2321
78.9718
76.7974
74.7044
72.6887
70.7465
68.8742
67.0684
65.3261
63.6444
62.0203
60.4515
58.9354
57.4698
56.0526
54.6816
53.3551
52.0711
50.8281
49.6244
48.4585
47.3289
46.2342
45.1733
44.1448
43.1477
42.1806
41.2428
40.333
39.4504
38.594
13912.1
5582.89
3189.4
2193.61
1657.91
1326.06
1101.16
939.004
816.681
721.185
644.596
581.824
529.449
485.092
447.046
414.056
385.179
359.693
337.033
316.755
298.503
281.989
266.976
253.268
240.705
229.147
218.48
208.606
199.439
190.907
182.947
175.503
168.528
161.979
155.819
150.015
144.537
139.359
134.457
129.811
125.402
121.213
117.227
113.431
109.812
106.359
103.061
99.908
96.8911
94.0023
91.234
88.5792
86.0315
83.5849
81.2341
78.9738
76.7994
74.7063
72.6906
70.7484
68.8761
67.0703
65.328
63.6462
62.0221
60.4533
58.9372
57.4716
56.0543
54.6833
53.3568
52.0728
50.8298
49.6261
48.4601
47.3305
46.2359
45.1749
44.1464
43.1492
42.1822
41.2443
40.3345
39.4519
38.5955
13912.2
5582.83
3189.35
2193.57
1657.88
1326.04
1101.14
938.988
816.667
721.173
644.586
581.815
529.441
485.085
447.039
414.05
385.174
359.688
337.029
316.752
298.5
281.986
266.974
253.267
240.703
229.146
218.48
208.606
199.44
190.908
182.948
175.504
168.529
161.981
155.82
150.016
144.538
139.36
134.459
129.813
125.404
121.214
117.229
113.433
109.814
106.361
103.063
99.91
96.8932
94.0043
91.236
88.5812
86.0335
83.587
81.2361
78.9758
76.8013
74.7083
72.6925
70.7503
68.878
67.0722
65.3298
63.648
62.024
60.4551
58.939
57.4734
56.0561
54.6851
53.3585
52.0746
50.8315
49.6278
48.4618
47.3322
46.2375
45.1766
44.1481
43.1509
42.1838
41.2459
40.3361
39.4534
38.597
13912.3
5582.77
3189.3
2193.52
1657.84
1326.01
1101.12
938.973
816.655
721.163
644.577
581.807
529.434
485.078
447.033
414.045
385.169
359.683
337.025
316.748
298.497
281.984
266.972
253.265
240.702
229.146
218.48
208.606
199.44
190.908
182.948
175.505
168.53
161.982
155.822
150.018
144.54
139.362
134.461
129.815
125.406
121.216
117.231
113.435
109.816
106.363
103.065
99.912
96.8952
94.0064
91.238
88.5832
86.0355
83.589
81.2381
78.9778
76.8033
74.7102
72.6945
70.7522
68.8799
67.0741
65.3317
63.6499
62.0258
60.4569
58.9408
57.4752
56.0579
54.6869
53.3603
52.0763
50.8333
49.6295
48.4635
47.3339
46.2393
45.1783
44.1498
43.1525
42.1855
41.2476
40.3378
39.4552
13912.3
5582.71
3189.25
2193.48
1657.81
1325.99
1101.11
938.958
816.643
721.153
644.568
581.799
529.426
485.071
447.027
414.039
385.164
359.679
337.021
316.745
298.494
281.981
266.97
253.264
240.701
229.145
218.479
208.606
199.44
190.908
182.949
175.506
168.531
161.983
155.823
150.019
144.541
139.363
134.462
129.817
125.408
121.218
117.233
113.437
109.818
106.365
103.067
99.914
96.8972
94.0084
91.2401
88.5853
86.0375
83.591
81.2401
78.9798
76.8053
74.7122
72.6965
70.7542
68.8818
67.076
65.3337
63.6518
62.0277
60.4588
58.9427
57.477
56.0597
54.6887
53.3621
52.0781
50.8351
49.6313
48.4653
47.3357
46.241
45.18
44.1515
43.1543
42.1872
41.2493
40.3395
39.4568
13912.4
5582.67
3189.2
2193.44
1657.78
1325.97
1101.09
938.944
816.631
721.143
644.56
581.791
529.419
485.065
447.021
414.034
385.159
359.675
337.017
316.741
298.491
281.979
266.968
253.262
240.7
229.144
218.478
208.605
199.44
190.909
182.949
175.506
168.532
161.984
155.824
150.02
144.543
139.365
134.464
129.818
125.409
121.22
117.234
113.439
109.82
106.367
103.069
99.9161
96.8992
94.0104
91.2421
88.5873
86.0396
83.593
81.2422
78.9818
76.8073
74.7143
72.6985
70.7562
68.8838
67.078
65.3356
63.6538
62.0297
60.4607
58.9446
57.4789
56.0616
54.6906
53.364
52.08
50.8369
49.6331
48.4671
47.3375
46.2428
45.1818
44.1533
43.156
42.189
41.251
40.3412
39.4585
13912.5
5582.62
3189.16
2193.41
1657.75
1325.94
1101.07
938.931
816.62
721.134
644.552
581.784
529.413
485.059
447.016
414.029
385.155
359.67
337.013
316.738
298.488
281.976
266.965
253.26
240.698
229.143
218.478
208.605
199.439
190.909
182.95
175.507
168.533
161.985
155.825
150.021
144.544
139.366
134.465
129.82
125.411
121.222
117.236
113.441
109.822
106.369
103.071
99.9181
96.9013
94.0125
91.2442
88.5894
86.0417
83.5951
81.2442
78.9839
76.8094
74.7163
72.7005
70.7582
68.8858
67.08
65.3376
63.6557
62.0316
60.4627
58.9465
57.4809
56.0635
54.6925
53.3659
52.0819
50.8388
49.635
48.469
47.3393
46.2447
45.1837
44.1551
43.1578
42.1908
41.2528
40.3429
39.4602
13912.6
5582.58
3189.12
2193.37
1657.73
1325.92
1101.05
938.917
816.61
721.125
644.544
581.777
529.407
485.053
447.011
414.024
385.15
359.666
337.009
316.735
298.486
281.974
266.963
253.258
240.697
229.141
218.477
208.604
199.439
190.909
182.95
175.507
168.533
161.985
155.826
150.023
144.545
139.368
134.467
129.822
125.413
121.223
117.238
113.443
109.824
106.371
103.073
99.9201
96.9033
94.0145
91.2462
88.5914
86.0437
83.5972
81.2463
78.986
76.8114
74.7183
72.7026
70.7602
68.8878
67.082
65.3396
63.6577
62.0336
60.4647
58.9485
57.4828
56.0655
54.6944
53.3678
52.0838
50.8407
49.6369
48.4709
47.3412
46.2465
45.1855
44.157
43.1597
42.1926
41.2546
40.3446
39.4619
13912.7
5582.54
3189.08
2193.34
1657.7
1325.9
1101.04
938.905
816.599
721.116
644.537
581.771
529.401
485.048
447.006
414.019
385.146
359.662
337.006
316.731
298.483
281.971
266.961
253.257
240.695
229.14
218.476
208.604
199.439
190.909
182.95
175.508
168.534
161.986
155.827
150.024
144.546
139.369
134.468
129.823
125.415
121.225
117.24
113.444
109.826
106.373
103.075
99.9221
96.9053
94.0166
91.2483
88.5935
86.0458
83.5993
81.2484
78.988
76.8135
74.7204
72.7046
70.7623
68.8899
67.0841
65.3417
63.6598
62.0356
60.4667
58.9505
57.4848
56.0675
54.6964
53.3698
52.0858
50.8427
49.6389
48.4728
47.3432
46.2485
45.1874
44.1589
43.1616
42.1944
41.2564
40.3464
39.4636
13912.8
5582.51
3189.04
2193.31
1657.67
1325.88
1101.02
938.892
816.589
721.108
644.529
581.765
529.395
485.043
447.001
414.015
385.142
359.659
337.002
316.728
298.48
281.969
266.959
253.255
240.694
229.139
218.475
208.603
199.438
190.909
182.95
175.508
168.535
161.987
155.828
150.025
144.548
139.37
134.47
129.825
125.416
121.227
117.242
113.446
109.828
106.375
103.077
99.9241
96.9074
94.0186
91.2504
88.5956
86.0479
83.6014
81.2505
78.9901
76.8156
74.7225
72.7067
70.7644
68.892
67.0861
65.3437
63.6618
62.0377
60.4687
58.9526
57.4869
56.0695
54.6984
53.3718
52.0878
50.8447
49.6409
48.4748
47.3451
46.2504
45.1894
44.1608
43.1635
42.1963
41.2582
40.3483
39.4654
13912.8
5582.48
3189.01
2193.28
1657.65
1325.86
1101.01
938.88
816.579
721.1
644.523
581.759
529.39
485.038
446.997
414.011
385.138
359.655
336.999
316.725
298.477
281.966
266.957
253.253
240.692
229.138
218.474
208.602
199.438
190.908
182.95
175.508
168.535