/*--------------------------------*- C++ -*----------------------------------*\
  =========                 |
  \\      /  F ield         | OpenFOAM: The Open Source CFD Toolbox
   \\    /   O peration     | Website:  https://openfoam.org
    \\  /    A nd           | Version:  10
     \\/     M anipulation  |
\*---------------------------------------------------------------------------*/
FoamFile
{
    format      ascii;
    class       volScalarField;
    location    "16000";
    object      yPlus;
}
// * * * * * * * * * * * * * * * * * * * * * * * * * * * * * * * * * * * * * //

dimensions      [0 0 0 0 0 0 0];

internalField   uniform 0;

boundaryField
{
    right
    {
        type            cyclic;
    }
    left
    {
        type            cyclic;
    }
    outerWall
    {
        type            calculated;
        value           nonuniform List<scalar> 
200
(
26.019
26.0168
26.0197
26.0225
26.0252
26.0281
26.031
26.0337
26.036
26.0381
26.0399
26.0415
26.0429
26.0441
26.0451
26.0461
26.0469
26.0476
26.0483
26.0489
26.0495
26.05
26.0505
26.0509
26.0514
26.0518
26.0523
26.0527
26.0531
26.0535
26.0539
26.0543
26.0547
26.0551
26.0555
26.0559
26.0563
26.0567
26.0571
26.0575
26.0579
26.0584
26.0588
26.0592
26.0596
26.0601
26.0605
26.0609
26.0614
26.0618
26.0622
26.0627
26.0631
26.0635
26.064
26.0644
26.0648
26.0652
26.0656
26.066
26.0664
26.0668
26.0672
26.0675
26.0678
26.0681
26.0684
26.0686
26.0688
26.069
26.0692
26.0692
26.0694
26.0689
26.0668
26.065
26.0603
26.0599
26.0613
26.0621
26.0228
26.0286
26.0389
26.0484
26.0573
26.0658
26.0737
26.0808
26.0872
26.0928
26.0979
26.1022
26.106
26.1093
26.1121
26.1143
26.1161
26.1175
26.1185
26.1191
26.1194
26.1193
26.1188
26.118
26.1169
26.1154
26.1136
26.1115
26.109
26.1062
26.103
26.0994
26.0953
26.0907
26.0855
26.0796
26.0728
26.0645
26.0541
26.0374
26.0639
26.0674
26.0691
26.07
26.068
26.066
26.0653
26.0656
26.0668
26.0686
26.0703
26.0716
26.0726
26.0733
26.0739
26.0744
26.0747
26.0749
26.0751
26.0753
26.0754
26.0754
26.0755
26.0755
26.0755
26.0754
26.0754
26.0753
26.0753
26.0752
26.0751
26.075
26.0749
26.0747
26.0746
26.0744
26.0742
26.0741
26.0739
26.0737
26.0735
26.0733
26.0731
26.0728
26.0726
26.0723
26.0721
26.0718
26.0716
26.0713
26.071
26.0707
26.0704
26.07
26.0697
26.0693
26.069
26.0686
26.0682
26.0678
26.0674
26.0669
26.0665
26.066
26.0655
26.0649
26.0643
26.0637
26.063
26.0622
26.0613
26.0604
26.0593
26.058
26.0565
26.0546
26.0521
26.0487
26.0438
26.0327
)
;
    }
    stirrerWall
    {
        type            calculated;
        value           nonuniform List<scalar> 0();
    }
    top
    {
        type            empty;
    }
    bottom
    {
        type            empty;
    }
    procBoundary2to3
    {
        type            processor;
        value           uniform 0;
    }
}


// ************************************************************************* //
