/*--------------------------------*- C++ -*----------------------------------*\
  =========                 |
  \\      /  F ield         | OpenFOAM: The Open Source CFD Toolbox
   \\    /   O peration     | Website:  https://openfoam.org
    \\  /    A nd           | Version:  10
     \\/     M anipulation  |
\*---------------------------------------------------------------------------*/
FoamFile
{
    format      ascii;
    class       volScalarField;
    location    "75000";
    object      Co;
}
// * * * * * * * * * * * * * * * * * * * * * * * * * * * * * * * * * * * * * //

dimensions      [0 0 0 0 0 0 0];

internalField   nonuniform List<scalar> 
17969
(
81.2303
63.735
54.5653
51.7382
56.9255
99.4509
165.581
275.831
404.967
543.057
678.666
802.011
906.752
989.978
1051.84
1094.57
1121.25
1135.28
1139.75
1137.23
1129.76
1118.84
1105.57
1090.71
1074.76
1058.08
1040.88
1023.31
1005.46
987.394
969.166
950.805
932.337
913.782
895.155
876.471
857.741
838.975
820.181
801.366
782.539
763.706
744.873
726.046
707.231
688.433
669.658
650.911
632.196
613.518
594.88
576.288
557.745
539.255
520.82
502.445
484.132
465.884
447.704
429.593
411.555
393.591
375.703
357.894
340.165
322.518
304.954
287.476
270.085
252.784
235.574
218.459
201.441
184.524
172.354
164.985
164.375
173.071
181.352
189.26
196.839
204.114
211.103
217.819
224.274
230.478
236.441
242.172
247.681
252.982
258.079
262.969
267.656
272.15
276.458
280.589
284.554
288.36
292.015
295.529
83.0227
66.6066
62.7316
53.178
49.2984
53.7819
63.2006
106.162
165.987
263.654
379.082
505.427
634.008
756.221
865.25
956.932
1029.51
1083.42
1120.58
1143.56
1155.14
1157.91
1154.06
1145.38
1133.24
1118.68
1102.44
1085.06
1066.9
1048.21
1029.14
1009.81
990.291
970.631
950.869
931.035
911.148
891.228
871.287
851.337
831.387
811.446
791.521
771.617
751.741
731.897
712.091
692.327
672.608
652.939
633.323
613.764
594.265
574.829
555.459
536.157
516.926
497.768
478.686
459.68
440.754
421.908
403.144
384.464
365.868
347.357
328.934
310.599
292.352
274.196
256.133
238.163
220.29
202.518
189.942
182.605
178.983
187.86
196.307
204.366
212.083
219.481
226.578
233.387
239.922
246.192
252.205
257.97
263.492
268.781
273.848
278.699
283.334
287.76
291.986
296.023
299.88
303.568
307.095
310.471
83.25
63.8497
67.3628
63.8889
55.8956
49.6005
50.5828
56.6505
67.1842
105.756
157.416
241.318
342.493
455.976
575.459
693.801
804.384
902.084
983.827
1048.4
1096.31
1129.23
1149.36
1159.08
1160.58
1155.77
1146.24
1133.28
1117.84
1100.66
1082.27
1063.05
1043.27
1023.1
1002.66
982.041
961.296
940.47
919.592
898.689
877.777
856.872
835.984
815.124
794.298
773.513
752.774
732.087
711.454
690.881
670.37
649.924
629.547
609.241
589.008
568.852
548.773
528.775
508.858
489.024
469.275
449.611
430.034
410.544
391.142
371.829
352.604
333.469
314.423
295.468
276.603
257.83
239.15
220.567
207.627
200.357
194.313
202.408
211.007
219.203
227.04
234.542
241.726
248.605
255.192
261.498
267.533
273.302
278.81
284.063
289.065
293.827
298.354
302.656
306.744
310.629
314.324
317.839
321.183
324.365
83.3382
59.3064
65.8452
67.0694
64.9983
60.133
51.8283
47.8214
51.4822
58.1737
68.0361
101.241
145.65
214.157
301.319
401.256
509.82
621.429
730.193
830.763
919.053
992.663
1050.72
1093.77
1123.3
1141.19
1149.51
1150.12
1144.7
1134.69
1121.24
1105.27
1087.49
1068.44
1048.5
1027.95
1007
985.763
964.344
942.807
921.2
899.556
877.901
856.255
834.633
813.045
791.501
770.008
748.571
727.197
705.888
684.649
663.482
642.391
621.379
600.447
579.597
558.833
538.154
517.563
497.061
476.648
456.325
436.092
415.949
395.897
375.934
356.06
336.275
316.578
296.969
277.447
258.013
238.67
225.41
218.247
211.431
216.728
225.467
233.781
241.717
249.299
256.543
263.463
270.071
276.379
282.395
288.127
293.58
298.758
303.662
308.296
312.668
316.786
320.672
324.346
327.822
331.108
334.214
337.148
339.92
342.542
345.026
347.387
83.9183
55.9322
63.1184
66.2672
67.0729
66.2123
63.5135
58.3749
50.0769
46.8938
51.4069
58.2567
67.8561
93.7319
131.601
185.742
260.038
346.686
443.363
546.125
649.996
749.99
841.687
921.759
988.306
1040.71
1079.53
1106.1
1122.07
1129.2
1129.11
1123.25
1112.92
1099.18
1082.89
1064.76
1045.29
1024.9
1003.87
982.401
960.64
938.688
916.615
894.473
872.298
850.118
827.952
805.817
783.723
761.68
739.695
717.775
695.924
674.148
652.449
630.831
609.296
587.848
566.488
545.217
524.036
502.947
481.95
461.045
440.231
419.508
398.874
378.328
357.869
337.494
317.202
296.991
276.861
256.811
243.281
236.268
229.579
230.825
239.686
248.096
256.105
263.737
271.01
277.936
284.528
290.795
296.747
302.391
307.734
312.781
317.534
321.996
326.17
330.062
333.691
337.096
340.298
343.303
346.115
348.74
351.187
353.469
355.599
357.594
84.8465
53.5784
60.7017
64.3668
66.1893
66.9649
66.7613
65.3685
62.3486
57.0678
49.3015
46.7191
51.2607
57.8766
66.8394
85.5385
118.027
159.662
222.794
297.222
381.893
474.31
570.775
666.942
758.558
841.933
914.341
974.283
1021.35
1056.15
1079.89
1094
1099.97
1099.2
1092.97
1082.43
1068.56
1052.16
1033.89
1014.27
993.684
972.425
950.699
928.657
906.403
884.013
861.542
839.029
816.504
793.988
771.499
749.051
726.653
704.316
682.046
659.848
637.728
615.691
593.738
571.873
550.098
528.413
506.821
485.319
463.909
442.588
421.356
400.209
379.145
358.162
337.254
316.421
295.657
274.962
261.218
254.405
247.885
244.688
253.647
262.128
270.18
277.83
285.095
291.986
298.516
304.693
310.527
316.025
321.195
326.044
330.579
334.807
338.734
342.366
345.712
348.812
351.695
354.366
356.821
359.067
361.111
362.967
364.652
366.189
86.0536
51.9831
58.9227
62.6969
64.8224
66.1697
66.9173
67.0415
66.3973
64.7052
61.5362
56.3406
48.9083
46.5061
50.8778
57.1059
65.4093
77.6875
106.003
140.276
191.12
254.79
328.046
409.585
496.916
586.655
675.01
758.352
833.599
898.535
952.029
993.923
1024.84
1045.82
1058.13
1063
1061.61
1055.13
1044.54
1030.73
1014.44
996.276
976.735
956.192
934.93
913.159
891.03
868.655
846.115
823.468
800.76
778.025
755.288
732.57
709.887
687.252
664.675
642.166
619.73
597.372
575.098
552.91
530.809
508.797
486.873
465.036
443.285
421.615
400.024
378.507
357.06
335.676
314.352
293.081
279.186
272.628
266.325
260.577
267.318
275.842
283.904
291.533
298.745
305.552
311.965
317.993
323.644
328.927
333.854
338.436
342.688
346.625
350.259
353.596
356.641
359.414
361.935
364.202
366.215
367.981
369.513
370.829
371.955
372.918
373.75
87.4573
50.9084
57.6973
61.4147
63.5452
65.0184
66.0655
66.7321
66.9905
66.7516
65.8475
64.0131
60.873
55.9507
48.7628
46.2834
50.3353
56.0646
63.6699
73.27
95.0218
124.797
164.095
218.801
281.873
352.901
430.443
512.094
594.791
675.225
750.31
817.531
875.174
922.445
959.379
986.586
1004.98
1015.63
1019.52
1017.69
1011.1
1000.63
987.064
971.063
953.195
933.917
913.586
892.481
870.809
848.729
826.358
803.786
781.078
758.285
735.448
712.596
689.754
666.94
644.171
621.457
598.807
576.229
553.726
531.304
508.963
486.704
464.524
442.42
420.388
398.424
376.521
354.672
332.868
311.103
297.13
290.894
284.867
279.042
280.65
289.18
297.209
304.765
311.869
318.531
324.762
330.57
335.964
340.961
345.578
349.839
353.765
357.38
360.693
363.706
366.409
368.791
370.852
372.598
374.037
375.184
376.062
376.699
377.131
377.394
377.531
377.582
377.586
89.0064
50.2091
56.9215
60.5208
62.5145
63.8947
64.9308
65.7016
66.2229
66.4755
66.4085
65.9265
64.8727
63.0146
60.0284
55.5014
48.9292
46.367
49.7048
54.7467
61.4775
70.0194
84.655
110.911
141.524
188.381
242.863
304.429
372.409
445.282
520.758
596.082
668.442
735.301
794.657
845.251
886.59
918.849
942.607
958.645
967.779
970.843
968.69
962.124
951.892
938.679
923.082
905.616
886.703
866.685
845.835
824.362
802.429
780.163
757.659
734.992
712.218
689.383
666.52
643.658
620.816
598.01
575.253
552.555
529.923
507.358
484.86
462.428
440.06
417.75
395.491
373.273
351.087
328.922
314.96
309.124
303.448
297.915
294.673
302.034
309.961
317.378
324.308
330.759
336.736
342.251
347.325
351.982
356.257
360.177
363.764
367.032
369.98
372.581
374.802
376.618
378.042
379.09
379.782
380.145
380.214
380.029
379.637
379.087
378.429
377.712
376.981
376.275
90.6735
49.8102
56.5167
59.9633
61.7407
62.9052
63.7588
64.4017
64.8701
65.1715
65.2955
65.2141
64.8758
64.1927
63.0271
61.182
58.3818
54.271
48.6195
46.6401
49.5698
53.8214
59.6026
67.0583
76.2515
98.9597
125.986
163.258
210.821
264.275
323.487
387.598
455.071
523.803
591.39
655.518
714.189
765.864
809.689
845.453
873.392
894.002
907.885
915.659
917.997
915.572
909.052
899.076
886.24
871.081
854.062
835.576
815.948
795.44
774.264
752.584
730.533
708.212
685.701
663.062
640.342
617.579
594.797
572.028
549.291
526.589
503.926
481.307
458.736
436.209
413.717
391.252
368.8
346.351
332.501
327.159
321.923
316.767
311.68
314.263
321.997
329.184
335.847
341.997
347.651
352.834
357.573
361.895
365.828
369.382
372.56
375.354
377.742
379.695
381.182
382.205
382.786
382.952
382.732
382.163
381.292
380.171
378.86
377.418
375.904
374.373
372.875
371.452
370.138
368.961
92.4509
49.7024
56.4735
59.7518
61.2814
62.1783
62.7706
63.1726
63.4321
63.5689
63.5884
63.4859
63.2468
62.8442
62.2316
61.3316
60.0263
58.1496
55.4702
51.6831
48.4537
48.3425
50.6643
54.14
58.9881
65.382
73.4197
89.6225
113.756
143.206
185.24
232.044
283.592
339.521
398.874
460.188
521.627
581.172
636.985
687.557
731.822
769.274
799.872
823.857
841.588
853.459
859.922
861.495
858.732
852.197
842.439
829.976
815.277
798.758
780.776
761.634
741.582
720.826
699.532
677.831
655.829
633.608
611.215
588.748
566.218
543.642
521.045
498.448
475.868
453.306
430.752
408.197
385.632
363.043
349.432
344.69
340.001
335.334
330.667
327.903
333.168
340.026
346.31
352.064
357.324
362.119
366.469
370.382
373.853
376.865
379.406
381.461
383.021
384.076
384.62
384.672
384.258
383.407
382.155
380.551
378.654
376.531
374.251
371.886
369.502
367.16
364.91
362.796
360.849
359.093
357.544
356.211
355.099
354.207
94.3381
49.9054
56.8183
59.9297
61.2191
61.8525
62.1764
62.3138
62.3183
62.2152
62.0164
61.7258
61.3417
60.8565
60.2558
59.5149
58.5924
57.4206
55.8988
53.8864
51.3559
50.1089
50.5655
51.5873
53.3777
56.1614
60.1612
65.567
72.5147
83.1683
104.816
129.301
165.116
206.494
251.669
300.39
352.124
405.921
460.466
514.219
565.583
613.161
655.882
693.143
724.731
750.65
770.977
785.896
795.694
800.734
801.437
798.256
791.656
782.097
770.017
755.821
739.873
722.493
703.957
684.504
664.328
643.597
622.403
600.866
579.047
557.061
534.939
512.731
490.474
468.161
445.793
423.375
400.905
378.378
365.161
361.139
357.116
353.059
348.939
344.736
344.184
349.591
355.47
360.759
365.495
369.703
373.398
376.586
379.267
381.44
383.099
384.227
384.812
384.853
384.356
383.336
381.822
379.856
377.488
374.782
371.813
368.661
365.409
362.136
358.916
355.809
352.867
350.128
347.62
345.361
343.361
341.623
340.146
338.926
96.3342
50.4408
57.5837
60.5411
61.6205
62.0271
62.119
62.0233
61.7957
61.4629
61.0383
60.5292
59.9375
59.2623
58.499
57.774
57.2599
56.8607
56.4452
56.0297
55.6411
55.3185
55.1183
55.1184
55.4251
56.1832
57.5726
59.8004
63.084
67.6224
73.5691
81.02
98.7157
120.647
149.139
185.984
225.883
268.58
313.644
360.439
408.098
455.508
501.42
544.665
584.312
619.768
650.699
676.925
698.371
715.066
727.14
734.809
738.354
738.107
734.432
727.708
718.312
706.61
692.937
677.613
660.912
643.069
624.318
604.87
584.807
564.296
543.422
522.248
500.809
479.158
457.365
435.437
413.396
391.245
378.649
375.496
372.277
368.96
365.509
361.898
358.107
358.33
362.26
366.979
371.061
374.529
377.398
379.68
381.382
382.515
383.083
383.087
382.535
381.432
379.781
377.59
374.894
371.749
368.223
364.399
360.367
356.221
352.054
347.951
343.985
340.217
336.691
333.442
330.488
327.84
325.5
323.466
321.729
320.278
98.4375
51.3125
58.7638
61.5917
62.5069
62.7423
62.7926
62.9224
63.0782
63.1729
63.2216
63.2329
63.2107
63.1568
63.0712
62.9533
62.8022
62.6173
62.3987
62.149
61.8743
61.5881
61.3132
61.0825
60.9411
60.9517
61.1993
61.8015
62.91
64.7075
67.3946
71.1691
76.1972
82.5913
94.6291
114.21
135.963
168.764
204.11
241.674
281.085
321.84
363.259
404.512
444.699
482.95
518.578
551.069
580.038
605.209
626.413
643.578
656.724
665.952
671.429
673.38
672.07
667.789
660.841
651.534
640.158
626.998
612.325
596.369
579.3
561.308
542.553
523.244
503.481
483.321
462.846
442.089
421.083
399.825
388.192
386.133
383.925
381.525
378.899
376.017
372.857
369.4
368.753
369.337
372.648
375.263
377.203
378.484
379.122
379.131
378.526
377.318
375.526
373.167
370.258
366.826
362.915
358.593
353.943
349.063
344.056
339.029
334.077
329.288
324.731
320.459
316.51
312.906
309.659
306.768
304.229
302.031
300.158
298.595
100.647
52.522
60.3173
63.1897
64.4979
65.342
65.8982
66.3041
66.6214
66.881
67.1
67.2875
67.4486
67.5856
67.699
67.7881
67.8513
67.8865
67.8913
67.8637
67.8026
67.7086
67.5862
67.4456
67.3055
67.1935
67.1463
67.2136
67.4629
67.9866
68.9074
70.3778
72.5731
75.6758
79.8529
85.2332
91.9318
109.208
128.409
153.88
185.073
218.081
252.545
288.016
323.932
359.629
394.449
427.802
459.172
488.12
514.289
537.401
557.261
573.751
586.832
596.53
602.934
606.186
606.469
603.998
599.005
591.733
582.434
571.35
558.699
544.697
529.496
513.283
496.202
478.383
459.935
440.946
421.543
401.796
391.626
390.969
390.008
388.733
387.125
385.157
382.803
380.043
376.857
373.519
373.091
372.035
371.462
371.705
371.25
370.12
368.34
365.932
362.922
359.337
355.212
350.591
345.539
340.138
334.488
328.701
322.891
317.17
311.634
306.364
301.422
296.849
292.672
288.901
285.537
282.572
279.99
277.773
275.903
274.356
273.111
102.952
54.0743
62.3908
65.7137
67.3291
68.2631
68.9076
69.4052
69.8201
70.1851
70.5185
70.8298
71.1253
71.408
71.6792
71.9385
72.1845
72.4146
72.6259
72.8147
72.9773
73.11
73.2103
73.277
73.3123
73.3233
73.3247
73.3394
73.3979
73.54
73.8186
74.3053
75.0965
76.3145
78.1056
80.6298
84.0425
88.4739
94.017
105.37
122.136
140.872
168.314
197.27
227.359
258.136
289.12
319.826
349.784
378.552
405.727
430.955
453.934
474.418
492.226
507.232
519.374
528.642
535.082
538.782
539.866
538.487
534.822
529.053
521.379
512.02
501.148
488.927
475.511
461.059
445.709
429.561
412.705
395.2
386.872
387.784
388.299
388.39
388.037
387.216
385.902
384.072
381.706
378.788
375.305
371.253
367.761
365.165
361.904
358.007
353.501
348.419
344.204
339.535
334.349
328.708
322.697
316.417
309.986
303.527
297.162
291.002
285.138
279.639
274.555
269.913
265.725
261.992
258.701
255.835
253.373
251.29
249.56
248.158
247.06
105.335
56.0114
64.7952
68.3139
69.9459
70.8977
71.5654
72.0939
72.5492
72.965
73.3605
73.7468
74.1306
74.5158
74.9039
75.2951
75.688
76.0802
76.4683
76.8478
77.2139
77.5611
77.8838
78.1767
78.4354
78.6569
78.8412
78.9928
79.1225
79.2492
79.3993
79.6055
79.9102
80.3689
81.0562
82.0686
83.5233
85.5546
88.3031
91.896
96.4297
102.409
116.962
132.872
153.658
178.875
204.939
231.46
258.05
284.326
309.919
334.484
357.701
379.288
399
416.634
432.034
445.091
455.741
463.968
469.792
473.27
474.493
473.57
470.639
465.861
459.391
451.374
441.953
431.269
419.46
406.649
392.939
378.413
372.472
375.204
377.416
379.098
380.236
380.808
380.789
380.157
378.889
376.966
374.376
371.108
367.162
362.544
357.268
351.357
344.838
337.748
331.574
324.963
317.847
310.283
302.334
294.071
285.568
276.904
268.15
261.188
255.281
249.825
244.853
240.378
236.399
232.902
229.868
227.272
225.084
223.276
221.819
220.684
219.845
107.763
58.2172
67.2326
70.6609
72.227
73.1309
73.764
74.2704
74.7162
75.1358
75.5492
75.9682
76.4002
76.8496
77.3184
77.807
78.3141
78.8371
79.3722
79.9142
80.4574
80.9948
81.5191
82.0226
82.4979
82.9378
83.3363
83.6891
83.9945
84.2555
84.4805
84.6853
84.8933
85.1335
85.4415
85.8615
86.4525
87.2902
88.4684
90.0967
92.2939
95.1769
98.8452
103.372
112.61
126.32
141.013
162.32
184.724
207.434
230.117
252.456
274.149
294.915
314.5
332.675
349.246
364.052
376.968
387.906
396.816
403.682
408.518
411.37
412.308
411.432
408.85
404.677
399.031
392.031
383.799
374.453
364.097
352.826
349.402
353.953
357.906
361.261
364.005
366.119
367.576
368.351
368.415
367.746
366.324
364.134
361.168
357.429
352.925
347.674
341.702
335.043
327.735
319.821
311.344
302.346
292.861
282.921
272.555
261.792
250.659
241.054
232.192
223.437
214.818
209.112
205.537
202.457
199.843
197.664
195.887
194.48
193.41
192.65
192.169
191.944
110.226
60.5582
69.6118
72.7107
74.1303
74.9207
75.4609
75.8918
76.279
76.6571
77.0462
77.459
77.9031
78.3831
78.9014
79.4581
80.0518
80.6794
81.3363
82.0164
82.7127
83.4168
84.1197
84.8117
85.4831
86.1242
86.7258
87.28
87.7801
88.2216
88.6028
88.9263
89.2002
89.4386
89.6631
89.901
90.1847
90.5519
91.05
91.7397
92.6959
94.0068
95.771
98.0911
101.06
104.751
109.204
120.432
132.946
147.214
166.308
185.599
204.8
223.637
241.858
259.23
275.544
290.619
304.301
316.464
327.014
335.887
343.048
348.49
352.233
354.323
354.824
353.813
351.378
347.615
342.623
336.504
329.356
321.27
320.227
326.389
331.935
336.865
341.168
344.82
347.793
350.052
351.563
352.301
352.226
351.327
349.567
346.954
343.486
339.174
334.036
328.1
321.402
313.983
305.885
297.152
287.824
277.942
267.546
256.676
245.372
233.677
221.631
209.275
196.65
186.63
178.434
171.488
169.428
167.789
166.535
165.632
165.047
164.75
164.713
164.909
112.684
62.9134
72.1068
75.0101
76.257
76.9378
77.3377
77.5546
77.6282
77.6443
77.8316
78.2033
78.628
79.1101
79.6518
80.253
80.9114
81.6232
82.3826
83.1822
84.0131
84.8653
85.7277
86.5884
87.4356
88.2574
89.0423
89.78
90.4611
91.0784
91.6262
92.1016
92.5045
92.8389
93.1134
93.3427
93.5471
93.7536
93.9929
94.2991
94.7121
95.2814
96.0674
97.1411
98.5813
100.471
102.887
105.891
109.524
114.943
125.491
136.558
149.369
165.596
181.69
197.415
212.558
226.923
240.342
252.667
263.779
273.584
282.014
289.027
294.607
298.759
301.513
302.913
303.018
301.898
299.634
296.308
292.006
286.814
287.86
295.327
302.206
308.498
314.188
319.249
323.646
327.339
330.28
332.442
333.767
334.252
333.814
332.475
330.211
327.021
322.916
317.915
312.046
305.344
297.849
289.603
280.65
271.038
260.817
250.039
238.754
227.015
214.872
202.373
189.563
176.485
163.177
150.794
143.113
138.37
137.728
137.411
137.386
137.625
138.098
138.781
115.119
65.2542
74.6209
77.7455
79.2895
80.2874
81.005
81.5347
81.9143
82.1595
82.2746
82.2583
82.1065
81.813
81.3701
80.8196
80.9127
81.6946
82.5435
83.45
84.4032
85.3906
86.3988
87.4137
88.4209
89.4062
90.3561
91.2583
92.1019
92.8776
93.5781
94.1986
94.7363
95.1911
95.5659
95.8668
96.1041
96.2933
96.455
96.6148
96.8025
97.0506
97.3936
97.872
98.534
99.4346
100.634
102.195
104.176
106.627
109.581
113.051
118.458
127.666
137.142
147.165
160.498
173.47
185.903
197.636
208.532
218.475
227.374
235.163
241.797
247.255
251.539
254.666
256.673
257.607
257.528
256.505
254.61
251.92
254.71
263.165
271.093
278.492
285.343
291.617
297.274
302.267
306.539
310.047
312.724
314.57
315.476
315.451
314.458
312.482
309.522
305.583
300.683
294.848
288.111
280.511
272.096
262.918
253.036
242.511
231.405
219.778
207.688
195.189
182.332
169.161
155.72
142.049
128.182
117.036
110.082
110.412
111.006
111.834
112.871
114.091
117.514
67.5494
77.0156
80.4016
82.2965
83.6684
84.7601
85.6575
86.3961
86.9905
87.4455
87.7601
87.9299
87.9478
87.8054
87.4929
87.0002
86.317
85.4331
84.339
84.1162
85.0478
86.1936
87.3531
88.5094
89.646
90.7472
91.7989
92.7886
93.7061
94.543
95.2934
95.9538
96.523
97.002
97.3942
97.7056
97.9449
98.1242
98.2593
98.3709
98.4834
98.6249
98.8254
99.1161
99.529
100.102
100.875
101.894
103.203
104.844
106.853
109.255
112.059
115.258
119.262
127.021
134.845
142.615
151.609
161.692
171.162
179.91
187.849
194.915
201.066
206.281
210.557
213.909
216.367
217.973
218.782
218.854
218.258
222.452
231.613
240.325
248.585
256.371
263.649
270.375
276.496
281.954
286.689
290.627
293.739
295.943
297.199
297.47
296.726
294.947
292.127
288.268
283.384
277.499
270.65
262.882
254.256
244.835
234.689
223.889
212.501
200.589
188.213
175.427
162.279
148.815
135.077
121.101
106.924
92.8215
85.978
86.3892
87.8481
89.4868
91.2825
119.834
69.6691
79.191
82.8923
85.1894
86.9809
88.4919
89.8035
90.9493
91.9433
92.7888
93.4839
94.0229
94.3983
94.601
94.621
94.4472
94.0686
93.4741
92.6533
91.5965
90.2958
88.7448
87.5104
87.7713
89.0516
90.2951
91.4859
92.6104
93.657
94.617
95.484
96.2543
96.9263
97.5008
97.9807
98.3706
98.6771
98.909
99.0767
99.1936
99.2752
99.3414
99.4151
99.5214
99.6872
99.9401
100.306
100.813
101.489
102.367
103.477
104.846
106.496
108.444
110.691
113.228
116.032
119.066
123.715
129.892
135.882
141.593
147.423
154.41
160.743
166.385
171.316
175.534
179.051
181.896
184.108
185.738
186.846
192.137
201.765
211.036
219.941
228.455
236.543
244.157
251.238
257.722
263.543
268.624
272.898
276.301
278.771
280.256
280.711
280.101
278.402
275.603
271.703
266.716
260.674
253.624
245.627
236.755
227.083
216.687
205.639
194.009
181.858
169.244
156.219
142.83
129.12
115.128
100.889
86.438
71.8057
64.4272
66.0303
68.2984
70.6967
122.053
71.4958
81.046
85.1216
87.8814
90.1509
92.1374
93.9145
95.514
96.9489
98.223
99.3353
100.281
101.051
101.637
102.028
102.212
102.176
101.908
101.397
100.632
99.6044
98.3066
96.7343
94.8852
92.7601
90.6799
90.4004
91.6527
92.8207
93.8952
94.8696
95.7402
96.5058
97.1671
97.7271
98.1905
98.5633
98.8533
99.0692
99.2212
99.3209
99.3818
99.4189
99.4499
99.4956
99.578
99.7197
99.9434
100.271
100.722
101.315
102.071
103.009
104.143
105.484
107.036
108.794
110.744
112.856
115.095
117.409
119.739
122.517
126.822
130.782
134.333
137.414
141.906
146.074
149.757
152.986
155.801
158.253
164.366
174.266
183.905
193.271
202.336
211.062
219.398
227.281
234.643
241.408
247.496
252.828
257.328
260.924
263.549
265.144
265.659
265.053
263.297
260.378
256.3
251.09
244.795
237.478
229.216
220.086
210.17
199.544
188.28
176.441
164.088
151.274
138.046
124.45
110.525
96.3076
81.8325
67.1318
52.2357
46.6392
49.5549
52.5746
124.156
72.952
82.5259
87.03
90.2996
93.0882
95.5855
97.8626
99.9508
101.864
103.606
105.175
106.566
107.771
108.78
109.581
110.16
110.504
110.6
110.434
109.996
109.274
108.261
106.951
105.343
103.436
101.235
98.7456
95.9779
93.1984
92.4672
93.5445
94.5103
95.3638
96.1063
96.7409
97.2726
97.7078
98.0537
98.3189
98.5125
98.6445
98.7257
98.7678
98.7833
98.7865
98.7921
98.8174
98.8813
99.002
99.1966
99.482
99.8725
100.379
101.01
101.775
102.678
103.719
104.889
106.176
107.554
108.989
110.436
111.847
113.172
114.344
115.277
115.885
118.068
119.995
121.688
125.595
129.262
132.733
139.427
149.438
159.287
168.959
178.424
187.64
196.553
205.099
213.203
220.784
227.756
234.033
239.527
244.154
247.837
250.502
252.081
252.519
251.769
249.807
246.626
242.251
236.727
230.121
222.509
213.973
204.597
194.458
183.629
172.177
160.161
147.636
134.649
121.247
107.467
93.3492
78.9264
64.2316
49.2956
35.3192
33.405
37.0585
126.118
73.9432
83.5386
88.5146
92.3316
95.6773
98.7242
101.54
104.155
106.583
108.829
110.892
112.766
114.442
115.91
117.156
118.167
118.927
119.422
119.636
119.557
119.174
118.476
117.457
116.116
114.453
112.47
110.177
107.583
104.701
101.546
98.1357
94.7457
93.5962
94.4178
95.1245
95.7219
96.2165
96.6159
96.9285
97.1634
97.3299
97.4379
97.4976
97.5194
97.5143
97.4932
97.4684
97.4525
97.4581
97.4996
97.5915
97.7458
97.9721
98.2789
98.6716
99.1505
99.7127
100.352
101.057
101.809
102.58
103.338
104.045
104.663
105.129
105.365
105.298
104.849
103.936
102.713
103.646
106.07
110.286
117.364
127.358
137.291
147.143
156.882
166.464
175.832
184.92
193.649
201.932
209.679
216.795
223.184
228.753
233.41
237.067
239.644
241.065
241.273
240.228
237.92
234.369
229.621
223.741
216.808
208.905
200.116
190.518
180.185
169.184
157.574
145.408
132.736
119.601
106.043
92.0992
77.8031
63.1874
48.283
33.1194
21.8604
24.2003
127.923
74.3882
84.0132
89.5088
93.9142
97.8522
101.481
104.866
108.039
111.013
113.795
116.382
118.77
120.949
122.909
124.635
126.111
127.322
128.249
128.878
129.192
129.178
128.826
128.128
127.081
125.685
123.944
121.867
119.464
116.75
113.741
110.456
106.915
103.139
99.1473
95.1983
93.6354
94.1888
94.6405
94.9991
95.2738
95.4739
95.6091
95.6887
95.7226
95.7201
95.6906
95.6437
95.5885
95.5342
95.4905
95.4668
95.471
95.5121
95.5977
95.7317
95.9139
96.1417
96.4084
96.7005
96.9985
97.2786
97.5158
97.6846
97.7451
97.6327
97.2773
96.6179
95.5861
94.1019
92.0772
89.4177
88.014
90.6954
98.0153
107.909
117.837
127.776
137.692
147.541
157.266
166.797
176.051
184.94
193.366
201.228
208.423
214.848
220.398
224.973
228.475
230.817
231.926
231.756
230.29
227.543
223.567
218.42
212.185
204.945
196.78
187.77
177.986
167.493
156.351
144.611
132.322
119.526
106.261
92.5643
78.4683
64.0047
49.2038
34.0948
18.7061
13.9725
129.56
74.2189
83.893
89.9513
94.9778
99.5363
103.774
107.755
111.51
115.057
118.4
121.54
124.471
127.183
129.665
131.902
133.876
135.569
136.963
138.039
138.779
139.167
139.192
138.844
138.119
137.016
135.539
133.698
131.504
128.973
126.124
122.976
119.551
115.873
111.963
107.847
103.545
99.081
94.6074
92.6235
92.9373
93.1698
93.3307
93.4295
93.4755
93.4776
93.4446
93.3845
93.3053
93.2141
93.1179
93.0227
92.9336
92.8561
92.7939
92.7482
92.719
92.7037
92.6946
92.678
92.6364
92.5502
92.3973
92.1502
91.7651
91.1827
90.3451
89.196
87.6673
85.6825
83.158
80.003
76.1191
74.0711
81.0707
90.8282
100.702
110.67
120.7
130.748
140.756
150.653
160.355
169.77
178.795
187.325
195.248
202.451
208.819
214.237
218.595
221.79
223.742
224.398
223.741
221.779
218.576
214.165
208.64
202.082
194.572
186.187
176.997
167.064
156.446
145.194
133.352
120.962
108.061
94.6834
80.8601
66.6217
51.9969
37.0139
21.7005
8.80576
131.022
73.3725
83.1249
89.7831
95.4553
100.656
105.522
110.119
114.48
118.621
122.549
126.265
129.763
133.035
136.067
138.843
141.345
143.553
145.445
147.001
148.2
149.024
149.459
149.492
149.118
148.336
147.148
145.565
143.599
141.267
138.59
135.59
132.29
128.717
124.895
120.849
116.605
112.187
107.618
102.92
98.1163
93.2264
90.7835
90.8033
90.8597
90.8652
90.8282
90.7565
90.6572
90.5365
90.4002
90.2526
90.0972
89.9369
89.7725
89.6026
89.4251
89.2348
89.0218
88.773
88.4735
88.1055
87.6467
87.0665
86.3213
85.3569
84.1227
82.5645
80.616
78.203
75.2438
71.6489
67.3211
62.1567
66.1482
75.7725
85.5819
95.5573
105.669
115.875
126.119
136.329
146.422
156.302
165.864
174.996
183.58
191.493
198.609
204.802
209.947
213.933
216.671
218.102
218.208
216.994
214.539
210.874
206.075
200.223
193.398
185.675
177.12
167.795
157.754
147.046
135.714
123.795
111.326
98.3375
84.859
70.9186
56.5432
41.7592
26.5929
11.0708
132.31
71.7835
81.6506
88.9361
95.2723
101.131
106.644
111.875
116.858
121.612
126.146
130.459
134.547
138.401
142.007
145.348
148.405
151.157
153.579
155.648
157.341
158.635
159.514
159.962
159.972
159.539
158.668
157.367
155.65
153.536
151.046
148.205
145.041
141.579
137.849
133.878
129.694
125.322
120.789
116.117
111.332
106.454
101.504
96.5024
91.4671
88.4583
87.9126
87.8274
87.7072
87.5579
87.3847
87.1911
86.9799
86.7522
86.5072
86.2423
85.9528
85.6312
85.2661
84.844
84.3497
83.7639
83.062
82.212
81.1732
79.8962
78.3319
76.4273
74.1197
71.3378
68.001
64.0197
59.2973
53.729
52.8703
62.3901
72.1515
82.1386
92.3257
102.674
113.13
123.623
134.069
144.371
154.422
164.103
173.291
181.854
189.656
196.559
202.429
207.148
210.622
212.792
213.637
213.158
211.417
208.475
204.398
199.263
193.142
186.107
178.222
169.546
160.129
150.018
139.252
127.866
115.894
103.362
90.2992
76.7292
62.6767
48.1655
33.2198
17.864
5.72972
133.453
69.3848
79.3679
87.3136
94.3372
100.874
107.05
112.931
118.554
123.94
129.097
134.026
138.723
143.179
147.38
151.309
154.946
158.268
161.249
163.864
166.085
167.886
169.246
170.146
170.574
170.526
170.002
169.01
167.567
165.69
163.405
160.738
157.719
154.378
150.746
146.854
142.731
138.407
133.909
129.263
124.494
119.625
114.679
109.677
104.637
99.578
94.5164
89.4679
85.6918
84.3358
84.1245
83.8855
83.6207
83.3307
83.0139
82.6665
82.2824
81.8527
81.3653
80.8058
80.1576
79.3995
78.5047
77.4401
76.1661
74.6358
72.7995
70.6042
67.9899
64.8878
61.2188
56.8949
51.8196
45.887
41.349
50.3699
60.1112
70.1297
80.4028
90.8955
101.556
112.317
123.095
133.79
144.293
154.481
164.226
173.385
181.815
189.367
195.901
201.291
205.445
208.302
209.843
210.082
209.057
206.831
203.475
199.059
193.655
187.329
180.141
172.148
163.396
153.927
143.779
132.983
121.568
109.559
96.9792
83.8505
70.1936
56.0293
41.3787
26.2633
10.7063
134.52
66.2683
76.2983
84.9026
92.6146
99.8308
106.675
113.214
119.487
125.517
131.312
136.874
142.197
147.272
152.084
156.619
160.856
164.773
168.342
171.535
174.32
176.666
178.547
179.938
180.824
181.196
181.054
180.404
179.261
177.647
175.587
173.111
170.251
167.041
163.515
159.706
155.648
151.373
146.91
142.288
137.533
132.672
127.727
122.72
117.672
112.601
107.525
102.461
97.4211
92.4202
87.4694
82.5988
80.064
79.7117
79.325
78.8995
78.4283
77.9017
77.3073
76.6296
75.8506
74.9476
73.8925
72.6517
71.1856
69.4482
67.389
64.954
62.0836
58.7094
54.7529
50.1272
44.7367
38.4748
32.1894
39.4685
49.2167
59.2891
69.6652
80.3125
91.1816
102.206
113.303
124.372
135.301
145.963
156.222
165.931
174.935
183.08
190.219
196.227
201.011
204.513
206.716
207.633
207.303
205.784
203.143
199.448
194.768
189.164
182.695
175.412
167.357
158.571
149.086
138.931
128.129
116.703
104.671
92.0522
78.8621
65.118
50.8371
36.0376
20.7391
135.511
62.4655
72.4713
81.704
90.076
97.9507
105.449
112.64
119.566
126.249
132.697
138.909
144.875
150.584
156.023
161.176
166.03
170.561
174.744
178.546
181.932
184.864
187.308
189.234
190.621
191.454
191.732
191.459
190.65
189.326
187.516
185.251
182.567
179.501
176.091
172.373
168.385
164.16
159.733
155.135
150.393
145.536
140.589
135.574
130.514
125.427
120.333
115.247
110.184
105.158
100.181
95.2625
90.4105
85.6312
80.9286
76.6408
74.4185
73.7998
73.1054
72.3193
71.4224
70.3908
69.1958
67.803
66.1729
64.2594
62.012
59.3755
56.2896
52.6851
48.4831
43.5966
37.9294
31.374
24.5363
29.4958
39.2745
49.4208
59.9165
70.7304
81.8149
93.104
104.514
115.944
127.278
138.386
149.123
159.337
168.866
177.549
185.24
191.814
197.181
201.286
204.113
205.676
206.014
205.183
203.245
200.265
196.309
191.434
185.696
179.141
171.811
163.739
154.955
145.483
135.344
124.556
113.132
101.086
88.4313
75.1788
61.3415
46.9334
31.9697
136.449
57.9752
67.8808
77.6946
86.6764
95.1673
103.288
111.111
118.681
126.022
133.139