/*--------------------------------*- C++ -*----------------------------------*\
  =========                 |
  \\      /  F ield         | OpenFOAM: The Open Source CFD Toolbox
   \\    /   O peration     | Website:  https://openfoam.org
    \\  /    A nd           | Version:  10
     \\/     M anipulation  |
\*---------------------------------------------------------------------------*/
FoamFile
{
    format      ascii;
    class       volScalarField;
    location    "78000";
    object      p;
}
// * * * * * * * * * * * * * * * * * * * * * * * * * * * * * * * * * * * * * //

dimensions      [0 2 -2 0 0 0 0];

internalField   nonuniform List<scalar> 
17981
(
8.64123e-06
0.0546876
0.107704
0.159107
0.208943
0.257255
0.304086
0.349476
0.393468
0.4361
0.477412
0.517442
0.556229
0.593809
0.630218
0.665493
0.699667
0.732775
0.76485
0.795923
0.826026
0.85519
0.883443
0.910815
0.937334
0.963026
0.987917
1.01203
1.0354
1.05804
1.07998
1.10123
1.12183
1.14179
1.16114
1.17988
1.19805
1.21566
1.23272
1.24927
1.2653
1.28084
1.29591
1.31052
1.32468
1.33841
1.35172
1.36463
-0.0106198
0.0446337
0.0982134
0.150165
0.200535
0.249364
0.296696
0.342572
0.387034
0.43012
0.471871
0.512325
0.55152
0.589494
0.626284
0.661924
0.696451
0.729899
0.7623
0.793687
0.824092
0.853545
0.882077
0.909716
0.93649
0.962428
0.987555
1.0119
1.03548
1.05833
1.08046
1.10191
1.12269
1.14282
1.16233
1.18124
1.19956
1.21731
1.23452
1.25119
1.26735
1.28302
1.2982
1.31292
1.32718
1.34101
1.35442
1.36742
-0.0220646
0.0338298
0.0880322
0.140589
0.191545
0.240943
0.288825
0.335235
0.380211
0.423796
0.466027
0.506945
0.546589
0.584994
0.6222
0.658241
0.693154
0.726972
0.75973
0.79146
0.822194
0.851964
0.880799
0.908729
0.935782
0.961987
0.98737
1.01196
1.03578
1.05885
1.0812
1.10285
1.12383
1.14415
1.16384
1.18291
1.2014
1.21931
1.23666
1.25348
1.26977
1.28557
1.30087
1.31571
1.33009
1.34403
1.35754
1.37064
0.181894
0.231905
0.280382
0.327364
0.372895
0.417014
0.459761
0.501177
0.541299
0.580166
0.617816
0.654284
0.689607
0.72382
0.756957
0.789051
0.820134
0.850239
0.879395
0.907632
0.93498
0.961466
0.987119
1.01196
1.03603
1.05934
1.08191
1.10378
1.12496
1.14548
1.16535
1.18461
1.20326
1.22133
1.23884
1.2558
1.27224
1.28817
1.3036
1.31856
1.33305
1.3471
1.36072
1.37392
0.171613
0.222288
0.271405
0.319006
0.365134
0.40983
0.453133
0.495084
0.535722
0.575085
0.613213
0.65014
0.685905
0.720542
0.754085
0.786569
0.818026
0.848489
0.877988
0.906554
0.934215
0.961002
0.986942
1.01206
1.03639
1.05994
1.08276
1.10485
1.12625
1.14697
1.16705
1.18649
1.20532
1.22356
1.24123
1.25835
1.27493
1.291
1.30657
1.32165
1.33627
1.35043
1.36416
1.37746
0.160659
0.212042
0.261843
0.310105
0.356869
0.402179
0.446074
0.488594
0.529781
0.569672
0.608306
0.645721
0.681953
0.717039
0.751012
0.783908
0.81576
0.8466
0.87646
0.90537
0.933362
0.960463
0.986703
1.01211
1.03671
1.06052
1.08359
1.10592
1.12754
1.14848
1.16875
1.18839
1.20741
1.22582
1.24366
1.26094
1.27767
1.29388
1.30959
1.3248
1.33954
1.35382
1.36766
1.38106
0.201158
0.251687
0.300651
0.348094
0.394056
0.438581
0.481708
0.523477
0.563929
0.603102
0.641034
0.677762
0.713323
0.747752
0.781085
0.813354
0.844593
0.874834
0.904108
0.932447
0.95988
0.986436
1.01214
1.03703
1.06112
1.08444
1.10702
1.12888
1.15004
1.17053
1.19037
1.20957
1.22817
1.24618
1.26362
1.28052
1.29687
1.31272
1.32806
1.34293
1.35733
1.37128
1.38479
0.290582
0.338742
0.385396
0.430587
0.474355
0.516742
0.557786
0.597529
0.636007
0.673258
0.70932
0.744229
0.77802
0.810727
0.842385
0.873025
0.90268
0.931382
0.95916
0.986046
1.01207
1.03725
1.06162
1.08521
1.10804
1.13014
1.15153
1.17224
1.19229
1.21169
1.23047
1.24866
1.26627
1.28332
1.29983
1.31581
1.33129
1.34629
1.36081
1.37487
1.3885
0.32874
0.376126
0.422021
0.466467
0.509506
0.551176
0.591519
0.630572
0.668375
0.704965
0.740378
0.77465
0.807817
0.839912
0.87097
0.901023
0.930104
0.958242
0.985466
1.01181
1.0373
1.06197
1.08584
1.10896
1.13133
1.15297
1.1739
1.19416
1.21377
1.23274
1.25111
1.26889
1.2861
1.30276
1.3189
1.33451
1.34964
1.36428
1.37846
1.39219
0.412812
0.457977
0.501706
0.544039
0.585018
0.624681
0.663068
0.700216
0.736162
0.770944
0.804597
0.837156
0.868656
0.89913
0.92861
0.95713
0.98472
1.01141
1.03722
1.06218
1.08631
1.10965
1.13224
1.15411
1.17528
1.19576
1.21558
1.23475
1.25331
1.27127
1.28865
1.30547
1.32175
1.3375
1.35276
1.36753
1.38183
1.39567
0.57791
0.618211
0.657206
0.694935
0.731436
0.766745
0.8009
0.833937
0.865889
0.896793
0.926682
0.955588
0.983542
1.01058
1.03673
1.06204
1.08652
1.11019
1.13306
1.15519
1.17659
1.19729
1.21731
1.23669
1.25543
1.27356
1.2911
1.30808
1.3245
1.3404
1.35579
1.37068
1.38509
1.39904
0.570186
0.611158
0.650795
0.689135
0.726218
0.762081
0.796763
0.8303
0.862729
0.894084
0.9244
0.953712
0.98205
1.00945
1.03594
1.06155
1.08631
1.11026
1.13341
1.15579
1.17744
1.19837
1.21861
1.23819
1.25712
1.27544
1.29315
1.31029
1.32686
1.3429
1.35842
1.37344
1.38797
1.40203
0.561788
0.60346
0.643764
0.68274
0.720427
0.756866
0.792094
0.82615
0.859071
0.890893
0.921651
0.951381
0.980116
1.00789
1.03473
1.06068
1.08576
1.11
1.13343
1.15608
1.17797
1.19914
1.2196
1.23938
1.25851
1.27701
1.29489
1.31219
1.32892
1.3451
1.36075
1.37589
1.39054
1.40471
0.552727
0.595125
0.636119
0.675751
0.714063
0.751093
0.786883
0.821471
0.854896
0.887195
0.918405
0.948561
0.9777
1.00585
1.03306
1.05934
1.08474
1.10928
1.13299
1.15591
1.17805
1.19945
1.22014
1.24013
1.25945
1.27813
1.29619
1.31364
1.33052
1.34684
1.36263
1.37789
1.39265
1.40694
0.586181
0.627883
0.668187
0.707137
0.744773
0.781136
0.816268
0.850207
0.882992
0.914661
0.945252
0.974801
1.00334
1.03091
1.05754
1.08326
1.1081
1.1321
1.15529
1.17768
1.19932
1.22023
1.24042
1.25994
1.2788
1.29703
1.31465
1.33168
1.34814
1.36405
1.37944
1.39432
1.4087
0.57669
0.619109
0.660093
0.699687
0.737935
0.774877
0.810556
0.845013
0.878288
0.91042
0.941447
0.971408
1.00034
1.02827
1.05524
1.08128
1.10643
1.13072
1.15417
1.17682
1.19869
1.21982
1.24022
1.25993
1.27898
1.29737
1.31515
1.33232
1.34892
1.36497
1.38047
1.39546
1.40995
0.566746
0.60988
0.651544
0.691783
0.73064
0.76816
0.804386
0.839359
0.873123
0.905716
0.937178
0.967548
0.996863
1.02516
1.05247
1.07884
1.10429
1.12885
1.15257
1.17547
1.19757
1.21892
1.23953
1.25943
1.27865
1.29721
1.31514
1.33246
1.3492
1.36536
1.38099
1.39608
1.41067
0.600298
0.642631
0.683504
0.722962
0.76105
0.797814
0.833296
0.86754
0.900587
0.932477
0.96325
0.992945
1.0216
1.04925
1.07593
1.10167
1.12652
1.15049
1.17363
1.19597
1.21753
1.23834
1.25842
1.27782
1.29654
1.31462
1.33208
1.34895
1.36523
1.38097
1.39617
1.41085
0.590476
0.633458
0.674946
0.714987
0.753628
0.790915
0.826892
0.861604
0.895092
0.927399
0.958564
0.988627
1.01763
1.0456
1.07259
1.09862
1.12374
1.14797
1.17135
1.1939
1.21567
1.23667
1.25694
1.2765
1.29538
1.31361
1.3312
1.34819
1.36459
1.38043
1.39573
1.41051
0.580524
0.624126
0.666203
0.706803
0.745974
0.783762
0.820215
0.855376
0.889289
0.921996
0.953539
0.983958
1.01329
1.04158
1.06887
1.09518
1.12055
1.14503
1.16863
1.1914
1.21337
1.23455
1.25499
1.27472
1.29375
1.31211
1.32984
1.34694
1.36346
1.3794
1.39479
1.40966
0.570552
0.614739
0.657371
0.698499
0.738171
0.776436
0.813339
0.848927
0.883244
0.916332
0.948235
0.978994
1.00865
1.03724
1.06481
1.09138
1.11701
1.14172
1.16554
1.18851
1.21067
1.23203
1.25264
1.27251
1.29168
1.31018
1.32803
1.34525
1.36187
1.3779
1.39339
1.40833
0.56066
0.605389
0.648538
0.690158
0.730299
0.769009
0.806336
0.842325
0.877021
0.910469
0.942712
0.973792
1.00375
1.03263
1.06046
1.08729
1.11315
1.13808
1.16211
1.18528
1.20761
1.22914
1.24991
1.26993
1.28924
1.30786
1.32582
1.34315
1.35986
1.37599
1.39156
1.40658
0.550937
0.596162
0.639786
0.681859
0.722432
0.761554
0.799274
0.835636
0.870687
0.904471
0.937032
0.968413
0.998656
1.0278
1.05589
1.08296
1.10904
1.13418
1.1584
1.18175
1.20426
1.22595
1.24686
1.26702
1.28646
1.30519
1.32327
1.34069
1.3575
1.37372
1.38936
1.40445
0.541458
0.587131
0.631184
0.67367
0.714638
0.754138
0.792218
0.828924
0.864302
0.898397
0.931255
0.962917
0.993425
1.02282
1.05115
1.07844
1.10473
1.13007
1.15448
1.178
1.20067
1.22251
1.24356
1.26385
1.2834
1.30225
1.32043
1.33795
1.35484
1.37114
1.38685
1.40201
0.532285
0.578356
0.622794
0.66565
0.706975
0.746817
0.785225
0.822246
0.857925
0.892308
0.925439
0.957361
0.988117
1.01775
1.04629
1.07379
1.10029
1.12581
1.15039
1.17408
1.19689
1.21888
1.24006
1.26047
1.28014
1.2991
1.31736
1.33497
1.35195
1.36832
1.3841
1.39933
0.523462
0.569885
0.614663
0.657849
0.699492
0.739643
0.778348
0.815655
0.851609
0.886255
0.919639
0.951802
0.982788
1.01264
1.04139
1.06909
1.09576
1.12146
1.14621
1.17005
1.19301
1.21512
1.23643
1.25696
1.27673
1.29579
1.31415
1.33184
1.3489
1.36533
1.38118
1.39646
0.515025
0.561752
0.606829
0.650306
0.692233
0.732659
0.771631
0.809197
0.845401
0.880289
0.913904
0.946291
0.97749
1.00754
1.03649
1.06437
1.09122
1.11708
1.14198
1.16597
1.18906
1.21131
1.23273
1.25337
1.27325
1.29239
1.31084
1.32862
1.34574
1.36225
1.37816
1.39349
0.506993
0.553983
0.599319
0.64305
0.685228
0.725899
0.765111
0.80291
0.839342
0.874451
0.908281
0.940873
0.972271
1.00251
1.03164
1.05969
1.08671
1.11272
1.13778
1.1619
1.18512
1.20749
1.22903
1.24977
1.26974
1.28898
1.30751
1.32536
1.34256
1.35913
1.37509
1.39048
0.499379
0.546592
0.59215
0.636104
0.678502
0.719392
0.758819
0.796829
0.833469
0.86878
0.902807
0.935591
0.967174
0.997595
1.0269
1.05511
1.08228
1.10845
1.13364
1.15789
1.18124
1.20373
1.22537
1.24622
1.26628
1.28561
1.30422
1.32214
1.3394
1.35603
1.37205
1.38749
0.539584
0.585334
0.629481
0.672073
0.713156
0.752777
0.790979
0.827808
0.863306
0.897516
0.930479
0.962236
0.992826
1.02229
1.05066
1.07798
1.10429
1.12962
1.154
1.17747
1.20007
1.22182
1.24276
1.26292
1.28233
1.30102
1.31901
1.33634
1.35303
1.3691
1.38459
0.532958
0.578871
0.623185
0.665948
0.707205
0.747
0.785378
0.822381
0.858052
0.892433
0.925565
0.957487
0.988238
1.01786
1.04638
1.07385
1.10029
1.12575
1.15026
1.17385
1.19655
1.21841
1.23945
1.2597
1.27919
1.29795
1.31602
1.33341
1.35015
1.36628
1.38182
0.526707
0.572757
0.617216
0.660129
0.701541
0.741496
0.780035
0.817201
0.853035
0.887577
0.920869
0.952948
0.983854
1.01362
1.04229
1.0699
1.09648
1.12207
1.1467
1.1704
1.19322
1.21518
1.23631
1.25665
1.27622
1.29506
1.3132
1.33065
1.34746
1.36364
1.37922
0.520816
0.566983
0.611567
0.654613
0.696164
0.736263
0.774952
0.812271
0.84826
0.882957
0.916403
0.948634
0.97969
1.00961
1.03842
1.06617
1.09288
1.1186
1.14335
1.16717
1.1901
1.21216
1.23339
1.25381
1.27347
1.29238
1.31059
1.3281
1.34497
1.3612
1.37682
0.649389
0.691066
0.731298
0.770126
0.807589
0.843725
0.878573
0.912169
0.944551
0.975754
1.00582
1.03477
1.06266
1.0895
1.11535
1.14022
1.16416
1.1872
1.20936
1.23069
1.2512
1.27094
1.28993
1.30821
1.32579
1.34271
1.35899
1.37466
0.644443
0.686235
0.72659
0.765548
0.803148
0.839426
0.874419
0.908163
0.940693
0.972045
1.00225
1.03135
1.05937
1.08636
1.11233
1.13733
1.16139
1.18453
1.2068
1.22823
1.24883
1.26866
1.28772
1.30607
1.32371
1.34069
1.35702
1.37274
0.639757
0.681653
0.722123
0.761205
0.798935
0.835349
0.870484
0.904373
0.937051
0.968551
0.998906
1.02815
1.05631
1.08343
1.10954
1.13466
1.15884
1.1821
1.20448
1.226
1.2467
1.26661
1.28576
1.30418
1.32189
1.33892
1.35531
1.37108
0.635309
0.677302
0.717879
0.757077
0.794933
0.83148
0.866754
0.900786
0.933611
0.965259
0.995763
1.02515
1.05346
1.08072
1.10696
1.13222
1.15652
1.1799
1.20239
1.22401
1.24481
1.26481
1.28404
1.30253
1.3203
1.3374
1.35384
1.36966
0.631077
0.673159
0.713837
0.753147
0.791123
0.8278
0.863209
0.897384
0.930354
0.962151
0.992804
1.02234
1.0508
1.07821
1.10459
1.12998
1.15441
1.17791
1.20051
1.22224
1.24314
1.26323
1.28254
1.30111
1.31896
1.33611
1.35261
1.36847
0.627038
0.669202
0.709974
0.74939
0.787483
0.824286
0.859829
0.894144
0.92726
0.959206
0.990011
1.0197
1.04831
1.07586
1.10239
1.12792
1.15248
1.17611
1.19883
1.22068
1.24168
1.26186
1.28126
1.29991
1.31782
1.33505
1.3516
1.36751
0.623168
0.665407
0.706268
0.745785
0.78399
0.820915
0.856591
0.891045
0.924306
0.956402
0.98736
1.01721
1.04597
1.07367
1.10035
1.12602
1.15072
1.17448
1.19733
1.21929
1.24039
1.26068
1.28017
1.2989
1.31689
1.33418
1.35079
1.36676
0.619446
0.661754
0.702698
0.74231
0.780623
0.817667
0.853471
0.888063
0.921468
0.953714
0.984826
1.01483
1.04375
1.07161
1.09843
1.12426
1.1491
1.173
1.19597
1.21805
1.23927
1.25966
1.27925
1.29806
1.31613
1.33349
1.35017
1.36618
0.615856
0.658226
0.699245
0.738947
0.777362
0.814521
0.85045
0.885176
0.918725
0.95112
0.982386
1.01255
1.04162
1.06964
1.09663
1.1226
1.1476
1.17163
1.19474
1.21695
1.23829
1.25878
1.27847
1.29737
1.31553
1.33296
1.3497
1.36577
0.612382
0.654806
0.695895
0.73568
0.774192
0.811459
0.847508
0.882365
0.916054
0.948598
0.980018
1.01034
1.03958
1.06776
1.0949
1.12103
1.14618
1.17036
1.19361
1.21595
1.23741
1.25802
1.27781
1.29681
1.31505
1.33256
1.34936
1.3655
0.609013
0.651484
0.692634
0.732496
0.771097
0.808466
0.844631
0.879614
0.91344
0.946129
0.977702
1.00818
1.03758
1.06592
1.09323
1.11953
1.14483
1.16916
1.19256
1.21504
1.23662
1.25735
1.27725
1.29635
1.31468
1.33227
1.34914
1.36534
0.605743
0.648251
0.689455
0.729385
0.768068
0.805533
0.841806
0.87691
0.910867
0.943697
0.975421
1.00606
1.03562
1.06413
1.0916
1.11806
1.14352
1.16802
1.19156
1.21418
1.2359
1.25676
1.27677
1.29597
1.31439
1.33207
1.34902
1.36528
0.602568
0.645104
0.686353
0.726342
0.7651
0.802652
0.839025
0.874242
0.908325
0.941292
0.973162
1.00395
1.03367
1.06235
1.08999
1.11662
1.14225
1.1669
1.1906
1.21337
1.23523
1.25621
1.27634
1.29566
1.31418
1.33193
1.34896
1.36529
0.599488
0.642041
0.683324
0.723364
0.762187
0.799819
0.836285
0.871607
0.905807
0.938904
0.970915
1.00185
1.03174
1.06058
1.08839
1.11518
1.14098
1.1658
1.18965
1.21257
1.23458
1.2557
1.27596
1.29538
1.31401
1.33186
1.34897
1.36537
0.596507
0.639064
0.68037
0.720451
0.75933
0.797032
0.833582
0.869001
0.90331
0.93653
0.968674
0.999759
1.0298
1.0588
1.08677
1.11374
1.13971
1.16469
1.18872
1.21179
1.23395
1.25521
1.2756
1.29514
1.31387
1.33182
1.34901
1.36549
0.593631
0.63618
0.677495
0.717605
0.75653
0.794293
0.830917
0.866424
0.900834
0.934167
0.966438
0.99766
1.02785
1.05701
1.08515
1.11228
1.13842
1.16358
1.18777
1.21101
1.23332
1.25472
1.27525
1.29492
1.31376
1.33181
1.34909
1.36564
0.590855
0.633394
0.674707
0.714831
0.753791
0.791605
0.828294
0.863879
0.89838
0.931817
0.964205
0.995558
1.02589
1.0552
1.0835
1.11081
1.13712
1.16245
1.18681
1.21021
1.23268
1.25424
1.2749
1.2947
1.31366
1.33181
1.34919
1.36582
0.588165
0.630705
0.672012
0.712139
0.751118
0.788971
0.825715
0.861369
0.895952
0.929483
0.961979
0.993452
1.02391
1.05337
1.08183
1.1093
1.13578
1.16129
1.18582
1.2094
1.23203
1.25374
1.27455
1.29448
1.31356
1.33183
1.3493
1.36602
0.585543
0.628096
0.66941
0.709535
0.74852
0.786398
0.823186
0.858899
0.893555
0.927171
0.959764
0.991348
1.02194
1.05153
1.08014
1.10777
1.13442
1.1601
1.18481
1.20856
1.23136
1.25323
1.27419
1.29426
1.31347
1.33184
1.34942
1.36622
0.58298
0.62555
0.666883
0.707019
0.746007
0.783895
0.820713
0.856474
0.891192
0.924883
0.957565
0.989251
1.01995
1.04968
1.07843
1.10622
1.13303
1.15888
1.18376
1.20769
1.23066
1.25269
1.27381
1.29402
1.31336
1.33186
1.34954
1.36644
0.623058
0.664414
0.704574
0.743577
0.781471
0.818303
0.854099
0.888869
0.922627
0.955387
0.987164
1.01797
1.04782
1.07671
1.10464
1.13161
1.15763
1.18269
1.20679
1.22993
1.25213
1.27341
1.29378
1.31325
1.33187
1.34966
1.36666
0.620616
0.661994
0.702182
0.741213
0.779125
0.815967
0.851782
0.886592
0.920406
0.953236
0.985095
1.016
1.04595
1.07497
1.10304
1.13017
1.15635
1.18158
1.20585
1.22918
1.25155
1.27299
1.29351
1.31313
1.33188
1.34979
1.36688
0.699833
0.738897
0.776841
0.813704
0.849532
0.884366
0.918224
0.951115
0.983048
1.01404
1.04409
1.07322
1.10142
1.1287
1.15504
1.18044
1.20489
1.22839
1.25094
1.27255
1.29323
1.313
1.33188
1.34991
1.3671
0.697524
0.736619
0.774599
0.811497
0.847348
0.882199
0.916087
0.949027
0.981026
1.01209
1.04224
1.07147
1.0998
1.12721
1.1537
1.17927
1.20389
1.22757
1.2503
1.27209
1.29293
1.31285
1.33188
1.35002
1.36732
0.734375
0.77239
0.809327
0.845216
0.880093
0.914002
0.946978
0.979031
1.01017
1.04039
1.06972
1.09816
1.1257
1.15234
1.17806
1.20286
1.22672
1.24963
1.27159
1.29261
1.31269
1.33186
1.35014
1.36755
0.732159
0.770209
0.807184
0.843115
0.878032
0.91197
0.944971
0.977067
1.00826
1.03857
1.06798
1.09652
1.12418
1.15096
1.17684
1.2018
1.22584
1.24893
1.27108
1.29227
1.31252
1.33183
1.35025
1.36778
0.729967
0.76805
0.805063
0.841035
0.875996
0.909976
0.94301
0.975137
1.00638
1.03675
1.06625
1.09488
1.12265
1.14956
1.17558
1.20071
1.22492
1.2482
1.27053
1.2919
1.31232
1.3318
1.35035
1.368
0.765909
0.802959
0.838971
0.873976
0.908002
0.941079
0.973242
1.00453
1.03495
1.06452
1.09324
1.12111
1.14813
1.1743
1.19958
1.22397
1.24743
1.26994
1.2915
1.3121
1.33174
1.35044
1.36823
0.763782
0.800866
0.836918
0.871965
0.906037
0.939162
0.97137
1.00269
1.03316
1.0628
1.09159
1.11956
1.14669
1.17299
1.19842
1.22297
1.24662
1.26932
1.29107
1.31185
1.33167
1.35052
1.36845
0.798782
0.834871
0.86996
0.904076
0.937247
0.969504
1.00087
1.03139
1.06108
1.08994
1.11799
1.14523
1.17165
1.19722
1.22194
1.24576
1.26865
1.2906
1.31157
1.33156
1.35059
1.36865
0.796701
0.832827
0.867955
0.902114
0.935332
0.967636
0.999056
1.02962
1.05936
1.08829
1.11642
1.14375
1.17027
1.19599
1.22086
1.24485
1.26794
1.29008
1.31125
1.33143
1.35062
1.36884
0.794621
0.83078
0.865947
0.900148
0.93341
0.96576
0.997228
1.02784
1.05763
1.08662
1.11482
1.14223
1.16886
1.1947
1.21972
1.24388
1.26716
1.2895
1.31087
1.33125
1.35063
1.36901
0.828729
0.863931
0.898172
0.931476
0.963872
0.995386
1.02605
1.05589
1.08493
1.11319
1.14069
1.16741
1.19337
1.21853
1.24285
1.26631
1.28885
1.31043
1.33101
1.35059
1.36915
0.826668
0.861905
0.896183
0.929529
0.961967
0.993525
1.02423
1.05412
1.08321
1.11154
1.1391
1.16592
1.19197
1.21726
1.24175
1.26538
1.28811
1.30991
1.33071
1.35049
1.36924
0.824596
0.859865
0.894178
0.927563
0.960042
0.991644
1.02239
1.05232
1.08146
1.10984
1.13747
1.16436
1.19052
1.21593
1.24056
1.26436
1.28729
1.30929
1.33032
1.35032
1.36927
0.857806
0.892154
0.925575
0.958095
0.989738
1.02053
1.0505
1.07968
1.1081
1.13578
1.16275
1.18899
1.2145
1.23927
1.26325
1.28636
1.30857
1.32982
1.35006
1.36924
0.855727
0.890106
0.923562
0.95612
0.987803
1.01864
1.04865
1.07786
1.10631
1.13404
1.16106
1.18738
1.21299
1.23788
1.26201
1.28532
1.30773
1.32921
1.34969
1.36911
0.853622
0.88803
0.921519
0.954112
0.985834
1.01671
1.04675
1.07601
1.10449
1.13224
1.1593
1.18568
1.21138
1.23639
1.26066
1.28414
1.30675
1.32845
1.34918
1.36887
0.85149
0.885923
0.919441
0.952068
0.983826
1.01474
1.04482
1.07411
1.10263
1.13041
1.15749
1.1839
1.20967
1.23476
1.25916
1.28281
1.30562
1.32754
1.34852
1.36849
0.849328
0.883783
0.917328
0.949985
0.981776
1.01272
1.04285
1.07217
1.10072
1.12853
1.15562
1.18205
1.20785
1.23301
1.25752
1.28132
1.30432
1.32645
1.34767
1.36794
0.847137
0.881611
0.915178
0.947861
0.979682
1.01066
1.04082
1.07018
1.09877
1.12661
1.15372
1.18015
1.20595
1.23115
1.25574
1.27966
1.30284
1.32517
1.34664
1.36721
0.844923
0.87941
0.912996
0.9457
0.977545
1.00855
1.03874
1.06814
1.09676
1.12463
1.15177
1.17821
1.204
1.22919
1.25381
1.27782
1.30115
1.32368
1.34536
1.36629
0.842691
0.87719
0.91079
0.943511
0.975374
1.0064
1.03662
1.06604
1.0947
1.1226
1.14977
1.17623
1.20202
1.22718
1.25177
1.27581
1.29924
1.32191
1.34376
1.36508
0.840464
0.874975
0.908587
0.941322
0.9732
1.00424
1.03448
1.06393
1.0926
1.12054
1.14774
1.17423
1.20004
1.2252
1.24974
1.27374
1.29721
1.32001
1.34205
1.3636
0.838191
0.872717
0.906347
0.939102
0.970999
1.00206
1.03232
1.06179
1.0905
1.11847
1.1457
1.17223
1.19806
1.22323
1.24776
1.27169
1.29511
1.31799
1.34035
1.36222
0.836245
0.870753
0.904356
0.93708
0.968952
1
1.03025
1.05973
1.08844
1.11643
1.14369
1.17025
1.19613
1.22135
1.24591
1.26985
1.29318
1.31591
1.33814
1.3601
0.833911
0.868554
0.9023
0.935166
0.967172
0.99834
1.0287
1.05826
1.08705
1.11508
1.14237
1.16893
1.19478
1.21993
1.24437
1.2681
1.29113
1.31344
1.33471
1.35473
2.4105
2.38388
2.35762
2.3317
2.30613
2.28092
2.25605
2.23153
2.20735
2.18352
2.16003
2.13689
2.11408
2.09161
2.06948
2.04769
2.02622
2.00509
1.98428
1.96379
1.94362
1.92376
1.90421
1.88496
1.86601
1.84734
1.82896
1.81085
1.793
1.77541
1.75807
1.74097
1.7241
1.70744
1.69099
1.67473
1.65866
1.64276
1.62701
1.61141
1.59595
1.58061
1.56538
1.55026
1.53523
1.5203
1.50546
1.49072
1.47608
1.46155
1.44714
1.4327
1.41826
1.40564
1.38337
2.41112
2.38454
2.35831
2.33244
2.30692
2.28175
2.25693
2.23246
2.20834
2.18456
2.16113
2.13805
2.1153
2.0929
2.07083
2.0491
2.0277
2.00663
1.98589
1.96547
1.94536
1.92557
1.90608
1.88689
1.868
1.84939
1.83107
1.81301
1.79523
1.77769
1.7604
1.74335
1.72653
1.70992
1.69351
1.6773
1.66127
1.64541
1.6297
1.61414
1.5987
1.58339
1.56818
1.55306
1.53802
1.52306
1.50816
1.49332
1.47853
1.46378
1.44906
1.43416
1.41863
1.40352
1.38571
2.41104
2.38449
2.35829
2.33245
2.30697
2.28184
2.25706
2.23263
2.20855
2.18482
2.16144
2.1384
2.11571
2.09335
2.07134
2.04966
2.02831
2.00729
1.9866
1.96623
1.94618
1.92644
1.907
1.88786
1.86901
1.85045
1.83217
1.81416
1.7964
1.77891
1.76165
1.74463
1.72783
1.71125
1.69487
1.67867
1.66266
1.64681
1.63112
1.61557
1.60014
1.58483
1.56963
1.55452
1.53949
1.52454
1.50966
1.49483
1.48006
1.46532
1.45057
1.43566
1.42004
1.40351
1.38561
2.41088
2.38436
2.3582
2.33239
2.30695
2.28185
2.25712
2.23273
2.2087
2.18502
2.16169
2.1387
2.11606
2.09376
2.07179
2.05017
2.02888
2.00791
1.98727
1.96695
1.94695
1.92726
1.90787
1.88878
1.86997
1.85146
1.83321
1.81524
1.79752
1.78005
1.76283
1.74583
1.72906
1.71249
1.69612
1.67994
1.66393
1.64809
1.6324
1.61685
1.60143
1.58612
1.57092
1.55582
1.54081
1.52587
1.51102
1.49623
1.48151
1.46681
1.45207
1.43714
1.42158
1.40475
1.38615
2.4108
2.38431
2.35818
2.33242
2.30701
2.28196
2.25726
2.23293
2.20894
2.1853
2.16202
2.13908
2.11649
2.09424
2.07233
2.05075
2.02951
2.0086
1.98801
1.96774
1.94779
1.92814
1.9088
1.88975
1.87099
1.85251
1.8343
1.81636
1.79868
1.78124
1.76404
1.74707
1.73031
1.71377
1.69741
1.68125
1.66526
1.64943
1.63375
1.61821
1.6028
1.58751
1.57233
1.55725
1.54227
1.52737
1.51255
1.49781
1.48312
1.46844
1.45368
1.43864
1.42291
1.40589
1.38684
2.41074
2.38429
2.3582
2.33247
2.3071
2.28209
2.25743
2.23314
2.2092
2.18561
2.16237
2.13948
2.11693
2.09473
2.07287
2.05134
2.03015
2.00928
1.98874
1.96852
1.94861
1.929
1.9097
1.89069
1.87197
1.85352
1.83535
1.81744
1.79978
1.78237
1.76519
1.74824
1.7315
1.71497
1.69863
1.68248
1.6665
1.65068
1.63501
1.61949
1.60409
1.58882
1.57366
1.55861
1.54365
1.52878
1.514
1.49928
1.4846
1.46989
1.45505
1.43982
1.42376
1.40643
1.38715
2.41071
2.38429
2.35823
2.33253
2.3072
2.28223
2.25762
2.23337
2.20947
2.18592
2.16273
2.13988
2.11738
2.09523
2.07341
2.05193
2.03078
2.00996
1.98946
1.96928
1.94941
1.92985
1.91058
1.89161
1.87292
1.8545
1.83636
1.81847
1.80084
1.78345
1.76629
1.74935
1.73263
1.71611
1.69979
1.68364
1.66767
1.65186
1.63621
1.62069
1.60531
1.59005
1.57491
1.55987
1.54493
1.53009
1.51531
1.50059
1.48588
1.47112
1.45614
1.44064
1.42428
1.40669
1.38744
2.41069
2.3843
2.35828
2.33262
2.30733
2.2824
2.25783
2.23361
2.20976
2.18625
2.1631
2.1403
2.11785
2.09574
2.07396
2.05253
2.03142
2.01064
1.99018
1.97004
1.95021
1.93068
1.91144
1.8925
1.87384
1.85545
1.83733
1.81947
1.80186
1.78448
1.76734
1.75042
1.73371
1.7172
1.70088
1.68475
1.66878
1.65298
1.63733
1.62183
1.60645
1.59121
1.57607
1.56105
1.54612
1.53127
1.51649
1.50175
1.48699
1.47212
1.45694
1.44117
1.42454
1.40679
1.38771
2.4107
2.38435
2.35836
2.33273
2.30748
2.28258
2.25805
2.23388
2.21006
2.1866
2.16349
2.14073
2.11832
2.09625
2.07452
2.05312
2.03205
2.01131
1.99089
1.97078
1.95098
1.93149
1.91228
1.89337
1.87473
1.85637
1.83827
1.82042
1.80283
1.78547
1.76834
1.75142
1.73472
1.71822
1.70191
1.68578
1.66982
1.65403
1.63838
1.62288
1.60751
1.59227
1.57714
1.56212
1.54718
1.53232
1.51752
1.50273
1.48789
1.47287
1.45746
1.44142
1.42458
1.40675
1.38789
2.41073
2.38441
2.35845
2.33286
2.30764
2.28279
2.25829
2.23416
2.21038
2.18696
2.16389
2.14117
2.1188
2.09676
2.07507
2.05371
2.03268
2.01197
1.99159
1.97151
1.95174
1.93227
1.9131
1.8942
1.87559
1.85725
1.83916
1.82134
1.80375
1.7864
1.76928
1.75238
1.73568
1.71918
1.70288
1.68675
1.67079
1.655
1.63935
1.62385
1.60848
1.59324
1.5781
1.56307
1.54812
1.53323
1.51839
1.50353
1.48858
1.47337
1.45771
1.44145
1.42446
1.40662
1.38796
2.41078
2.38449
2.35857
2.33301
2.30783
2.28301
2.25855
2.23445
2.21071
2.18733
2.1643
2.14161
2.11928
2.09728
2.07563
2.0543
2.0333
2.01263
1.99227
1.97222
1.95248
1.93304
1.91388
1.89501
1.87642
1.85809
1.84002
1.8222
1.80463
1.78729
1.77017
1.75327
1.73658
1.72008
1.70378
1.68765
1.67169
1.65589
1.64024
1.62473
1.60936
1.5941
1.57895
1.5639
1.54892
1.534
1.5191
1.50416
1.48904
1.47362
1.45774
1.44131
1.42423
1.40641
1.38794
2.41085
2.38459
2.3587
2.33318
2.30803
2.28324
2.25882
2.23476
2.21106
2.18771
2.16471
2.14207
2.11976
2.0978
2.07618
2.05488
2.03392
2.01327
1.99294
1.97292
1.9532
1.93378
1.91464
1.89579
1.87721
1.85889
1.84083
1.82303
1.80546
1.78812
1.77101
1.75411
1.73742
1.72092
1.70461
1.68847
1.67251
1.6567
1.64105
1.62553
1.61014
1.59487
1.5797
1.56462
1.54961
1.53464
1.51966
1.50458
1.48929
1.47366
1.45761
1.44105
1.42391
1.40615
1.38784
2.41094
2.38471
2.35885
2.33337
2.30825
2.2835
2.25911
2.23508
2.21141
2.1881
2.16513
2.14252
2.12025
2.09832
2.07672
2.05546
2.03452
2.0139
1.99359
1.97359
1.95389
1.93449
1.91537
1.89653
1.87796
1.85966
1.84161
1.8238
1.80624
1.7889
1.77179
1.75489
1.73819
1.72169
1.70537
1.68923
1.67326
1.65744
1.64177
1.62624
1.61083
1.59553
1.58034
1.56522
1.55017
1.53514
1.52006
1.50482
1.48935
1.47355
1.45735
1.4407
1.42352
1.40583
1.38767
2.41105
2.38485
2.35902
2.33357
2.30848
2.28376
2.2594
2.23541
2.21177
2.18849
2.16556
2.14297
2.12073
2.09883
2.07727
2.05603
2.03511
2.01451
1.99423
1.97425
1.95457
1.93518
1.91607
1.89724
1.87868
1.86038
1.84234
1.82454
1.80697
1.78964
1.77252
1.75561
1.73891
1.7224
1.70607
1.68992
1.67393
1.6581
1.64241
1.62686
1.61143
1.59611
1.58088
1.56573
1.55062
1.5355
1.52029
1.50489
1.48925
1.47331
1.457
1.44028
1.4231
1.40547
1.38745
2.41118
2.38501
2.35921
2.33378
2.30873
2.28404
2.25971
2.23575
2.21214
2.18889
2.16599
2.14343
2.12122
2.09934
2.0778
2.05659
2.03569
2.01511
1.99485
1.97488
1.95521
1.93584
1.91674
1.89792
1.87937
1.86107
1.84303
1.82523
1.80766
1.79032
1.7732
1.75628
1.73957
1.72305
1.70671
1.69054
1.67454
1.65869
1.64298
1.62741
1.61195
1.5966
1.58134
1.56614
1.55096
1.53572
1.52036
1.50482
1.48904
1.47298
1.45658
1.43981
1.42264
1.40508
1.3872
2.41132
2.38518
2.35941
2.33402
2.30899
2.28433
2.26003
2.2361
2.21252
2.18929
2.16642
2.14389
2.1217
2.09985
2.07833
2.05713
2.03626
2.0157
1.99545
1.9755
1.95584
1.93647
1.91738
1.89857
1.88001
1.86172
1.84368
1.82587
1.8083
1.79096
1.77382
1.7569
1.74018
1.72364
1.70729
1.6911
1.67508
1.65921
1.64348
1.62788
1.61239
1.59701
1.58171
1.56645
1.55117
1.5358
1.52031
1.50463
1.48873
1.47257
1.45611
1.4393
1.42215
1.40467
1.38691
2.41149
2.38537
2.35963
2.33426
2.30926
2.28463
2.26036
2.23645
2.2129
2.1897
2.16685
2.14435
2.12218
2.10035
2.07885
2.05767
2.03681
2.01627
1.99603
1.97609
1.95644
1.93708
1.91799
1.89918
1.88063
1.86234
1.84429
1.82648
1.8089
1.79155
1.77441
1.75747
1.74073
1.72418
1.70781
1.69161
1.67556
1.65967
1.64391
1.62829
1.61277
1.59735
1.58199
1.56665
1.55125
1.53577
1.52014
1.50435
1.48835
1.47211
1.4556
1.43878
1.42166
1.40425
1.3866
2.41167
2.38558
2.35986
2.33452
2.30955
2.28494
2.2607
2.23682
2.21329
2.19011
2.16729
2.1448
2.12266
2.10085
2.07936
2.0582
2.03736
2.01682
1.99659
1.97666
1.95702
1.93766
1.91858
1.89977
1.88121
1.86292
1.84486
1.82705
1.80946
1.79209
1.77494
1.75799
1.74124
1.72467
1.70828
1.69206
1.67599
1.66007
1.64429
1.62864
1.61309
1.59762
1.58219
1.56674
1.55123
1.53563
1.5199
1.50401
1.48792
1.47162
1.45506
1.43824
1.42115
1.40382
1.38627
2.41187
2.3858
2.36011
2.3348
2.30985
2.28527
2.26105
2.23719
2.21368
2.19053
2.16772
2.14526
2.12313
2.10134
2.07987
2.05872
2.03789
2.01736
1.99714
1.97721
1.95758
1.93822
1.91914
1.90032
1.88177
1.86346
1.8454
1.82758
1.80998
1.7926
1.77543
1.75847
1.7417
1.72511
1.7087
1.69246
1.67637
1.66043
1.64462
1.62893
1.61334
1.59781
1.58229
1.56674
1.55112
1.53541
1.51958
1.50361
1.48745
1.4711
1.45451
1.4377
1.42065
1.40339
1.38594
2.41208
2.38604
2.36038
2.33508
2.31016
2.2856
2.2614
2.23757
2.21408
2.19095
2.16816
2.14571
2.1236
2.10182
2.08036
2.05923
2.0384
2.01789
1.99767
1.97775
1.95811
1.93876
1.91967
1.90085
1.88229
1.86398
1.84591
1.82808
1.81047
1.79307
1.77589
1.75891
1.74212
1.72551
1.70908
1.69281
1.6767
1.66074
1.6449
1.62918
1.61353
1.59792
1.5823
1.56665
1.55093
1.53513
1.51921
1.50317
1.48695
1.47056
1.45396
1.43715
1.42015
1.40296
1.38561
2.41232
2.3863
2.36066
2.33539
2.31048
2.28595
2.26177
2.23795
2.21449
2.19137
2.1686
2.14617
2.12407
2.1023
2.08086
2.05973
2.03891
2.0184
1.99819
1.97827
1.95863
1.93927
1.92019
1.90136
1.88279
1.86447
1.84639
1.82855
1.81092
1.79351
1.77631
1.75932
1.74251
1.72588
1.70943
1.69314
1.677
1.66101
1.64514
1.62936
1.61365
1.59795
1.58223
1.56648
1.55068
1.53479
1.51881
1.50269
1.48643
1.47001
1.4534
1.43661
1.41965
1.40253
1.38527
2.41257
2.38657
2.36095
2.3357
2.31082
2.2863
2.26215
2.23835
2.2149
2.1918
2.16904
2.14662
2.12454
2.10278
2.08134
2.06022
2.03941
2.0189
1.99869
1.97877
1.95914
1.93977
1.92068
1.90185
1.88327
1.86494
1.84685
1.82899
1.81135
1.79393
1.77671
1.75969
1.74286
1.72622
1.70974
1.69343
1.67727
1.66125
1.64533
1.62949
1.61369
1.5979
1.5821
1.56626
1.55038
1.53442
1.51837
1.5022
1.4859
1.46945
1.45284
1.43608
1.41916
1.40211
1.38494
2.41284
2.38687
2.36126
2.33603
2.31117
2.28667
2.26253
2.23875
2.21532
2.19223
2.16949
2.14708
2.12501
2.10326
2.08183
2.06071
2.03991
2.0194
1.99919
1.97927
1.95963
1.94026
1.92116
1.90232
1.88373
1.86539
1.84729
1.82941
1.81176
1.79432
1.77708
1.76004
1.74319
1.72653
1.71003
1.6937
1.67751
1.66144
1.64547
1.62956
1.61367
1.5978
1.58191
1.566
1.55004
1.53402
1.51791
1.5017
1.48536
1.46889
1.45229
1.43555
1.41868
1.40169
1.38461
2.41313
2.38718
2.36159
2.33638