/*--------------------------------*- C++ -*----------------------------------*\
  =========                 |
  \\      /  F ield         | OpenFOAM: The Open Source CFD Toolbox
   \\    /   O peration     | Website:  https://openfoam.org
    \\  /    A nd           | Version:  10
     \\/     M anipulation  |
\*---------------------------------------------------------------------------*/
FoamFile
{
    format      ascii;
    class       volScalarField;
    location    "65000";
    object      Co;
}
// * * * * * * * * * * * * * * * * * * * * * * * * * * * * * * * * * * * * * //

dimensions      [0 0 0 0 0 0 0];

internalField   nonuniform List<scalar> 
17808
(
6982.1
6529.4
6328.08
6190.57
6085.35
6000.09
5928.28
5866.11
5811.2
5761.96
5717.27
5676.29
5638.42
5603.17
5570.17
5539.12
5509.77
5481.93
5455.42
5430.1
5405.85
5382.57
5360.18
5338.58
5317.71
5297.52
5277.96
5258.96
5240.5
5222.54
5205.03
5187.96
5171.29
5154.99
5139.05
5123.44
5108.15
5093.15
5078.42
5063.96
5049.75
5035.77
5022.02
5008.47
4995.13
4981.98
4969
4956.19
4943.55
4931.06
4918.72
4906.51
4894.44
4882.49
4870.66
4858.94
4847.32
4835.81
4824.39
4813.06
4801.82
4790.66
4779.57
4768.55
4757.59
4746.7
4735.87
4725.08
4714.35
4703.65
4693
4682.39
4671.8
4661.25
4650.72
4640.2
4629.71
4619.22
4608.75
4598.27
4587.8
4577.32
4566.83
4556.33
4545.81
4535.27
4524.71
4514.11
4503.47
4492.8
4482.07
4471.3
6767.96
6322.5
6125.32
5992.58
5892.38
5811.88
5744.38
5686.05
5634.52
5588.23
5546.11
5507.39
5471.51
5438.03
5406.61
5376.99
5348.93
5322.27
5296.84
5272.52
5249.21
5226.8
5205.22
5184.4
5164.26
5144.77
5125.86
5107.5
5089.65
5072.26
5055.32
5038.79
5022.64
5006.85
4991.4
4976.27
4961.44
4946.89
4932.6
4918.57
4904.78
4891.22
4877.87
4864.72
4851.76
4838.99
4826.39
4813.95
4801.67
4789.54
4777.55
4765.69
4753.96
4742.36
4730.86
4719.47
4708.19
4697.01
4685.91
4674.91
4663.98
4653.13
4642.36
4631.65
4621.01
4610.43
4599.9
4589.42
4578.99
4568.6
4558.25
4547.94
4537.65
4527.4
4517.17
4506.95
4496.75
4486.57
4476.39
4466.21
4456.04
4445.86
4435.67
4425.47
4415.25
4405.01
4394.75
4384.45
4374.12
4363.75
4353.33
4342.86
6571.73
6138.8
5946.39
5816.3
5718.09
5639.31
5573.49
5516.85
5467
5422.36
5381.85
5344.67
5310.24
5278.14
5248.02
5219.61
5192.7
5167.1
5142.68
5119.31
5096.88
5075.31
5054.52
5034.45
5015.03
4996.22
4977.97
4960.23
4942.97
4926.16
4909.77
4893.78
4878.14
4862.85
4847.89
4833.22
4818.85
4804.75
4790.9
4777.29
4763.91
4750.75
4737.8
4725.04
4712.46
4700.06
4687.83
4675.76
4663.83
4652.05
4640.41
4628.89
4617.5
4606.23
4595.06
4584
4573.04
4562.17
4551.4
4540.7
4530.09
4519.55
4509.08
4498.68
4488.34
4478.06
4467.83
4457.65
4447.51
4437.42
4427.37
4417.35
4407.35
4397.39
4387.45
4377.53
4367.62
4357.72
4347.83
4337.95
4328.06
4318.17
4308.28
4298.37
4288.44
4278.49
4268.52
4258.52
4248.48
4238.41
4228.29
4218.12
6381.1
5960.3
5773.26
5646.84
5551.35
5474.66
5410.57
5355.41
5306.9
5263.52
5224.19
5188.16
5154.84
5123.81
5094.71
5067.3
5041.34
5016.66
4993.11
4970.58
4948.96
4928.17
4908.12
4888.75
4870.02
4851.86
4834.23
4817.09
4800.41
4784.17
4768.31
4752.84
4737.71
4722.91
4708.41
4694.21
4680.29
4666.62
4653.2
4640.01
4627.03
4614.27
4601.7
4589.32
4577.12
4565.09
4553.22
4541.5
4529.92
4518.49
4507.18
4496
4484.94
4473.99
4463.14
4452.4
4441.76
4431.2
4420.73
4410.34
4400.03
4389.8
4379.63
4369.52
4359.47
4349.48
4339.55
4329.66
4319.81
4310
4300.24
4290.5
4280.8
4271.11
4261.46
4251.82
4242.19
4232.58
4222.97
4213.37
4203.76
4194.16
4184.54
4174.91
4165.27
4155.61
4145.92
4136.2
4126.45
4116.67
4106.84
4096.96
6196.41
5787.22
5605.02
5482.04
5389.19
5314.68
5252.44
5198.9
5151.84
5109.76
5071.64
5036.72
5004.45
4974.41
4946.26
4919.74
4894.65
4870.8
4848.05
4826.29
4805.41
4785.33
4765.96
4747.26
4729.16
4711.62
4694.58
4678.02
4661.9
4646.19
4630.86
4615.88
4601.24
4586.92
4572.89
4559.13
4545.64
4532.4
4519.4
4506.61
4494.04
4481.66
4469.47
4457.47
4445.63
4433.96
4422.44
4411.06
4399.83
4388.73
4377.75
4366.9
4356.16
4345.52
4335
4324.56
4314.22
4303.97
4293.8
4283.72
4273.7
4263.76
4253.88
4244.06
4234.3
4224.6
4214.94
4205.33
4195.77
4186.24
4176.75
4167.3
4157.87
4148.46
4139.08
4129.71
4120.36
4111.02
4101.69
4092.36
4083.03
4073.7
4064.36
4055
4045.64
4036.25
4026.84
4017.4
4007.93
3998.42
3988.87
3979.28
6017.56
5619.96
5442.61
5322.94
5232.56
5160.06
5099.53
5047.48
5001.76
4960.9
4923.9
4890.04
4858.75
4829.64
4802.38
4776.71
4752.42
4729.35
4707.34
4686.29
4666.1
4646.69
4627.97
4609.89
4592.39
4575.42
4558.95
4542.94
4527.34
4512.15
4497.31
4482.82
4468.66
4454.79
4441.2
4427.89
4414.82
4402
4389.39
4377
4364.82
4352.82
4341
4329.36
4317.88
4306.56
4295.38
4284.34
4273.44
4262.67
4252.02
4241.48
4231.05
4220.73
4210.51
4200.38
4190.34
4180.38
4170.51
4160.71
4150.98
4141.33
4131.73
4122.2
4112.72
4103.29
4093.91
4084.58
4075.29
4066.03
4056.81
4047.63
4038.46
4029.33
4020.21
4011.11
4002.03
3992.96
3983.89
3974.83
3965.76
3956.7
3947.62
3938.54
3929.44
3920.32
3911.18
3902.01
3892.81
3883.57
3874.3
3864.98
5844.12
5457.89
5285.45
5169.1
5081.19
5010.67
4951.77
4901.15
4856.68
4816.95
4780.99
4748.09
4717.71
4689.46
4663.01
4638.11
4614.56
4592.2
4570.89
4550.5
4530.95
4512.15
4494.04
4476.54
4459.6
4443.19
4427.25
4411.75
4396.66
4381.95
4367.6
4353.57
4339.86
4326.43
4313.28
4300.38
4287.73
4275.3
4263.09
4251.08
4239.27
4227.64
4216.19
4204.9
4193.77
4182.78
4171.94
4161.24
4150.66
4140.21
4129.87
4119.64
4109.52
4099.5
4089.58
4079.74
4070
4060.33
4050.74
4041.23
4031.78
4022.4
4013.08
4003.82
3994.61
3985.46
3976.35
3967.28
3958.26
3949.27
3940.31
3931.39
3922.49
3913.61
3904.76
3895.92
3887.1
3878.28
3869.47
3860.67
3851.86
3843.06
3834.24
3825.42
3816.58
3807.72
3798.84
3789.93
3780.99
3772.02
3763.01
3753.96
5675.8
5300.63
5133.01
5019.93
4934.45
4865.89
4808.63
4759.4
4716.16
4677.53
4642.58
4610.6
4581.08
4553.63
4527.95
4503.78
4480.93
4459.23
4438.56
4418.79
4399.84
4381.63
4364.07
4347.12
4330.72
4314.82
4299.38
4284.38
4269.77
4255.52
4241.62
4228.04
4214.76
4201.76
4189.02
4176.52
4164.26
4152.23
4140.39
4128.76
4117.31
4106.04
4094.93
4083.99
4073.19
4062.54
4052.03
4041.64
4031.38
4021.24
4011.21
4001.29
3991.46
3981.74
3972.1
3962.56
3953.1
3943.71
3934.4
3925.16
3915.99
3906.88
3897.83
3888.84
3879.9
3871
3862.15
3853.35
3844.58
3835.85
3827.15
3818.48
3809.84
3801.22
3792.62
3784.03
3775.46
3766.9
3758.34
3749.79
3741.23
3732.68
3724.12
3715.54
3706.95
3698.35
3689.72
3681.07
3672.39
3663.67
3654.92
3646.13
5512.39
5147.98
4985.08
4875.17
4792.09
4725.44
4669.78
4621.92
4579.88
4542.34
4508.36
4477.28
4448.6
4421.93
4396.98
4373.51
4351.32
4330.26
4310.2
4291.02
4272.64
4254.97
4237.95
4221.51
4205.62
4190.21
4175.25
4160.71
4146.55
4132.75
4119.29
4106.13
4093.26
4080.66
4068.32
4056.22
4044.34
4032.67
4021.21
4009.93
3998.83
3987.91
3977.14
3966.53
3956.06
3945.73
3935.53
3925.46
3915.51
3905.67
3895.94
3886.31
3876.78
3867.34
3857.99
3848.72
3839.54
3830.43
3821.39
3812.42
3803.51
3794.67
3785.88
3777.15
3768.46
3759.83
3751.23
3742.68
3734.17
3725.69
3717.24
3708.82
3700.42
3692.05
3683.69
3675.35
3667.02
3658.71
3650.4
3642.09
3633.78
3625.47
3617.15
3608.82
3600.48
3592.12
3583.74
3575.34
3566.9
3558.44
3549.93
3541.39
5353.75
4999.78
4841.5
4734.69
4653.94
4589.17
4535.06
4488.55
4447.69
4411.19
4378.17
4347.96
4320.09
4294.18
4269.94
4247.14
4225.59
4205.14
4185.66
4167.05
4149.21
4132.07
4115.55
4099.61
4084.19
4069.25
4054.75
4040.65
4026.93
4013.55
4000.5
3987.74
3975.27
3963.06
3951.1
3939.37
3927.86
3916.55
3905.44
3894.51
3883.75
3873.16
3862.72
3852.43
3842.28
3832.26
3822.37
3812.6
3802.95
3793.4
3783.96
3774.62
3765.37
3756.21
3747.14
3738.14
3729.23
3720.39
3711.61
3702.9
3694.26
3685.67
3677.14
3668.66
3660.22
3651.84
3643.49
3635.19
3626.92
3618.68
3610.47
3602.3
3594.14
3586.01
3577.89
3569.79
3561.7
3553.62
3545.55
3537.48
3529.41
3521.34
3513.26
3505.17
3497.06
3488.94
3480.8
3472.64
3464.45
3456.22
3447.96
3439.66
5199.72
4855.92
4702.14
4598.34
4519.87
4456.93
4404.34
4359.14
4319.42
4283.95
4251.86
4222.5
4195.42
4170.24
4146.69
4124.53
4103.6
4083.74
4064.83
4046.75
4029.43
4012.79
3996.76
3981.29
3966.33
3951.83
3937.77
3924.09
3910.78
3897.81
3885.16
3872.79
3860.7
3848.86
3837.27
3825.89
3814.73
3803.77
3792.99
3782.4
3771.97
3761.7
3751.57
3741.6
3731.75
3722.04
3712.45
3702.97
3693.61
3684.35
3675.19
3666.12
3657.15
3648.26
3639.46
3630.73
3622.08
3613.49
3604.98
3596.52
3588.13
3579.79
3571.51
3563.27
3555.08
3546.94
3538.84
3530.77
3522.74
3514.74
3506.77
3498.83
3490.91
3483.01
3475.12
3467.26
3459.4
3451.55
3443.71
3435.87
3428.03
3420.19
3412.34
3404.48
3396.61
3388.73
3380.82
3372.89
3364.93
3356.94
3348.92
3340.86
5050.15
4716.22
4566.83
4465.98
4389.73
4328.56
4277.47
4233.54
4194.94
4160.47
4129.28
4100.75
4074.43
4049.96
4027.08
4005.56
3985.22
3965.93
3947.55
3930
3913.18
3897.02
3881.46
3866.44
3851.92
3837.85
3824.2
3810.94
3798.02
3785.44
3773.16
3761.17
3749.44
3737.96
3726.72
3715.69
3704.87
3694.23
3683.79
3673.51
3663.4
3653.44
3643.62
3633.94
3624.4
3614.98
3605.67
3596.48
3587.4
3578.41
3569.53
3560.73
3552.03
3543.4
3534.86
3526.39
3517.99
3509.66
3501.39
3493.19
3485.04
3476.94
3468.9
3460.91
3452.96
3445.05
3437.18
3429.35
3421.55
3413.78
3406.04
3398.33
3390.64
3382.96
3375.31
3367.66
3360.03
3352.41
3344.8
3337.18
3329.57
3321.95
3314.33
3306.69
3299.05
3291.39
3283.7
3276
3268.27
3260.51
3252.72
3244.89
4904.91
4580.57
4435.45
4337.46
4263.37
4203.95
4154.3
4111.61
4074.11
4040.61
4010.3
3982.58
3957
3933.23
3910.99
3890.08
3870.32
3851.58
3833.73
3816.68
3800.34
3784.65
3769.54
3754.96
3740.86
3727.21
3713.96
3701.08
3688.55
3676.34
3664.43
3652.79
3641.41
3630.28
3619.37
3608.67
3598.17
3587.86
3577.73
3567.76
3557.95
3548.29
3538.77
3529.38
3520.12
3510.98
3501.96
3493.04
3484.23
3475.52
3466.9
3458.36
3449.91
3441.55
3433.25
3425.03
3416.88
3408.8
3400.77
3392.81
3384.9
3377.04
3369.24
3361.47
3353.76
3346.08
3338.44
3330.83
3323.26
3315.72
3308.2
3300.71
3293.24
3285.79
3278.35
3270.93
3263.52
3256.12
3248.72
3241.32
3233.93
3226.53
3219.12
3211.71
3204.28
3196.84
3189.38
3181.9
3174.39
3166.85
3159.28
3151.68
4763.86
4448.85
4307.88
4212.67
4140.7
4082.95
4034.72
3993.24
3956.8
3924.25
3894.8
3867.86
3843.01
3819.91
3798.3
3777.99
3758.79
3740.58
3723.24
3706.68
3690.81
3675.57
3660.9
3646.74
3633.05
3619.79
3606.92
3594.42
3582.26
3570.41
3558.85
3547.55
3536.51
3525.71
3515.12
3504.74
3494.56
3484.55
3474.72
3465.05
3455.54
3446.17
3436.93
3427.83
3418.84
3409.98
3401.22
3392.57
3384.02
3375.57
3367.2
3358.92
3350.73
3342.61
3334.56
3326.58
3318.67
3310.83
3303.04
3295.31
3287.63
3280
3272.43
3264.89
3257.4
3249.94
3242.53
3235.14
3227.79
3220.46
3213.16
3205.89
3198.64
3191.4
3184.18
3176.97
3169.77
3162.58
3155.4
3148.21
3141.03
3133.84
3126.65
3119.45
3112.24
3105.01
3097.76
3090.49
3083.2
3075.88
3068.53
3061.14
4626.89
4320.93
4184.01
4091.51
4021.58
3965.48
3918.61
3878.31
3842.91
3811.28
3782.66
3756.49
3732.34
3709.9
3688.9
3669.17
3650.52
3632.82
3615.98
3599.89
3584.48
3569.67
3555.42
3541.67
3528.37
3515.5
3503.01
3490.87
3479.06
3467.55
3456.33
3445.37
3434.65
3424.17
3413.89
3403.82
3393.94
3384.23
3374.69
3365.31
3356.08
3346.98
3338.02
3329.19
3320.48
3311.87
3303.38
3294.99
3286.69
3278.49
3270.37
3262.34
3254.39
3246.51
3238.7
3230.96
3223.28
3215.66
3208.11
3200.6
3193.15
3185.75
3178.39
3171.07
3163.8
3156.56
3149.36
3142.19
3135.05
3127.94
3120.85
3113.79
3106.74
3099.72
3092.7
3085.7
3078.71
3071.73
3064.75
3057.78
3050.8
3043.82
3036.83
3029.84
3022.83
3015.81
3008.77
3001.71
2994.63
2987.52
2980.38
2973.2
4493.87
4196.7
4063.7
3973.84
3905.9
3851.4
3805.87
3766.72
3732.32
3701.59
3673.79
3648.36
3624.9
3603.09
3582.69
3563.51
3545.4
3528.21
3511.84
3496.21
3481.24
3466.86
3453.01
3439.66
3426.75
3414.24
3402.11
3390.33
3378.86
3367.69
3356.79
3346.15
3335.75
3325.57
3315.59
3305.82
3296.23
3286.81
3277.55
3268.44
3259.48
3250.66
3241.97
3233.39
3224.94
3216.59
3208.35
3200.21
3192.16
3184.2
3176.32
3168.53
3160.81
3153.16
3145.58
3138.07
3130.62
3123.23
3115.89
3108.61
3101.38
3094.19
3087.05
3079.95
3072.89
3065.86
3058.87
3051.91
3044.98
3038.07
3031.19
3024.33
3017.49
3010.66
3003.85
2997.06
2990.27
2983.49
2976.71
2969.93
2963.16
2956.38
2949.59
2942.8
2935.99
2929.17
2922.34
2915.48
2908.6
2901.69
2894.76
2887.79
4364.69
4076.06
3946.88
3859.58
3793.58
3740.63
3696.39
3658.36
3624.94
3595.09
3568.07
3543.37
3520.57
3499.38
3479.57
3460.93
3443.33
3426.63
3410.74
3395.55
3381.01
3367.04
3353.59
3340.61
3328.07
3315.93
3304.15
3292.7
3281.56
3270.72
3260.14
3249.8
3239.7
3229.82
3220.14
3210.65
3201.34
3192.2
3183.21
3174.37
3165.68
3157.11
3148.68
3140.36
3132.15
3124.05
3116.05
3108.15
3100.34
3092.61
3084.97
3077.41
3069.92
3062.49
3055.14
3047.85
3040.62
3033.45
3026.33
3019.26
3012.23
3005.26
2998.33
2991.43
2984.58
2977.76
2970.97
2964.21
2957.48
2950.78
2944.1
2937.43
2930.79
2924.17
2917.55
2910.95
2904.36
2897.77
2891.19
2884.61
2878.03
2871.45
2864.86
2858.26
2851.65
2845.02
2838.38
2831.72
4239.22
3958.89
3833.42
3748.61
3684.49
3633.06
3590.08
3553.13
3520.66
3491.66
3465.42
3441.42
3419.27
3398.68
3379.43
3361.33
3344.23
3328.01
3312.56
3297.81
3283.68
3270.11
3257.05
3244.44
3232.26
3220.46
3209.02
3197.91
3187.09
3176.56
3166.28
3156.25
3146.44
3136.85
3127.45
3118.23
3109.19
3100.32
3091.59
3083.02
3074.58
3066.26
3058.07
3050
3042.04
3034.17
3026.41
3018.74
3011.16
3003.66
2996.25
2988.9
2981.63
2974.43
2967.29
2960.22
2953.2
2946.24
2939.33
2932.47
2925.65
2918.88
2912.15
2905.46
2898.8
2892.18
2885.59
2879.03
2872.5
2865.99
2859.5
2853.03
2846.58
2840.15
2833.73
2827.32
2820.91
2814.52
2808.13
2801.74
2795.34
2788.95
2782.55
2776.14
2769.72
2763.29
2756.84
2750.37
4117.37
3845.1
3723.23
3640.85
3578.56
3528.59
3486.84
3450.94
3419.4
3391.23
3365.73
3342.42
3320.9
3300.9
3282.2
3264.61
3248
3232.24
3217.23
3202.9
3189.18
3175.99
3163.3
3151.06
3139.23
3127.77
3116.66
3105.86
3095.36
3085.13
3075.15
3065.4
3055.88
3046.56
3037.44
3028.49
3019.71
3011.09
3002.63
2994.3
2986.1
2978.03
2970.08
2962.25
2954.52
2946.89
2939.35
2931.91
2924.55
2917.27
2910.07
2902.95
2895.89
2888.9
2881.97
2875.1
2868.29
2861.53
2854.83
2848.17
2841.55
2834.98
2828.44
2821.95
2815.49
2809.06
2802.66
2796.29
2789.95
2783.63
2777.33
2771.05
2764.79
2758.54
2752.3
2746.08
2739.86
2733.65
2727.44
2721.24
2715.03
2708.82
2702.61
2696.38
2690.15
2683.9
2677.64
2671.35
3999.03
3734.59
3616.21
3536.19
3475.68
3427.14
3386.58
3351.71
3321.07
3293.7
3268.93
3246.28
3225.38
3205.95
3187.78
3170.69
3154.55
3139.24
3124.67
3110.74
3097.41
3084.6
3072.28
3060.38
3048.89
3037.76
3026.96
3016.48
3006.28
2996.34
2986.65
2977.19
2967.94
2958.89
2950.03
2941.34
2932.82
2924.45
2916.22
2908.14
2900.18
2892.35
2884.63
2877.02
2869.52
2862.11
2854.8
2847.57
2840.43
2833.36
2826.38
2819.46
2812.61
2805.82
2799.1
2792.43
2785.82
2779.26
2772.75
2766.28
2759.86
2753.48
2747.14
2740.83
2734.56
2728.32
2722.11
2715.93
2709.77
2703.63
2697.52
2691.42
2685.34
2679.27
2673.22
2667.17
2661.14
2655.11
2649.08
2643.05
2637.02
2630.99
2624.96
2618.91
2612.86
3884.1
3627.26
3512.28
3434.55
3375.77
3328.61
3289.22
3255.34
3225.57
3198.99
3174.92
3152.92
3132.61
3113.74
3096.09
3079.49
3063.81
3048.93
3034.78
3021.25
3008.3
2995.86
2983.88
2972.33
2961.16
2950.35
2939.87
2929.68
2919.77
2910.12
2900.71
2891.52
2882.54
2873.75
2865.14
2856.7
2848.43
2840.3
2832.32
2824.47
2816.74
2809.14
2801.64
2794.26
2786.97
2779.78
2772.68
2765.66
2758.73
2751.87
2745.09
2738.37
2731.72
2725.14
2718.61
2712.14
2705.72
2699.35
2693.03
2686.76
2680.52
2674.33
2668.17
2662.05
2655.96
2649.9
2643.87
2637.87
2631.89
2625.93
2619.99
2614.07
2608.17
2602.28
2596.4
2590.53
2584.67
2578.81
2572.96
2567.11
2561.26
2555.4
2549.54
2543.67
2537.78
3772.47
3523.01
3411.34
3335.83
3278.74
3232.93
3194.66
3161.74
3132.83
3107
3083.63
3062.25
3042.53
3024.19
3007.04
2990.92
2975.69
2961.24
2947.48
2934.34
2921.76
2909.67
2898.04
2886.82
2875.97
2865.47
2855.29
2845.39
2835.77
2826.39
2817.25
2808.32
2799.6
2791.07
2782.71
2774.51
2766.48
2758.59
2750.83
2743.21
2735.71
2728.32
2721.05
2713.87
2706.8
2699.82
2692.92
2686.11
2679.38
2672.72
2666.14
2659.62
2653.16
2646.77
2640.43
2634.15
2627.92
2621.74
2615.6
2609.51
2603.46
2597.45
2591.47
2585.53
2579.61
2573.73
2567.88
2562.05
2556.25
2550.46
2544.7
2538.95
2533.22
2527.5
2521.79
2516.09
2510.4
2504.71
2499.03
2493.34
2487.66
2481.97
2476.28
2470.58
2464.87
3664.06
3421.77
3313.3
3239.96
3184.5
3140
3102.82
3070.85
3042.76
3017.67
2994.97
2974.2
2955.04
2937.23
2920.57
2904.91
2890.11
2876.07
2862.71
2849.95
2837.72
2825.98
2814.68
2803.78
2793.25
2783.04
2773.15
2763.54
2754.19
2745.08
2736.2
2727.53
2719.06
2710.77
2702.65
2694.7
2686.89
2679.23
2671.7
2664.29
2657.01
2649.84
2642.77
2635.81
2628.94
2622.16
2615.47
2608.85
2602.32
2595.85
2589.46
2583.13
2576.87
2570.66
2564.51
2558.41
2552.36
2546.36
2540.4
2534.48
2528.61
2522.77
2516.97
2511.2
2505.46
2499.75
2494.07
2488.41
2482.77
2477.16
2471.56
2465.98
2460.41
2454.86
2449.32
2443.78
2438.26
2432.73
2427.21
2421.7
2416.18
2410.65
2405.12
2399.59
2394.04
3558.76
3323.44
3218.09
3146.85
3092.97
3049.75
3013.63
2982.58
2955.29
2930.92
2908.86
2888.69
2870.07
2852.77
2836.59
2821.37
2807
2793.36
2780.38
2767.99
2756.11
2744.71
2733.73
2723.14
2712.91
2703
2693.38
2684.05
2674.97
2666.12
2657.5
2649.08
2640.85
2632.8
2624.91
2617.18
2609.6
2602.16
2594.85
2587.66
2580.58
2573.62
2566.76
2559.99
2553.32
2546.74
2540.24
2533.82
2527.47
2521.2
2514.99
2508.84
2502.76
2496.73
2490.76
2484.84
2478.97
2473.14
2467.36
2461.61
2455.91
2450.24
2444.61
2439.01
2433.44
2427.89
2422.37
2416.88
2411.41
2405.96
2400.52
2395.1
2389.7
2384.31
2378.92
2373.55
2368.18
2362.82
2357.46
2352.1
2346.74
2341.38
2336.01
2330.63
2325.25
3456.49
3227.94
3125.61
3056.42
3004.08
2962.09
2927.01
2896.84
2870.34
2846.66
2825.24
2805.64
2787.56
2770.75
2755.03
2740.25
2726.29
2713.04
2700.43
2688.39
2676.85
2665.77
2655.11
2644.83
2634.88
2625.26
2615.92
2606.85
2598.03
2589.44
2581.06
2572.88
2564.89
2557.07
2549.41
2541.9
2534.54
2527.31
2520.21
2513.23
2506.36
2499.59
2492.93
2486.36
2479.89
2473.49
2467.18
2460.95
2454.78
2448.69
2442.66
2436.7
2430.79
2424.94
2419.14
2413.39
2407.69
2402.03
2396.41
2390.84
2385.3
2379.8
2374.33
2368.89
2363.48
2358.1
2352.74
2347.41
2342.09
2336.8
2331.52
2326.26
2321.01
2315.78
2310.55
2305.33
2300.12
2294.92
2289.71
2284.51
2279.3
2274.1
2268.88
2263.66
2258.43
3357.16
3135.18
3035.8
2968.59
2917.75
2876.96
2842.88
2813.58
2787.83
2764.83
2744.02
2724.98
2707.42
2691.09
2675.82
2661.47
2647.9
2635.03
2622.79
2611.09
2599.88
2589.12
2578.76
2568.77
2559.11
2549.76
2540.69
2531.88
2523.31
2514.97
2506.83
2498.89
2491.12
2483.53
2476.09
2468.8
2461.65
2454.62
2447.73
2440.94
2434.27
2427.7
2421.23
2414.86
2408.56
2402.36
2396.23
2390.17
2384.19
2378.27
2372.42
2366.62
2360.89
2355.2
2349.57
2343.99
2338.45
2332.96
2327.51
2322.1
2316.72
2311.38
2306.07
2300.79
2295.53
2290.31
2285.11
2279.93
2274.77
2269.63
2264.5
2259.4
2254.3
2249.22
2244.14
2239.08
2234.02
2228.96
2223.91
2218.85
2213.8
2208.74
2203.68
2198.61
2193.52
3260.69
3045.09
2948.57
2883.28
2833.9
2794.28
2761.18
2732.71
2707.7
2685.36
2665.14
2646.65
2629.59
2613.73
2598.9
2584.95
2571.78
2559.28
2547.38
2536.01
2525.13
2514.67
2504.61
2494.91
2485.52
2476.44
2467.63
2459.08
2450.75
2442.65
2434.74
2427.02
2419.48
2412.1
2404.88
2397.8
2390.85
2384.03
2377.33
2370.75
2364.27
2357.89
2351.6
2345.41
2339.3
2333.27
2327.32
2321.44
2315.62
2309.88
2304.19
2298.57
2293
2287.48
2282.01
2276.59
2271.21
2265.88
2260.59
2255.33
2250.11
2244.92
2239.77
2234.64
2229.54
2224.46
2219.41
2214.38
2209.38
2204.38
2199.41
2194.45
2189.5
2184.57
2179.64
2174.72
2169.81
2164.9
2159.99
2155.08
2150.17
2145.26
2140.35
2135.42
2130.49
3166.99
2957.6
2863.84
2800.43
2752.47
2713.98
2681.82
2654.17
2629.88
2608.18
2588.54
2570.58
2554
2538.6
2524.19
2510.64
2497.84
2485.7
2474.14
2463.1
2452.53
2442.37
2432.6
2423.17
2414.06
2405.24
2396.68
2388.37
2380.28
2372.41
2364.73
2357.23
2349.91
2342.74
2335.72
2328.84
2322.1
2315.47
2308.97
2302.57
2296.27
2290.08
2283.98
2277.96
2272.03
2266.17
2260.39
2254.68
2249.04
2243.45
2237.93
2232.47
2227.06
2221.7
2216.39
2211.13
2205.91
2200.73
2195.59
2190.48
2185.42
2180.38
2175.37
2170.39
2165.44
2160.51
2155.61
2150.73
2145.86
2141.02
2136.19
2131.37
2126.57
2121.77
2116.99
2112.21
2107.44
2102.67
2097.91
2093.14
2088.38
2083.61
2078.83
2074.05
2069.26
3075.99
2872.61
2781.56
2719.97
2673.38
2635.99
2604.75
2577.89
2554.29
2533.22
2514.14
2496.69
2480.59
2465.63
2451.63
2438.47
2426.04
2414.24
2403.01
2392.29
2382.02
2372.16
2362.66
2353.5
2344.65
2336.08
2327.77
2319.69
2311.84
2304.19
2296.73
2289.45
2282.34
2275.38
2268.56
2261.88
2255.32
2248.89
2242.57
2236.36
2230.24
2224.23
2218.3
2212.45
2206.69
2201
2195.39
2189.84
2184.36
2178.94
2173.58
2168.28
2163.02
2157.82
2152.66
2147.55
2142.48
2137.45
2132.46
2127.5
2122.58
2117.69
2112.83
2107.99
2103.19
2098.4
2093.64
2088.9
2084.17
2079.47
2074.78
2070.1
2065.44
2060.78
2056.14
2051.5
2046.87
2042.24
2037.61
2032.98
2028.35
2023.72
2019.08
2014.44
2009.79
2987.6
2790.07
2701.63
2641.81
2596.56
2560.24
2529.9
2503.81
2480.89
2460.41
2441.88
2424.93
2409.29
2394.76
2381.16
2368.38
2356.3
2344.84
2333.94
2323.52
2313.54
2303.96
2294.74
2285.84
2277.24
2268.92
2260.84
2253
2245.37
2237.94
2230.7
2223.62
2216.71
2209.95
2203.33
2196.84
2190.47
2184.23
2178.09
2172.05
2166.11
2160.27
2154.51
2148.83
2143.24
2137.71
2132.26
2126.88
2121.55
2116.29
2111.08
2105.93
2100.83
2095.77
2090.77
2085.8
2080.88
2075.99
2071.15
2066.33
2061.55
2056.8
2052.08
2047.39
2042.72
2038.07
2033.45
2028.84
2024.26
2019.69
2015.13
2010.59
2006.06
2001.54
1997.03
1992.53
1988.03
1983.53
1979.04
1974.55
1970.05
1965.55
1961.05
1956.54
1952.02
2901.75
2709.91
2624.01
2565.91
2521.95
2486.67
2457.2
2431.86
2409.59
2389.7
2371.7
2355.23
2340.04
2325.92
2312.72
2300.3
2288.57
2277.44
2266.85
2256.73
2247.04
2237.73
2228.77
2220.13
2211.78
2203.69
2195.85
2188.23
2180.82
2173.6
2166.56
2159.69
2152.98
2146.41
2139.98
2133.68
2127.49
2121.42
2115.46
2109.6
2103.83
2098.15
2092.56
2087.05
2081.61
2076.25
2070.95
2065.72
2060.55
2055.44
2050.38
2045.38
2040.42
2035.51
2030.65
2025.83
2021.05
2016.3
2011.6
2006.92
2002.28
1997.67
1993.08
1988.52
1983.99
1979.48
1974.99
1970.52
1966.06
1961.63
1957.2
1952.79
1948.39
1944.01
1939.63
1935.25
1930.88
1926.52
1922.15
1917.79
1913.43
1909.06
1904.68
1900.3
1895.92
2818.38
2632.05
2548.62
2492.18
2449.49
2415.22
2386.59
2361.97
2340.34
2321.02
2303.54
2287.54
2272.79
2259.07
2246.25
2234.18
2222.79
2211.98
2201.69
2191.86
2182.45
2173.4
2164.7
2156.31
2148.19
2140.34
2132.72
2125.32
2118.12
2111.11
2104.28
2097.6
2091.08
2084.7
2078.45
2072.33
2066.32
2060.43
2054.64
2048.94
2043.34
2037.83
2032.39
2027.04
2021.76
2016.55
2011.4
2006.32
2001.3
1996.34
1991.43
1986.57
1981.75
1976.99
1972.26
1967.58
1962.94
1958.33
1953.76
1949.22
1944.71
1940.23
1935.78
1931.35
1926.95
1922.57
1918.21
1913.87
1909.54
1905.23
1900.94
1896.65
1892.38
1888.12
1883.87
1879.62
1875.38
1871.14
1866.9
1862.66
1858.42
1854.18
1849.93
1845.68
1841.42
2737.39
2556.42
2475.39
2420.58
2379.11
2345.82
2318.02
2294.1
2273.09
2254.32
2237.34
2221.8
2207.47
2194.15
2181.69
2169.97
2158.9
2148.4
2138.4
2128.86
2119.71
2110.93
2102.48
2094.32
2086.44
2078.81
2071.41
2064.22
2057.23
2050.42
2043.78
2037.3
2030.96
2024.77
2018.7
2012.75
2006.92
2001.19
1995.56
1990.03
1984.59
1979.24
1973.96
1968.76
1963.63
1958.57
1953.57
1948.64
1943.76
1938.94
1934.17
1929.45
1924.77
1920.14
1915.56
1911.01
1906.5
1902.03
1897.59
1893.18
1888.8
1884.45
1880.13
1875.83
1871.55
1867.29
1863.06
1858.84
1854.64
1850.46
1846.29
1842.13
1837.98
1833.84
1829.71
1825.59
1821.47
1817.35
1813.23
1809.12
1805
1800.88
1796.76
1792.63
1788.49
2658.74
2482.97
2404.27
2351.03
2310.75
2278.42
2251.41
2228.18
2207.77
2189.54
2173.04
2157.95
2144.03
2131.09
2118.98
2107.6
2096.85
2086.65
2076.94
2067.67
2058.79
2050.26
2042.04
2034.12
2026.47
2019.06
2011.87
2004.88
1998.09
1991.48
1985.03
1978.73
1972.58
1966.56
1960.66
1954.89
1949.22
1943.66
1938.19
1932.82
1927.53
1922.33
1917.21
1912.16
1907.17
1902.26
1897.4
1892.61
1887.87
1883.19
1878.56
1873.97
1869.43
1864.94
1860.48
1856.07
1851.69
1847.34
1843.03
1838.75
1834.49
1830.27
1826.07
1821.89
1817.74
1813.61
1809.5
1805.4
1801.32
1797.26
1793.21
1789.17
1785.14
1781.12
1777.11
1773.1
1769.1
1765.11
1761.11
1757.11
1753.12
1749.11
1745.11
1741.1
1737.08
2582.34
2411.64
2335.2
2283.49
2244.36
2212.96
2186.72
2164.15
2144.33
2126.62
2110.59
2095.94
2082.41
2069.84
2058.09
2047.03
2036.59
2026.68
2017.25
2008.24
1999.61
1991.33
1983.35
1975.65
1968.22
1961.02
1954.04
1947.25
1940.66
1934.23
1927.97
1921.85
1915.87
1910.02
1904.3
1898.69
1893.18
1887.78
1882.47
1877.25
1872.12
1867.07
1862.09
1857.18
1852.34
1847.57
1842.85
1838.2
1833.6
1829.05
1824.55
1820.09
1815.68
1811.32
1806.99
1802.7
1798.45
1794.23
1790.04
1785.88
1781.75
1777.65
1773.57
1769.51
1765.48
1761.47
1757.47
1753.5
1749.54
1745.59
1741.65
1737.73
1733.82
1729.92
1726.02
1722.13
1718.25
1714.36
1710.48
1706.6
1702.72
1698.83
1694.94
1691.05
1687.14
2508.14
2342.35
2268.11
2217.88
2179.88
2149.38
2123.9
2101.98
2082.72
2065.52
2049.95
2035.71
2022.57
2010.36
1998.94
1988.2
1978.06
1968.43
1959.27
1950.52
1942.14
1934.09
1926.34
1918.87
1911.65
1904.65
1897.87
1891.28
1884.87
1878.63
1872.55
1866.6
1860.8
1855.12
1849.56
1844.11
1838.76
1833.51
1828.35
1823.28
1818.3
1813.39
1808.55
1803.79
1799.09
1794.45
1789.87
1785.35
1780.88
1776.46
1772.09
1767.77
1763.48
1759.24
1755.04
1750.87
1746.74
1742.64
1738.57
1734.53
1730.52
1726.54
1722.58
1718.64
1714.72
1710.82
1706.95
1703.08
1699.24
1695.4
1691.58
1687.77
1683.97
1680.18
1676.4
1672.62
1668.85
1665.08
1661.31
1657.54
1653.77
1649.99
1646.22
1642.43
2436.08
2275.05
2202.94
2154.16
2117.26
2087.64
2062.88
2041.6
2022.89
2006.18
1991.06
1977.22
1964.46
1952.59
1941.5
1931.06
1921.21
1911.86
1902.96
1894.46
1886.32
1878.5
1870.98
1863.72
1856.7
1849.91
1843.32
1836.92
1830.69
1824.63
1818.72
1812.95
1807.31
1801.79
1796.39
1791.09
1785.9
1780.8
1775.79
1770.87
1766.03
1761.26
1756.56
1751.93
1747.37
1742.86
1738.41
1734.02
1729.68
1725.39
1721.14
1716.94
1712.78
1708.66
1704.58
1700.53
1696.52
1692.54
1688.59
1684.67
1680.77
1676.9
1673.05
1669.23
1665.42
1661.64
1657.87
1654.12
1650.38
1646.66
1642.95
1639.25
1635.56
1631.88
1628.2
1624.53
1620.87
1617.21
1613.55
1609.89
1606.22
1602.56
1598.89
1595.22
2366.08
2209.69
2139.65
2092.28
2056.43
2027.66
2003.62
1982.95
1964.78
1948.55
1933.86
1920.42
1908.03
1896.5
1885.72
1875.59
1866.01
1856.93
1848.28
1840.02
1832.11
1824.51
1817.2
1810.15
1803.34
1796.74
1790.34
1784.12
1778.07
1772.18
1766.44
1760.84
1755.36
1750
1744.75
1739.61
1734.56
1729.61
1724.75
1719.96
1715.26
1710.63
1706.06
1701.57
1697.13
1692.76
1688.44
1684.17
1679.95
1675.78
1671.66
1667.58
1663.54
1659.54
1655.57
1651.64
1647.74
1643.88
1640.04
1636.23
1632.45
1628.69
1624.95
1621.24
1617.54
1613.86
1610.2
1606.56
1602.93
1599.32
1595.71
1592.12
1588.54
1584.96
1581.39
1577.83
1574.27
1570.71
1567.16
1563.6
1560.05
1556.49
1552.92
1549.35
2298.1
2146.2
2078.19
2032.17
1997.36
1969.42
1946.07
1925.98
1908.34
1892.57
1878.31
1865.26
1853.22
1842.02
1831.56
1821.71
1812.41
1803.59
1795.19
1787.17
1779.48
1772.1
1765
1758.15
1751.52
1745.11
1738.89
1732.85
1726.97
1721.25
1715.67
1710.22
1704.9
1699.7
1694.6
1689.6
1684.7
1679.89
1675.17
1670.52
1665.95
1661.45
1657.02
1652.65
1648.34
1644.09
1639.9
1635.75
1631.66
1627.61
1623.6
1619.64
1615.71
1611.83
1607.98
1604.16
1600.37
1596.62
1592.89
1589.19
1585.51
1581.86
1578.23
1574.62
1571.03
1567.46
1563.91
1560.37
1556.85
1553.34
1549.84
1546.35
1542.87
1539.39
1535.93
1532.47
1529.01
1525.55
1522.1
1518.65
1515.19
1511.74
1508.28
1504.81
2232.06
2084.54
2018.48
1973.79
1939.98
1912.84
1890.16
1870.66
1853.52
1838.21
1824.35
1811.68
1799.98
1789.11
1778.94
1769.38
1760.35
1751.78
1743.63
1735.83
1728.37
1721.2
1714.3
1707.65
1701.22
1694.99
1688.95
1683.08
1677.38
1671.82
1666.4
1661.11
1655.94
1650.88
1645.92
1641.07
1636.31
1631.63
1627.04
1622.53
1618.09
1613.72
1609.41
1605.17
1600.98
1596.85
1592.77
1588.75
1584.77
1580.83
1576.94
1573.09
1569.28
1565.5
1561.76
1558.05
1554.38
1550.73
1547.11
1543.51
1539.94
1536.4
1532.87
1529.37
1525.88
1522.42
1518.97
1515.53
1512.11
1508.7
1505.3
1501.92
1498.54
1495.17
1491.8
1488.45
1485.09
1481.74
1478.39
1475.04
1471.69
1468.33
1464.98
1461.61
2167.93
2024.66
1960.5
1917.09
1884.25
1857.89
1835.86
1816.92
1800.27
1785.4
1771.94
1759.63
1748.28
1737.72
1727.84
1718.56
1709.79
1701.46
1693.54
1685.98
1678.73
1671.77
1665.07
1658.6
1652.36
1646.31
1640.44
1634.74
1629.2
1623.8
1618.54
1613.4
1608.38
1603.47
1598.66
1593.94
1589.32
1584.78
1580.32
1575.94
1571.62
1567.38
1563.2
1559.07
1555.01
1551
1547.04
1543.13
1539.26
1535.44
1531.66
1527.92
1524.22
1520.55
1516.92
1513.32
1509.75
1506.2
1502.69
1499.2
1495.73
1492.29
1488.86
1485.46
1482.08
1478.71
1475.36
1472.02
1468.7
1465.39
1462.09
1458.8
1455.52
1452.25
1448.98
1445.72
1442.46
1439.2
1435.95
1432.7
1429.44
1426.18
1422.92
1419.66
2105.64
1966.49
1904.17
1862.02
1830.12
1804.52
1783.13
1764.73
1748.56
1734.12
1721.04
1709.09
1698.06
1687.8
1678.21
1669.19
1660.68
1652.59
1644.9
1637.55
1630.51
1623.75
1617.24
1610.97
1604.9
1599.03
1593.33
1587.8
1582.41
1577.17
1572.06
1567.07
1562.19
1557.42
1552.75
1548.17
1543.68
1539.27
1534.94
1530.68
1526.49
1522.37
1518.31
1514.31
1510.36
1506.46
1502.62
1498.82
1495.07
1491.36
1487.69
1484.06
1480.46
1476.9
1473.37
1469.87
1466.4
1462.96
1459.55
1456.16
1452.79
1449.45
1446.12
1442.82
1439.53
1436.26
1433.01
1429.76
1426.54
1423.32
1420.12
1416.92
1413.74
1410.56
1407.38
1404.22
1401.05
1397.89
1394.73
1391.57
1388.41
1385.25
1382.08
1378.91
2045.14
1909.99
1849.47
1808.53
1777.55
1752.69
1731.91
1714.03
1698.33
1684.3
1671.61
1660
1649.28
1639.32
1630.01
1621.25
1612.98
1605.13
1597.65
1590.52
1583.68
1577.11
1570.79
1564.7
1558.81
1553.1
1547.57
1542.2
1536.97
1531.88
1526.91
1522.07
1517.33
1512.7
1508.16
1503.71
1499.35
1495.07