/*--------------------------------*- C++ -*----------------------------------*\
  =========                 |
  \\      /  F ield         | OpenFOAM: The Open Source CFD Toolbox
   \\    /   O peration     | Website:  https://openfoam.org
    \\  /    A nd           | Version:  10
     \\/     M anipulation  |
\*---------------------------------------------------------------------------*/
FoamFile
{
    format      ascii;
    class       volScalarField;
    location    "65000";
    object      p;
}
// * * * * * * * * * * * * * * * * * * * * * * * * * * * * * * * * * * * * * //

dimensions      [0 2 -2 0 0 0 0];

internalField   nonuniform List<scalar> 
17808
(
8.88157
8.91722
8.93909
8.95087
8.95997
8.9655
8.96875
8.97013
8.97005
8.9688
8.96657
8.96349
8.9597
8.95525
8.95023
8.94467
8.93862
8.93211
8.92516
8.91778
8.91
8.90183
8.89327
8.88434
8.87504
8.86536
8.85533
8.84494
8.83418
8.82307
8.8116
8.79977
8.78758
8.77503
8.76211
8.74882
8.73517
8.72114
8.70674
8.69195
8.67678
8.66123
8.64528
8.62893
8.61218
8.59502
8.57744
8.55945
8.54104
8.52219
8.50291
8.48318
8.463
8.44237
8.42127
8.3997
8.37766
8.35513
8.3321
8.30858
8.28455
8.26
8.23492
8.20932
8.18317
8.15647
8.12922
8.10139
8.07299
8.044
8.01441
7.98422
7.95341
7.92198
7.88991
7.85719
7.82382
7.78978
7.75506
7.71965
7.68354
7.64672
7.60917
7.57089
7.53186
7.49208
7.45152
7.41018
7.36804
7.3251
7.28133
7.23673
8.97248
8.97945
8.9752
8.97386
8.97452
8.97444
8.97402
8.97299
8.97133
8.96901
8.96606
8.96251
8.95839
8.95372
8.94856
8.94291
8.93681
8.93027
8.92331
8.91594
8.90818
8.90004
8.89152
8.88262
8.87336
8.86374
8.85375
8.84341
8.83271
8.82165
8.81023
8.79845
8.78631
8.7738
8.76094
8.7477
8.73409
8.72011
8.70575
8.69101
8.67588
8.66037
8.64446
8.62815
8.61143
8.59431
8.57677
8.55882
8.54043
8.52162
8.50236
8.48266
8.46251
8.44191
8.42084
8.39929
8.37727
8.35476
8.33176
8.30826
8.28424
8.25971
8.23466
8.20907
8.18294
8.15626
8.12901
8.1012
8.07281
8.04383
8.01426
7.98408
7.95328
7.92186
7.8898
7.85709
7.82372
7.78969
7.75498
7.71958
7.68347
7.64666
7.60912
7.57085
7.53182
7.49204
7.45149
7.41015
7.36802
7.32508
7.28132
7.23672
9.01684
9.01611
9.00763
9.0032
8.99877
8.99397
8.9895
8.98507
8.98062
8.97606
8.97132
8.96636
8.96113
8.9556
8.94975
8.94358
8.93706
8.9302
8.923
8.91544
8.90754
8.89928
8.89068
8.88173
8.87243
8.86278
8.85278
8.84243
8.83172
8.82067
8.80926
8.7975
8.78538
8.7729
8.76005
8.74684
8.73326
8.7193
8.70497
8.69026
8.67516
8.65967
8.64379
8.6275
8.61082
8.59372
8.57621
8.55828
8.53992
8.52113
8.50189
8.48222
8.46209
8.4415
8.42045
8.39893
8.37693
8.35443
8.33145
8.30796
8.28397
8.25945
8.23441
8.20883
8.18272
8.15604
8.12881
8.10101
8.07263
8.04367
8.0141
7.98393
7.95314
7.92172
7.88967
7.85697
7.82361
7.78958
7.75488
7.71948
7.68338
7.64657
7.60903
7.57076
7.53175
7.49197
7.45142
7.41008
7.36796
7.32502
7.28126
7.23666
9.01934
9.01836
9.013
9.01041
9.00629
9.00174
8.99709
8.99218
8.98706
8.98176
8.97626
8.97055
8.96463
8.95848
8.95208
8.94542
8.93848
8.93126
8.92375
8.91593
8.90781
8.89937
8.89062
8.88154
8.87214
8.8624
8.85233
8.84193
8.83119
8.8201
8.80867
8.79689
8.78476
8.77227
8.75942
8.74621
8.73264
8.71869
8.70437
8.68967
8.67458
8.65911
8.64324
8.62698
8.61031
8.59323
8.57573
8.55782
8.53948
8.5207
8.50149
8.48183
8.46172
8.44115
8.42011
8.3986
8.37661
8.35414
8.33117
8.30769
8.28371
8.25921
8.23418
8.20861
8.1825
8.15584
8.12862
8.10083
8.07246
8.0435
8.01394
7.98378
7.95299
7.92158
7.88954
7.85684
7.82349
7.78946
7.75476
7.71937
7.68327
7.64646
7.60893
7.57066
7.53165
7.49187
7.45132
7.40999
7.36786
7.32492
7.28117
7.23657
9.02096
9.01939
9.01496
9.01237
9.00829
9.00413
8.99971
8.99495
8.98991
8.98459
8.979
8.97314
8.96703
8.96065
8.954
8.94709
8.93992
8.93246
8.92473
8.91671
8.90841
8.8998
8.8909
8.88169
8.87217
8.86234
8.85219
8.84171
8.83091
8.81977
8.8083
8.79648
8.78432
8.77181
8.75895
8.74573
8.73215
8.7182
8.70387
8.68918
8.6741
8.65863
8.64277
8.62651
8.60985
8.59278
8.5753
8.5574
8.53907
8.52031
8.50111
8.48147
8.46137
8.44081
8.41979
8.39829
8.37632
8.35386
8.3309
8.30744
8.28346
8.25897
8.23395
8.2084
8.1823
8.15565
8.12844
8.10066
8.07229
8.04334
8.01379
7.98363
7.95286
7.92145
7.88941
7.85672
7.82337
7.78936
7.75466
7.71927
7.68318
7.64637
7.60884
7.57058
7.53156
7.49179
7.45124
7.40991
7.36779
7.32485
7.28109
7.2365
9.0268
9.02467
9.02036
9.01715
9.01267
9.00821
9.00343
8.99837
8.99305
8.98749
8.98167
8.97559
8.96927
8.96268
8.95584
8.94874
8.94138
8.93374
8.92584
8.91766
8.9092
8.90045
8.89142
8.88209
8.87246
8.86252
8.85228
8.84172
8.83085
8.81965
8.80812
8.79626
8.78406
8.77152
8.75863
8.74539
8.73179
8.71782
8.70349
8.68879
8.6737
8.65823
8.64237
8.62612
8.60946
8.5924
8.57493
8.55703
8.53871
8.51996
8.50077
8.48114
8.46105
8.4405
8.41949
8.39801
8.37604
8.35359
8.33064
8.30719
8.28323
8.25875
8.23374
8.2082
8.18211
8.15547
8.12826
8.10049
8.07214
8.04319
8.01365
7.9835
7.95273
7.92133
7.88929
7.85661
7.82327
7.78925
7.75456
7.71917
7.68309
7.64628
7.60876
7.5705
7.53148
7.49171
7.45117
7.40984
7.36771
7.32478
7.28102
7.23643
9.03169
9.02925
9.02514
9.02163
9.01704
9.01238
9.00735
9.00203
8.99647
8.99064
8.98457
8.97826
8.9717
8.9649
8.95785
8.95055
8.943
8.93519
8.92712
8.91878
8.91018
8.9013
8.89213
8.88269
8.87295
8.86292
8.85258
8.84194
8.831
8.81973
8.80814
8.79623
8.78398
8.7714
8.75847
8.7452
8.73157
8.71758
8.70323
8.68851
8.67341
8.65793
8.64207
8.62581
8.60915
8.59209
8.57462
8.55672
8.53841
8.51966
8.50047
8.48085
8.46077
8.44023
8.41922
8.39775
8.37579
8.35335
8.33041
8.30697
8.28302
8.25854
8.23354
8.20801
8.18193
8.15529
8.1281
8.10033
8.07198
8.04305
8.01351
7.98337
7.9526
7.92121
7.88918
7.8565
7.82316
7.78915
7.75446
7.71908
7.683
7.6462
7.60868
7.57042
7.53141
7.49164
7.4511
7.40977
7.36765
7.32471
7.28095
7.23636
9.0347
9.03204
9.02814
9.02449
9.01993
9.01523
9.01013
9.00475
8.9991
8.99317
8.98698
8.98054
8.97385
8.9669
8.95972
8.95228
8.94458
8.93664
8.92844
8.91997
8.91124
8.90224
8.89297
8.88342
8.87358
8.86346
8.85304
8.84232
8.83129
8.81996
8.80831
8.79634
8.78404
8.77141
8.75844
8.74513
8.73147
8.71745
8.70308
8.68834
8.67322
8.65773
8.64185
8.62558
8.60891
8.59185
8.57437
8.55647
8.53816
8.51941
8.50023
8.4806
8.46052
8.43999
8.41899
8.39752
8.37557
8.35313
8.3302
8.30676
8.28282
8.25835
8.23336
8.20783
8.18176
8.15513
8.12794
8.10018
8.07184
8.04291
8.01338
7.98324
7.95248
7.9211
7.88907
7.85639
7.82306
7.78906
7.75437
7.71899
7.68291
7.64612
7.6086
7.57034
7.53133
7.49157
7.45103
7.4097
7.36758
7.32465
7.28089
7.2363
9.03699
9.03417
9.03043
9.02666
9.02212
9.01738
9.01226
9.00684
9.00114
8.99516
8.98891
8.9824
8.97563
8.96861
8.96133
8.95381
8.94602
8.93798
8.92968
8.92112
8.9123
8.90321
8.89384
8.8842
8.87428
8.86408
8.85358
8.84279
8.83169
8.82029
8.80858
8.79656
8.78421
8.77153
8.75852
8.74517
8.73147
8.71743
8.70302
8.68825
8.67312
8.6576
8.64171
8.62542
8.60875
8.59167
8.57418
8.55628
8.53796
8.51921
8.50002
8.48039
8.46032
8.43979
8.41879
8.39732
8.37537
8.35294
8.33001
8.30658
8.28264
8.25818
8.23319
8.20767
8.1816
8.15498
8.1278
8.10004
8.07171
8.04278
8.01326
7.98312
7.95237
7.92099
7.88897
7.8563
7.82297
7.78896
7.75428
7.71891
7.68283
7.64604
7.60852
7.57027
7.53126
7.4915
7.45096
7.40964
7.36752
7.32459
7.28083
7.23624
9.03909
9.03615
9.03251
9.02865
9.02411
9.01933
9.01417
9.00871
9.00296
8.99693
8.99062
8.98406
8.97723
8.97014
8.9628
8.9552
8.94734
8.93923
8.93086
8.92222
8.91333
8.90416
8.89472
8.88501
8.87502
8.86474
8.85418
8.84332
8.83217
8.82071
8.80894
8.79686
8.78447
8.77174
8.75869
8.7453
8.73156
8.71748
8.70305
8.68825
8.67309
8.65755
8.64164
8.62534
8.60864
8.59155
8.57405
8.55614
8.53781
8.51906
8.49986
8.48023
8.46015
8.43962
8.41862
8.39716
8.37521
8.35278
8.32985
8.30642
8.28249
8.25803
8.23304
8.20753
8.18146
8.15484
8.12767
8.09991
8.07158
8.04266
8.01314
7.98301
7.95226
7.92089
7.88887
7.8562
7.82288
7.78888
7.7542
7.71883
7.68276
7.64597
7.60845
7.5702
7.5312
7.49144
7.4509
7.40958
7.36746
7.32453
7.28078
7.23619
9.04093
9.03789
9.03434
9.03039
9.02587
9.02105
9.01587
9.01038
9.00459
8.99851
8.99217
8.98555
8.97868
8.97154
8.96414
8.95649
8.94857
8.9404
8.93197
8.92327
8.91431
8.90509
8.89559
8.88581
8.87576
8.86543
8.85481
8.84389
8.83269
8.82118
8.80936
8.79723
8.78479
8.77202
8.75893
8.7455
8.73173
8.71761
8.70315
8.68832
8.67313
8.65757
8.64163
8.62531
8.6086
8.59149
8.57398
8.55606
8.53772
8.51895
8.49975
8.48012
8.46003
8.43949
8.41849
8.39702
8.37508
8.35264
8.32972
8.30629
8.28235
8.2579
8.23292
8.2074
8.18134
8.15472
8.12755
8.0998
8.07147
8.04256
8.01304
7.98291
7.95217
7.92079
7.88878
7.85612
7.82279
7.7888
7.75412
7.71876
7.68269
7.6459
7.60839
7.57014
7.53114
7.49138
7.45084
7.40952
7.36741
7.32448
7.28072
7.23614
9.04247
9.03935
9.03587
9.03187
9.02736
9.02252
9.01732
9.0118
9.00599
8.99989
8.99352
8.98687
8.97996
8.97278
8.96535
8.95765
8.94969
8.94148
8.933
8.92426
8.91525
8.90597
8.89642
8.8866
8.8765
8.86612
8.85545
8.84449
8.83323
8.82167
8.80981
8.79764
8.78516
8.77235
8.75922
8.74575
8.73195
8.7178
8.7033
8.68845
8.67323
8.65765
8.64169
8.62535
8.60862
8.59149
8.57396
8.55602
8.53767
8.51889
8.49968
8.48004
8.45995
8.4394
8.4184
8.39692
8.37497
8.35254
8.32961
8.30618
8.28224
8.25779
8.23281
8.20729
8.18123
8.15462
8.12745
8.0997
8.07138
8.04246
8.01295
7.98282
7.95208
7.92071
7.8887
7.85604
7.82272
7.78873
7.75405
7.71869
7.68262
7.64584
7.60833
7.57008
7.53108
7.49132
7.45079
7.40947
7.36736
7.32443
7.28068
7.23609
9.0438
9.04062
9.03719
9.03315
9.02865
9.02379
9.01858
9.01305
9.00722
9.0011
8.99471
8.98804
8.9811
8.9739
8.96643
8.9587
8.95072
8.94246
8.93395
8.92517
8.91612
8.90681
8.89722
8.88736
8.87722
8.86679
8.85608
8.84508
8.83378
8.82219
8.81029
8.79808
8.78556
8.77272
8.75955
8.74605
8.73221
8.71803
8.70351
8.68863
8.67338
8.65777
8.64179
8.62543
8.60868
8.59153
8.57399
8.55603
8.53767
8.51888
8.49966
8.48
8.4599
8.43935
8.41833
8.39685
8.3749
8.35246
8.32953
8.3061
8.28216
8.2577
8.23272
8.2072
8.18114
8.15453
8.12736
8.09962
8.07129
8.04238
8.01287
7.98274
7.952
7.92064
7.88863
7.85597
7.82265
7.78866
7.75399
7.71863
7.68256
7.64578
7.60827
7.57003
7.53103
7.49127
7.45074
7.40943
7.36731
7.32439
7.28063
7.23605
9.04498
9.04175
9.03837
9.03429
9.02979
9.02492
9.0197
9.01416
9.00832
9.00219
8.99577
8.98908
8.98213
8.9749
8.96742
8.95966
8.95165
8.94337
8.93483
8.92602
8.91694
8.9076
8.89798
8.88808
8.8779
8.86745
8.8567
8.84567
8.83434
8.82271
8.81078
8.79853
8.78598
8.7731
8.7599
8.74638
8.73251
8.7183
8.70375
8.68884
8.67357
8.65794
8.64194
8.62555
8.60878
8.59162
8.57405
8.55608
8.5377
8.5189
8.49967
8.48
8.45989
8.43932
8.4183
8.39682
8.37485
8.35241
8.32947
8.30604
8.2821
8.25764
8.23265
8.20714
8.18107
8.15446
8.12729
8.09955
8.07122
8.04231
8.0128
7.98268
7.95194
7.92057
7.88856
7.85591
7.82259
7.7886
7.75394
7.71857
7.68251
7.64573
7.60822
7.56998
7.53099
7.49123
7.4507
7.40939
7.36727
7.32435
7.2806
7.23601
9.04603
9.04277
9.03941
9.03531
9.03081
9.02593
9.02071
9.01516
9.0093
9.00316
8.99673
8.99003
8.98306
8.97582
8.96831
8.96054
8.95251
8.94421
8.93564
8.92681
8.91771
8.90833
8.89869
8.88877
8.87856
8.86808
8.85731
8.84624
8.83488
8.82323
8.81126
8.79899
8.78641
8.77351
8.76028
8.74672
8.73283
8.7186
8.70402
8.68909
8.6738
8.65814
8.64211
8.62571
8.60892
8.59174
8.57416
8.55617
8.53777
8.51895
8.49971
8.48003
8.45991
8.43933
8.4183
8.39681
8.37484
8.35239
8.32945
8.30601
8.28206
8.25759
8.23261
8.20709
8.18102
8.15441
8.12724
8.09949
8.07117
8.04226
8.01274
7.98262
7.95189
7.92052
7.88851
7.85586
7.82254
7.78856
7.75389
7.71853
7.68246
7.64569
7.60818
7.56994
7.53095
7.49119
7.45067
7.40935
7.36724
7.32432
7.28056
7.23597
9.04697
9.04368
9.04034
9.03622
9.03173
9.02684
9.02161
9.01605
9.01019
9.00404
8.9976
8.99089
8.9839
8.97665
8.96913
8.96134
8.95329
8.94498
8.93639
8.92754
8.91842
8.90903
8.89936
8.88942
8.87919
8.86868
8.85789
8.8468
8.83542
8.82373
8.81175
8.79945
8.78684
8.77392
8.76067
8.74708
8.73317
8.71891
8.70431
8.68936
8.67405
8.65837
8.64232
8.6259
8.60909
8.59189
8.57429
8.55629
8.53787
8.51904
8.49978
8.48009
8.45996
8.43937
8.41833
8.39683
8.37485
8.35239
8.32944
8.306
8.28204
8.25757
8.23258
8.20706
8.18099
8.15438
8.1272
8.09945
8.07113
8.04221
8.0127
7.98258
7.95184
7.92048
7.88847
7.85582
7.8225
7.78852
7.75385
7.71849
7.68243
7.64565
7.60815
7.5699
7.53091
7.49116
7.45063
7.40932
7.36721
7.32428
7.28053
7.23594
9.04781
9.0445
9.04118
9.03705
9.03256
9.02766
9.02243
9.01686
9.011
9.00484
8.99839
8.99167
8.98468
8.97741
8.96988
8.96208
8.95402
8.94569
8.93709
8.92822
8.91909
8.90968
8.89999
8.89003
8.87979
8.86926
8.85844
8.84734
8.83593
8.82423
8.81222
8.79991
8.78728
8.77433
8.76105
8.74745
8.73352
8.71924
8.70462
8.68964
8.67431
8.65862
8.64255
8.62611
8.60928
8.59206
8.57445
8.55643
8.538
8.51916
8.49988
8.48018
8.46003
8.43944
8.41839
8.39687
8.37489
8.35242
8.32946
8.30601
8.28205
8.25758
8.23258
8.20705
8.18098
8.15436
8.12718
8.09943
8.0711
8.04219
8.01268
7.98255
7.95181
7.92045
7.88844
7.85578
7.82247
7.78848
7.75382
7.71846
7.6824
7.64562
7.60812
7.56988
7.53089
7.49113
7.45061
7.40929
9.04858
9.04525
9.04194
9.0378
9.03331
9.02841
9.02317
9.0176
9.01173
9.00557
8.99912
8.99239
8.98538
8.97811
8.97057
8.96276
8.95469
8.94635
8.93774
8.92886
8.91971
8.91029
8.90059
8.89061
8.88035
8.86981
8.85897
8.84785
8.83643
8.82471
8.81269
8.80035
8.7877
8.77474
8.76144
8.74782
8.73387
8.71957
8.70493
8.68994
8.67459
8.65888
8.6428
8.62634
8.60949
8.59226
8.57463
8.5566
8.53816
8.5193
8.50001
8.48029
8.46013
8.43953
8.41847
8.39694
8.37495
8.35247
8.3295
8.30604
8.28208
8.2576
8.2326
8.20706
8.18099
8.15436
8.12718
8.09943
8.0711
8.04218
8.01266
7.98254
7.9518
7.92043
7.88842
7.85576
7.82245
7.78846
7.7538
7.71844
7.68237
7.6456
7.60809
7.56985
7.53086
7.49111
7.45058
7.40926
9.04928
9.04594
9.04264
9.03849
9.034
9.0291
9.02385
9.01828
9.01241
9.00624
8.99978
8.99305
8.98604
8.97876
8.97121
8.96339
8.95531
8.94696
8.93834
8.92945
8.92029
8.91086
8.90115
8.89116
8.88089
8.87033
8.85948
8.84834
8.83691
8.82517
8.81313
8.80078
8.78812
8.77514
8.76183
8.74819
8.73422
8.71991
8.70526
8.69025
8.67488
8.65915
8.64305
8.62658
8.60972
8.59247
8.57483
8.55678
8.53833
8.51945
8.50016
8.48042
8.46026
8.43964
8.41857
8.39703
8.37503
8.35254
8.32957
8.3061
8.28213
8.25764
8.23263
8.20709
8.18101
8.15438
8.12719
8.09944
8.0711
8.04218
8.01266
7.98254
7.95179
7.92042
7.88841
7.85575
7.82244
7.78845
7.75378
7.71842
7.68236
7.64558
7.60808
7.56984
7.53085
7.4911
7.45057
7.40924
9.04992
9.04657
9.04328
9.03913
9.03463
9.02973
9.02448
9.01891
9.01303
9.00686
9.0004
8.99366
8.98664
8.97936
8.9718
8.96398
8.95589
8.94753
8.93891
8.93001
8.92084
8.9114
8.90167
8.89167
8.88139
8.87082
8.85997
8.84882
8.83737
8.82562
8.81357
8.80121
8.78853
8.77553
8.76221
8.74856
8.73458
8.72025
8.70558
8.69056
8.67518
8.65943
8.64332
8.62683
8.60996
8.5927
8.57504
8.55698
8.53851
8.51963
8.50032
8.48058
8.4604
8.43977
8.41868
8.39714
8.37512
8.35263
8.32965
8.30617
8.28219
8.2577
8.23268
8.20714
8.18105
8.15441
8.12722
8.09946
8.07112
8.0422
8.01268
7.98255
7.9518
7.92043
7.88842
7.85576
7.82244
7.78845
7.75378
7.71842
7.68235
7.64558
7.60807
7.56983
7.53084
9.05052
9.04716
9.04387
9.03972
9.03522
9.03032
9.02507
9.01949
9.01361
9.00743
9.00097
8.99422
8.98721
8.97992
8.97236
8.96453
8.95643
8.94807
8.93943
8.93053
8.92135
8.9119
8.90217
8.89216
8.88187
8.8713
8.86043
8.84927
8.83781
8.82605
8.81399
8.80162
8.78893
8.77592
8.76259
8.74892
8.73493
8.72059
8.7059
8.69087
8.67548
8.65972
8.64359
8.62709
8.61021
8.59294
8.57527
8.5572
8.53871
8.51982
8.50049
8.48074
8.46055
8.43991
8.41882
8.39727
8.37524
8.35274
8.32975
8.30626
8.28227
8.25777
8.23275
8.2072
8.18111
8.15446
8.12727
8.0995
8.07116
8.04223
8.0127
7.98257
7.95182
7.92044
7.88843
7.85577
7.82245
7.78846
7.75379
7.71842
7.68236
7.64558
7.60807
7.56983
7.53083
9.05107
9.04771
9.04441
9.04026
9.03576
9.03086
9.02561
9.02003
9.01414
9.00796
9.0015
8.99475
8.98773
8.98044
8.97287
8.96504
8.95694
8.94857
8.93993
8.93102
8.92184
8.91238
8.90265
8.89263
8.88233
8.87175
8.86087
8.8497
8.83824
8.82647
8.8144
8.80201
8.78931
8.77629
8.76295
8.74928
8.73527
8.72092
8.70623
8.69118
8.67578
8.66001
8.64387
8.62736
8.61046
8.59318
8.5755
8.55742
8.53892
8.52002
8.50068
8.48092
8.46072
8.44007
8.41897
8.39741
8.37537
8.35286
8.32986
8.30637
8.28237
8.25786
8.23283
8.20727
8.18118
8.15453
8.12733
8.09955
8.07121
8.04227
8.01274
7.98261
7.95185
7.92047
7.88846
7.85579
7.82247
7.78847
7.7538
7.71844
7.68237
7.64559
7.60808
7.56983
7.53084
9.05158
9.04822
9.04493
9.04078
9.03627
9.03137
9.02611
9.02053
9.01465
9.00846
9.002
8.99525
8.98822
8.98093
8.97336
8.96552
8.95742
8.94904
8.9404
8.93149
8.9223
8.91283
8.90309
8.89307
8.88277
8.87217
8.86129
8.85012
8.83864
8.82687
8.81479
8.80239
8.78969
8.77666
8.76331
8.74963
8.73561
8.72125
8.70655
8.69149
8.67608
8.6603
8.64415
8.62763
8.61072
8.59343
8.57574
8.55764
8.53914
8.52022
8.50088
8.48111
8.4609
8.44024
8.41913
8.39756
8.37551
8.35299
8.32999
8.30649
8.28248
8.25797
8.23293
8.20736
8.18126
8.15461
8.1274
8.09962
8.07127
8.04233
8.0128
7.98265
7.9519
7.92051
7.88849
7.85583
7.8225
7.7885
7.75383
7.71846
7.68239
7.64561
7.6081
7.56985
7.53085
9.05206
9.0487
9.0454
9.04125
9.03675
9.03184
9.02659
9.02101
9.01512
9.00893
9.00246
8.99571
8.98869
8.98139
8.97382
8.96598
8.95787
8.94949
8.94084
8.93192
8.92273
8.91326
8.90352
8.89349
8.88318
8.87258
8.8617
8.85051
8.83903
8.82725
8.81516
8.80276
8.79005
8.77701
8.76365
8.74996
8.73594
8.72157
8.70686
8.6918
8.67637
8.66059
8.64443
8.6279
8.61098
8.59368
8.57598
8.55788
8.53937
8.52044
8.50109
8.48131
8.46109
8.44042
8.4193
8.39772
8.37567
8.35314
8.33013
8.30662
8.28261
8.25808
8.23304
8.20747
8.18136
8.1547
8.12748
8.0997
8.07134
8.0424
8.01286
7.98271
7.95195
7.92057
7.88854
7.85587
7.82254
7.78854
7.75386
7.71849
7.68242
7.64563
7.60812
7.56987
7.53088
9.05252
9.04916
9.04585
9.04171
9.0372
9.03229
9.02704
9.02145
9.01556
9.00938
9.0029
8.99615
8.98912
8.98182
8.97425
8.96641
8.9583
8.94991
8.94126
8.93234
8.92314
8.91367
8.90392
8.89389
8.88358
8.87297
8.86208
8.85089
8.83941
8.82762
8.81553
8.80312
8.7904
8.77736
8.76399
8.7503
8.73626
8.72189
8.70717
8.6921
8.67667
8.66087
8.64471
8.62817
8.61124
8.59393
8.57623
8.55812
8.5396
8.52066
8.5013
8.48151
8.46128
8.44061
8.41948
8.39789
8.37583
8.3533
8.33028
8.30676
8.28274
8.25821
8.23316
8.20758
8.18147
8.1548
8.12758
8.09979
8.07143
8.04248
8.01294
7.98279
7.95202
7.92063
7.8886
7.85592
7.82259
7.78859
7.75391
7.71854
7.68246
7.64567
7.60816
7.56991
7.53091
9.05294
9.04958
9.04628
9.04213
9.03762
9.03272
9.02746
9.02188
9.01598
9.0098
9.00332
8.99657
8.98954
8.98223
8.97466
8.96681
8.9587
8.95032
8.94166
8.93274
8.92354
8.91406
8.90431
8.89427
8.88395
8.87335
8.86245
8.85126
8.83977
8.82798
8.81588
8.80347
8.79074
8.77769
8.76432
8.75062
8.73658
8.7222
8.70747
8.69239
8.67696
8.66115
8.64498
8.62844
8.61151
8.59419
8.57647
8.55835
8.53983
8.52088
8.50152
8.48172
8.46148
8.4408
8.41967
8.39807
8.37601
8.35346
8.33043
8.30691
8.28289
8.25835
8.23329
8.20771
8.18158
8.15491
8.12769
8.09989
8.07152
8.04257
8.01302
7.98287
7.9521
7.9207
7.88867
7.85599
7.82265
7.78865
7.75396
7.71859
7.68251
7.64572
7.6082
7.56995
7.53095
9.05335
9.04999
9.04668
9.04253
9.03803
9.03312
9.02786
9.02227
9.01638
9.01019
9.00372
8.99696
8.98993
8.98262
8.97505
8.9672
8.95908
8.9507
8.94204
8.93311
8.92391
8.91443
8.90468
8.89464
8.88432
8.87371
8.86281
8.85161
8.84012
8.82832
8.81622
8.8038
8.79107
8.77802
8.76464
8.75093
8.73689
8.7225
8.70777
8.69268
8.67724
8.66143
8.64526
8.6287
8.61177
8.59444
8.57672
8.55859
8.54006
8.52111
8.50174
8.48193
8.46169
8.441
8.41986
8.39826
8.37618
8.35363
8.3306
8.30707
8.28304
8.25849
8.23343
8.20784
8.18171
8.15503
8.1278
8.1
8.07163
8.04267
8.01312
7.98296
7.95218
7.92078
7.88875
7.85606
7.82272
7.78871
7.75402
7.71865
7.68257
7.64577
7.60825
7.57
7.53099
9.05373
9.05038
9.04706
9.04292
9.03841
9.0335
9.02824
9.02266
9.01676
9.01057
9.00409
8.99734
8.9903
8.983
8.97542
8.96757
8.95945
8.95106
8.94241
8.93348
8.92427
8.91479
8.90503
8.89499
8.88466
8.87405
8.86315
8.85195
8.84045
8.82865
8.81654
8.80412
8.79139
8.77833
8.76495
8.75124
8.73719
8.7228
8.70806
8.69297
8.67752
8.66171
8.64553
8.62897
8.61202
8.59469
8.57696
8.55883
8.54029
8.52134
8.50196
8.48215
8.4619
8.4412
8.42006
8.39845
8.37637
8.35381
8.33077
8.30723
8.2832
8.25865
8.23358
8.20798
8.18185
8.15516
8.12793
8.10012
8.07174
8.04278
8.01322
7.98306
7.95228
7.92087
7.88883
7.85614
7.8228
7.78879
7.7541
7.71871
7.68263
7.64583
7.60831
7.57005
7.53104
9.0541
9.05074
9.04742
9.04328
9.03877
9.03386
9.0286
9.02302
9.01712
9.01093
9.00445
8.99769
8.99066
8.98335
8.97577
8.96792
8.9598
8.95141
8.94275
8.93382
8.92461
8.91513
8.90537
8.89533
8.885
8.87438
8.86348
8.85227
8.84077
8.82897
8.81686
8.80444
8.7917
8.77864
8.76525
8.75153
8.73748
8.72309
8.70834
8.69325
8.6778
8.66198
8.64579
8.62923
8.61228
8.59494
8.57721
8.55907
8.54053
8.52157
8.50218
8.48236
8.46211
8.44141
8.42026
8.39864
8.37656
8.35399
8.33095
8.3074
8.28336
8.25881
8.23373
8.20813
8.18199
8.1553
8.12806
8.10025
8.07187
8.0429
8.01333
7.98316
7.95238
7.92097
7.88893
7.85623
7.82289
7.78887
7.75417
7.71879
7.6827
7.6459
7.60838
7.57011
7.5311
9.05445
9.05109
9.04777
9.04363
9.03912
9.03421
9.02895
9.02336
9.01747
9.01127
9.0048
8.99804
8.991
8.98369
8.97611
8.96826
8.96014
8.95175
8.94309
8.93415
8.92494
8.91546
8.90569
8.89565
8.88532
8.8747
8.86379
8.85259
8.84108
8.82928
8.81716
8.80474
8.792
8.77893
8.76554
8.75182
8.73776
8.72337
8.70862
8.69352
8.67806
8.66224
8.64605
8.62948
8.61253
8.59519
8.57745
8.55931
8.54076
8.52179
8.5024
8.48258
8.46232
8.44162
8.42046
8.39884
8.37675
8.35418
8.33113
8.30758
8.28353
8.25897
8.23389
8.20828
8.18214
8.15544
8.1282
8.10038
8.07199
8.04302
8.01345
7.98328
7.95249
7.92108
7.88903
7.85633
7.82298
7.78896
7.75426
7.71887
7.68278
7.64598
7.60845
7.57018
7.53117
9.05478
9.05143
9.0481
9.04396
9.03945
9.03454
9.02928
9.02369
9.0178
9.0116
9.00512
8.99836
8.99133
8.98402
8.97643
8.96858
8.96046
8.95207
8.94341
8.93447
8.92526
8.91577
8.90601
8.89596
8.88563
8.87501
8.8641
8.85289
8.84138
8.82957
8.81746
8.80503
8.79228
8.77922
8.76583
8.7521
8.73804
8.72364
8.70889
8.69379
8.67833
8.6625
8.64631
8.62973
8.61278
8.59543
8.57769
8.55954
8.54099
8.52202
8.50262
8.4828
8.46253
8.44182
8.42066
8.39903
8.37694
8.35437
8.33131
8.30776
8.2837
8.25914
8.23405
8.20844
8.18229
8.15559
8.12834
8.10052
8.07213
8.04315
8.01358
7.9834
7.95261
7.92119
7.88913
7.85644
7.82308
7.78906
7.75435
7.71896
7.68287
7.64606
7.60853
7.57026
7.53124
9.0551
9.05175
9.04842
9.04429
9.03977
9.03486
9.0296
9.02401
9.01811
9.01192
9.00544
8.99868
8.99164
8.98433
8.97675
8.96889
8.96077
8.95238
8.94371
8.93478
8.92556
8.91608
8.90631
8.89626
8.88593
8.8753
8.86439
8.85318
8.84167
8.82986
8.81774
8.80531
8.79257
8.7795
8.7661
8.75238
8.73831
8.72391
8.70915
8.69405
8.67859
8.66276
8.64656
8.62998
8.61302
8.59567
8.57793
8.55978
8.54122
8.52224
8.50284
8.48301
8.46274
8.44203
8.42086
8.39923
8.37713
8.35456
8.33149
8.30794
8.28388
8.25931
8.23422
8.2086
8.18245
8.15575
8.12849
8.10066
8.07227
8.04328
8.01371
7.98352
7.95273
7.92131
7.88925
7.85655
7.82319
7.78916
7.75445
7.71906
7.68296
7.64615
7.60861
7.57034
7.53132
9.05541
9.05206
9.04872
9.04459
9.04008
9.03516
9.0299
9.02431
9.01842
9.01222
9.00574
8.99898
8.99194
8.98463
8.97705
8.96919
8.96107
8.95267
8.94401
8.93507
8.92586
8.91637
8.9066
8.89655
8.88621
8.87559
8.86467
8.85346
8.84195
8.83014
8.81802
8.80559
8.79284
8.77977
8.76637
8.75264
8.73857
8.72417
8.70941
8.6943
8.67884
8.663
8.6468
8.63022
8.61326
8.59591
8.57816
8.56001
8.54144
8.52246
8.50306
8.48323
8.46295
8.44224
8.42106
8.39943
8.37733
8.35474
8.33168
8.30812
8.28406
8.25948
8.23439
8.20877
8.18261
8.1559
8.12864
8.10081
8.07241
8.04342
8.01384
7.98365
7.95285
7.92143
7.88937
7.85666
7.8233
7.78927
7.75456
7.71916
7.68306
7.64624
7.6087
7.57043
7.53141
9.0557
9.05236
9.04902
9.04489
9.04037
9.03546
9.0302
9.02461
9.01871
9.01251
9.00603
8.99927
8.99223
8.98492
8.97733
8.96948
8.96135
8.95296
8.94429
8.93535
8.92614
8.91665
8.90688
8.89683
8.88649
8.87586
8.86495
8.85374
8.84222
8.83041
8.81829
8.80585
8.7931
8.78003
8.76663
8.7529
8.73883
8.72442
8.70966
8.69455
8.67908
8.66325
8.64704
8.63046
8.61349
8.59614
8.57839
8.56023
8.54166
8.52268
8.50328
8.48344
8.46316
8.44244
8.42126
8.39963
8.37752
8.35493
8.33186
8.3083
8.28423
8.25966
8.23456
8.20893
8.18277
8.15606
8.12879
8.10096
8.07256
8.04356
8.01398
7.98379
7.95298
7.92156
7.88949
7.85678
7.82341
7.78938
7.75466
7.71926
7.68316
7.64634
7.6088
7.57052
7.5315
9.05598
9.05264
9.04929
9.04517
9.04065
9.03574
9.03048
9.02489
9.01899
9.01279
9.00631
8.99955
8.99251
8.98519
8.97761
8.96975
8.96163
8.95323
8.94456
8.93562
8.92641
8.91692
8.90715
8.89709
8.88676
8.87613
8.86521
8.854
8.84249
8.83067
8.81855
8.80611
8.79336
8.78028
8.76688
8.75315
8.73908
8.72467
8.70991
8.69479
8.67932
8.66348
8.64728
8.63069
8.61372
8.59636
8.57861
8.56045
8.54188
8.5229
8.50349
8.48365
8.46337
8.44264
8.42146
8.39982
8.37771
8.35512
8.33205
8.30848
8.28441
8.25983
8.23473
8.2091
8.18293
8.15622
8.12895
8.10111
8.0727
8.04371
8.01412
7.98393
7.95312
7.92169
7.88962
7.8569
7.82353
7.78949
7.75478
7.71937
7.68326
7.64644
7.6089
7.57062
7.53159
9.05625
9.05292
9.04956
9.04544
9.04092
9.03601
9.03075
9.02516
9.01926
9.01306
9.00658
8.99982
8.99278
8.98546
8.97788
8.97002
8.96189
8.9535
8.94483
8.93589
8.92667
8.91718
8.90741
8.89735
8.88701
8.87639
8.86547
8.85425
8.84274
8.83092
8.8188
8.80636
8.7936
8.78053
8.76712
8.75339
8.73932
8.7249
8.71014
8.69503
8.67955
8.66371
8.6475
8.63092
8.61395
8.59658
8.57883
8.56067
8.5421
8.52311
8.5037
8.48385
8.46357
8.44284
8.42166
8.40001
8.3779
8.35531
8.33223
8.30866
8.28459
8.26
8.2349
8.20927
8.1831
8.15638
8.12911
8.10127
8.07285
8.04386
8.01426
7.98407
7.95325
7.92182
7.88975
7.85703
7.82365
7.78961
7.75489
7.71948
7.68337
7.64655
7.609
7.57072
9.05652
9.05318
9.04982
9.0457
9.04118
9.03627
9.03101
9.02542
9.01952
9.01332
9.00684
9.00007
8.99303
8.98572
8.97813
8.97027
8.96215
8.95375
8.94508
8.93614
8.92692
8.91743
8.90766
8.8976
8.88726
8.87663
8.86571
8.8545
8.84298
8.83116
8.81904
8.8066
8.79384
8.78076
8.76736
8.75362
8.73955
8.72513
8.71037
8.69525
8.67978
8.66394
8.64773
8.63114
8.61416
8.5968
8.57904
8.56088
8.5423
8.52331
8.5039
8.48405
8.46377
8.44304
8.42185
8.40021
8.37809
8.35549
8.33241
8.30884
8.28476
8.26018
8.23507
8.20943
8.18326
8.15654
8.12926
8.10142
8.073
8.044
8.01441
7.98421
7.95339
7.92195
7.88988
7.85716
7.82378
7.78973
7.75501
7.7196
7.68348
7.64666
7.60911
7.57082
9.05677
9.05344
9.05007
9.04595
9.04143
9.03652
9.03126
9.02567
9.01977
9.01357
9.00709
9.00032
8.99328
8.98596
8.97838
8.97052
8.96239
8.95399
8.94533
8.93638
8.92717
8.91767
8.9079
8.89784
8.8875
8.87687
8.86595
8.85473
8.84322
8.8314
8.81927
8.80683
8.79407
8.78099
8.76759
8.75385
8.73977
8.72536
8.71059
8.69547
8.68
8.66415
8.64794
8.63135
8.61437
8.59701
8.57925
8.56108
8.54251
8.52351
8.5041
8.48425
8.46396
8.44323
8.42204
8.40039
8.37827
8.35568
8.33259
8.30902
8.28494
8.26035
8.23524
8.2096
8.18342
8.1567
8.12942
8.10157
8.07315
8.04415
8.01455
7.98435
7.95353
7.92209
7.89001
7.85728
7.8239
7.78986
7.75513
7.71971
7.6836
7.64677
7.60922
7.57093
9.05701
9.05368
9.05031
9.04619
9.04167
9.03676
9.0315
9.0259
9.02001
9.01381
9.00732
9.00056
8.99352
8.9862
8.97861
8.97076
8.96263
8.95423
8.94556
8.93662
8.9274
8.9179
8.90813
8.89807
8.88773
8.8771
8.86618
8.85496
8.84344
8.83162
8.81949
8.80705
8.79429
8.78121
8.76781
8.75407
8.73999
8.72557
8.71081
8.69569
8.68021
8.66436
8.64815
8.63156
8.61458
8.59721
8.57945
8.56128
8.54271
8.52371
8.50429
8.48444
8.46415
8.44342
8.42223
8.40057
8.37845
8.35585
8.33277
8.30919
8.28511
8.26052
8.2354
8.20976
8.18358
8.15686
8.12957
8.10173
8.0733
8.0443
8.01469
7.98449
7.95367
7.92222
7.89014
7.85741
7.82403
7.78998
7.75525
7.71983
7.68371
7.64688
7.60933
7.57103
9.05724
9.05391
9.05054
9.04642
9.0419
9.03699
9.03172
9.02613
9.02023
9.01404
9.00755
9.00079
8.99374
8.98643
8.97884
8.97098
8.96285
8.95445
8.94578
8.93684
8.92762
8.91813
8.90835
8.89829
8.88795
8.87732
8.8664
8.85518
8.84366
8.83184
8.81971
8.80727
8.79451
8.78143
8.76802
8.75428
8.7402
8.72578
8.71101
8.69589
8.68041
8.66457
8.64835
8.63176
8.61478
8.59741
8.57964
8.56148
8.5429
8.5239
8.50448
8.48463
8.46434
8.4436
8.42241
8.40075
8.37863
8.35603
8.33294
8.30936
8.28528
8.26068
8.23557
8.20992
8.18374
8.15701
8.12973
8.10188
8.07345
8.04444
8.01484
7.98463
7.9538
7.92236
7.89027
7.85754
7.82416
7.7901
7.75537
7.71995
7.68383
7.647
7.60944
7.57114
9.05746
9.05414
9.05076
9.04664
9.04212
9.03721
9.03194
9.02635
9.02045
9.01425
9.00777
9.001
8.99396
8.98664
8.97906
8.9712
8.96307
8.95467
8.946
8.93705
8.92783
8.91834
8.90856
8.8985
8.88816
8.87753
8.86661
8.85539
8.84387
8.83205
8.81992
8.80747
8.79471
8.78163
8.76822
8.75448
8.7404
8.72598
8.71121
8.69609
8.68061
8.66476
8.64854
8.63195
8.61497
8.5976
8.57983
8.56166
8.54308
8.52408
8.50466
8.48481
8.46451
8.44377
8.42258
8.40093
8.3788
8.3562
8.33311
8.30952
8.28544
8.26084
8.23572
8.21008
8.18389
8.15716
8.12988
8.10202
8.0736
8.04458
8.01498
7.98477
7.95394
7.92249
7.8904
7.85767
7.82428
7.79023
7.75549
7.72007
7.68395
7.64711
7.60955
7.57125
9.05767
9.05435
9.05096
9.04685
9.04233
9.03742
9.03215
9.02656
9.02066
9.01446
9.00798
9.00121
8.99417
8.98685
8.97926
8.9714
8.96327
8.95487
8.9462
8.93726
8.92804
8.91854
8.90876
8.89871
8.88836
8.87773
8.86681
8.85559
8.84407
8.83224
8.82011
8.80767
8.79491
8.78182
8.76841
8.75467
8.74059
8.72617
8.7114
8.69628
8.6808
8.66495
8.64873
8.63213
8.61515
8.59778
8.58001
8.56184
8.54326
8.52426
8.50484
8.48498
8.46469
8.44394
8.42275
8.40109
8.37896
8.35636
8.33327
8.30968
8.2856
8.261
8.23588
8.21023
8.18404
8.15731
8.13002
8.10217
8.07374
8.04472
8.01511
7.9849
7.95407
7.92262
7.89053
7.8578
7.82441
7.79035
7.75561
7.72019
7.68406
7.64722
7.60966
7.57136
9.05786
9.05455
9.05116
9.04705
9.04253
9.03761
9.03235
9.02676
9.02086
9.01466
9.00817
9.00141
8.99436
8.98705
8.97946
8.9716
8.96347
8.95507
8.9464
8.93745
8.92823
8.91873
8.90896
8.8989
8.88855
8.87792
8.867
8.85578
8.84425
8.83243
8.8203
8.80785
8.79509
8.78201
8.7686