/*--------------------------------*- C++ -*----------------------------------*\
  =========                 |
  \\      /  F ield         | OpenFOAM: The Open Source CFD Toolbox
   \\    /   O peration     | Website:  https://openfoam.org
    \\  /    A nd           | Version:  10
     \\/     M anipulation  |
\*---------------------------------------------------------------------------*/
FoamFile
{
    format      ascii;
    class       volVectorField;
    location    "71000";
    object      U;
}
// * * * * * * * * * * * * * * * * * * * * * * * * * * * * * * * * * * * * * //

dimensions      [0 1 -1 0 0 0 0];

internalField   nonuniform List<vector> 
17922
(
(-2.3547 2.57568 0)
(-2.35202 2.57273 2.91514e-19)
(-2.34918 2.56961 -1.1361e-18)
(-2.34619 2.56633 -3.40597e-24)
(-2.34305 2.56287 2.66782e-19)
(-2.33975 2.55924 5.19646e-19)
(-2.3363 2.55545 8.81517e-24)
(-2.33269 2.55148 2.43654e-19)
(-2.32893 2.54735 -1.82492e-21)
(-2.32502 2.54304 -2.30939e-19)
(-2.32094 2.53856 -1.78422e-18)
(-2.31671 2.5339 0)
(-2.31232 2.52908 0)
(-2.30778 2.52408 -2.02143e-19)
(-2.30308 2.51891 1.97599e-19)
(-2.29822 2.51356 -1.89655e-19)
(-2.2932 2.50804 1.85448e-19)
(-2.28803 2.50236 -7.14985e-19)
(-2.2827 2.4965 -1.72211e-19)
(-2.27721 2.49047 -6.68604e-19)
(-2.27157 2.48427 -4.85871e-19)
(-2.26578 2.47791 1.56197e-19)
(-2.25984 2.47138 -7.61022e-19)
(-2.25374 2.46469 5.88634e-19)
(-2.2475 2.45784 -5.69741e-19)
(-2.24112 2.45084 0)
(-2.2346 2.44368 0)
(-2.22793 2.43638 0)
(-2.2212 2.42901 1.01425e-18)
(-2.21452 2.4217 1.25582e-19)
(-2.20795 2.41451 3.77517e-19)
(-2.2015 2.40747 1.0071e-18)
(-2.19517 2.40057 -4.40523e-19)
(-2.18897 2.39381 4.39526e-19)
(-2.1829 2.3872 -5.0286e-19)
(-2.17696 2.38074 0)
(-2.17116 2.37444 6.25739e-20)
(-2.16548 2.36829 -6.30964e-19)
(-2.15995 2.3623 -3.79458e-19)
(-2.15455 2.35647 -6.34208e-19)
(-2.14929 2.3508 6.40243e-20)
(-2.14416 2.34529 -6.34088e-20)
(-2.13918 2.33994 -4.48382e-19)
(-2.13434 2.33475 -6.39789e-20)
(-2.12965 2.32973 5.18353e-19)
(-2.12509 2.32488 -9.10195e-19)
(-2.12069 2.32019 -8.13625e-22)
(-2.11642 2.31567 -5.2654e-19)
(-2.11231 2.31132 4.62259e-19)
(-2.10834 2.30714 0)
(-2.10452 2.30313 2.67637e-19)
(-2.10085 2.29929 2.69312e-19)
(-2.09733 2.29562 -3.38417e-19)
(-2.09396 2.29212 3.41528e-19)
(-2.09074 2.28879 0)
(-2.08767 2.28564 2.07898e-19)
(-2.08475 2.28266 7.00434e-20)
(-2.08197 2.27984 2.80442e-19)
(-2.07935 2.2772 0)
(-2.07687 2.27473 -2.84415e-19)
(-2.07453 2.27242 0)
(-2.07234 2.27028 7.16555e-20)
(-2.0703 2.2683 -3.63349e-19)
(-2.06839 2.26648 -2.92317e-19)
(-2.06662 2.26482 2.94332e-19)
(-2.06498 2.26332 -2.96283e-19)
(-2.06347 2.26197 2.24112e-19)
(-2.06209 2.26076 -1.50033e-19)
(-2.06083 2.2597 -3.77831e-19)
(-2.05969 2.25878 0)
(-2.05865 2.25799 1.5278e-19)
(-2.05772 2.25733 1.53612e-19)
(-2.05688 2.25678 -2.9528e-23)
(-2.05614 2.25635 2.32441e-19)
(-2.05547 2.25602 -2.34468e-19)
(-2.05489 2.25579 1.56746e-19)
(-2.05438 2.25565 1.57475e-19)
(-2.05393 2.2556 -3.16236e-19)
(-2.05354 2.25562 7.88976e-20)
(-2.0532 2.25571 -8.0105e-20)
(-2.05291 2.25586 2.39329e-19)
(-2.05266 2.25606 -1.60329e-19)
(-2.05245 2.25632 9.56994e-22)
(-2.05228 2.25661 8.10317e-20)
(-2.05214 2.25694 4.03568e-19)
(-2.05202 2.2573 1.35527e-23)
(-2.05193 2.25768 2.43849e-19)
(-2.05186 2.25809 0)
(-2.05181 2.25851 -8.09321e-20)
(-2.05179 2.25894 8.19924e-20)
(-2.05178 2.25938 -1.62798e-19)
(-2.05179 2.25983 8.26674e-20)
(-2.05183 2.26028 1.63683e-19)
(-2.34853 2.58133 -3.06448e-19)
(-2.34585 2.57838 2.95953e-19)
(-2.34302 2.57525 -2.8945e-19)
(-2.34004 2.57196 1.12106e-18)
(-2.3369 2.56849 -2.81371e-25)
(-2.33361 2.56486 -2.63375e-19)
(-2.33017 2.56106 7.70738e-19)
(-2.32658 2.55708 0)
(-2.32282 2.55294 -1.20749e-18)
(-2.31892 2.54862 2.35406e-19)
(-2.31485 2.54413 9.09789e-19)
(-2.31064 2.53947 -8.82333e-19)
(-2.30626 2.53463 0)
(-2.30173 2.52962 0)
(-2.29704 2.52444 0)
(-2.29219 2.51908 9.73054e-19)
(-2.28718 2.51356 7.5322e-19)
(-2.28202 2.50786 5.47739e-19)
(-2.27671 2.50198 1.76271e-19)
(-2.27124 2.49594 5.1393e-19)
(-2.26561 2.48973 -3.24748e-24)
(-2.25984 2.48336 0)
(-2.25391 2.47681 1.54989e-19)
(-2.24783 2.47011 -7.55546e-19)
(-2.24161 2.46325 5.84581e-19)
(-2.23524 2.45623 0)
(-2.22873 2.44906 0)
(-2.22208 2.44174 0)
(-2.21537 2.43435 7.62755e-24)
(-2.2087 2.42702 0)
(-2.20215 2.41982 1.28692e-19)
(-2.19572 2.41276 -1.30157e-19)
(-2.1894 2.40584 1.03328e-18)
(-2.18322 2.39907 3.88122e-19)
(-2.17716 2.39245 1.29943e-19)
(-2.17124 2.38597 0)
(-2.16544 2.37965 -5.17371e-19)
(-2.15978 2.37349 5.18252e-19)
(-2.15426 2.36749 5.839e-19)
(-2.14887 2.36164 4.55262e-19)
(-2.14363 2.35595 -4.57497e-19)
(-2.13852 2.35043 4.58254e-19)
(-2.13355 2.34507 0)
(-2.12872 2.33987 -6.56388e-20)
(-2.12403 2.33484 -5.29996e-19)
(-2.11949 2.32997 1.13387e-18)
(-2.1151 2.32527 6.6598e-20)
(-2.11084 2.32074 4.04241e-19)
(-2.10674 2.31637 -4.73835e-19)
(-2.10278 2.31218 3.40301e-19)
(-2.09897 2.30815 1.37104e-19)
(-2.09531 2.3043 -2.06501e-19)
(-2.0918 2.30062 2.77639e-19)
(-2.08844 2.29711 0)
(-2.08523 2.29377 -6.98871e-20)
(-2.08217 2.2906 7.12071e-20)
(-2.07926 2.28761 2.85004e-19)
(-2.07649 2.28478 -2.86921e-19)
(-2.07387 2.28213 0)
(-2.0714 2.27964 -7.22666e-20)
(-2.06908 2.27732 7.36272e-20)
(-2.0669 2.27517 -7.3241e-20)
(-2.06486 2.27317 5.94215e-19)
(-2.06296 2.27135 3.73708e-19)
(-2.0612 2.26967 0)
(-2.05957 2.26816 0)
(-2.05807 2.2668 -7.5633e-20)
(-2.05669 2.26558 3.83158e-19)
(-2.05544 2.2645 6.15937e-19)
(-2.0543 2.26357 0)
(-2.05327 2.26276 0)
(-2.05234 2.26209 -2.35276e-19)
(-2.05151 2.26153 -1.58262e-19)
(-2.05077 2.26108 -7.95163e-20)
(-2.05011 2.26074 1.58839e-19)
(-2.04954 2.26049 -1.59532e-19)
(-2.04903 2.26034 -1.60186e-19)
(-2.04858 2.26027 8.08637e-20)
(-2.0482 2.26028 1.62307e-19)
(-2.04787 2.26035 1.62842e-19)
(-2.04759 2.26048 9.3482e-22)
(-2.04735 2.26067 -8.09533e-20)
(-2.04715 2.26091 -2.00239e-24)
(-2.04699 2.26119 -2.44964e-19)
(-2.04685 2.26151 -8.15004e-20)
(-2.04675 2.26185 -2.45893e-19)
(-2.04667 2.26222 -8.1774e-20)
(-2.04662 2.26262 0)
(-2.04658 2.26303 0)
(-2.04657 2.26345 2.47204e-19)
(-2.04658 2.26388 -8.26515e-20)
(-2.04661 2.26432 4.74711e-22)
(-2.04667 2.26476 0)
(-2.34215 2.58713 3.06912e-19)
(-2.33948 2.58417 -3.00318e-19)
(-2.33666 2.58104 1.16401e-18)
(-2.33368 2.57773 -1.13126e-18)
(-2.33056 2.57426 -5.49595e-19)
(-2.32728 2.57062 -2.65993e-19)
(-2.32385 2.56681 7.78721e-19)
(-2.32026 2.56283 1.00696e-18)
(-2.31652 2.55868 7.34106e-19)
(-2.31262 2.55435 -7.10658e-19)
(-2.30857 2.54985 0)
(-2.30436 2.54518 1.11566e-18)
(-2.3 2.54033 -2.17548e-19)
(-2.29548 2.53531 -2.09167e-19)
(-2.2908 2.53012 2.04638e-19)
(-2.28596 2.52475 7.90032e-19)
(-2.28097 2.51921 -1.53167e-18)
(-2.27583 2.5135 0)
(-2.27052 2.50761 -5.40396e-19)
(-2.26507 2.50156 -1.80565e-21)
(-2.25946 2.49533 1.34882e-18)
(-2.25369 2.48894 -3.27113e-19)
(-2.24778 2.48239 6.35543e-19)
(-2.24172 2.47567 1.78514e-21)
(-2.23551 2.46879 -5.92801e-19)
(-2.22916 2.46175 1.44861e-19)
(-2.22267 2.45457 0)
(-2.21604 2.44724 1.34109e-19)
(-2.20934 2.43983 -1.19438e-18)
(-2.20269 2.43248 -1.31354e-19)
(-2.19615 2.42527 6.60316e-19)
(-2.18974 2.41819 -5.2657e-19)
(-2.18344 2.41125 -6.56541e-19)
(-2.17727 2.40446 -2.62809e-19)
(-2.17123 2.39782 -2.62802e-19)
(-2.16532 2.39133 6.58226e-19)
(-2.15954 2.385 6.57264e-19)
(-2.15389 2.37882 -1.32682e-19)
(-2.14838 2.3728 0)
(-2.14301 2.36693 -6.61391e-19)
(-2.13777 2.36123 5.33053e-19)
(-2.13268 2.35569 1.34129e-19)
(-2.12772 2.35032 -4.6865e-19)
(-2.1229 2.34511 -6.04883e-19)
(-2.11823 2.34006 6.06712e-19)
(-2.1137 2.33518 -6.77755e-19)
(-2.10931 2.33046 -4.76338e-19)
(-2.10507 2.32592 0)
(-2.10098 2.32154 4.82271e-19)
(-2.09703 2.31733 -4.84148e-19)
(-2.09323 2.31329 -3.47718e-19)
(-2.08958 2.30943 7.04728e-20)
(-2.08608 2.30573 0)
(-2.08273 2.30221 0)
(-2.07953 2.29886 -2.85443e-19)
(-2.07648 2.29568 0)
(-2.07357 2.29267 -2.89155e-19)
(-2.07082 2.28983 0)
(-2.06821 2.28716 2.92916e-19)
(-2.06575 2.28466 0)
(-2.06343 2.28233 0)
(-2.06126 2.28016 0)
(-2.05923 2.27816 -3.00591e-19)
(-2.05734 2.27632 0)
(-2.05558 2.27463 -7.56374e-20)
(-2.05396 2.2731 1.53102e-19)
(-2.05247 2.27173 -1.54013e-19)
(-2.0511 2.2705 -2.31891e-19)
(-2.04985 2.26941 -3.11576e-19)
(-2.04872 2.26846 0)
(-2.04769 2.26764 -1.57443e-19)
(-2.04677 2.26695 1.58253e-19)
(-2.04595 2.26637 1.58997e-19)
(-2.04521 2.26591 0)
(-2.04456 2.26555 0)
(-2.04399 2.26529 8.00709e-20)
(-2.04348 2.26512 -8.12943e-20)
(-2.04305 2.26504 0)
(-2.04267 2.26503 -8.09449e-20)
(-2.04235 2.26509 -8.11795e-20)
(-2.04207 2.26521 0)
(-2.04184 2.26538 3.28252e-19)
(-2.04165 2.2656 1.64494e-19)
(-2.0415 2.26587 -1.64794e-19)
(-2.04137 2.26617 0)
(-2.04128 2.2665 8.31264e-20)
(-2.04122 2.26686 8.32382e-20)
(-2.04117 2.26724 1.65705e-19)
(-2.04116 2.26764 1.65392e-19)
(-2.04116 2.26805 -2.49006e-19)
(-2.04119 2.26847 8.30643e-20)
(-2.04123 2.26891 -9.38098e-22)
(-2.0413 2.26935 -8.36475e-20)
(-2.33557 2.59308 3.11075e-19)
(-2.33291 2.59011 -3.00679e-19)
(-2.33009 2.58697 -5.84785e-19)
(-2.32713 2.58366 8.56648e-19)
(-2.32401 2.58019 2.76294e-19)
(-2.32074 2.57654 -5.38894e-19)
(-2.31732 2.57272 -5.45251e-24)
(-2.31374 2.56873 -2.55277e-19)
(-2.31001 2.56457 2.46037e-19)
(-2.30612 2.56023 7.18526e-19)
(-2.30208 2.55572 0)
(-2.29788 2.55104 0)
(-2.29353 2.54618 -8.77122e-19)
(-2.28902 2.54115 8.51005e-19)
(-2.28436 2.53594 0)
(-2.27954 2.53056 -9.99907e-19)
(-2.27456 2.52501 9.71466e-19)
(-2.26943 2.51929 -7.5281e-19)
(-2.26414 2.51339 1.45963e-18)
(-2.2587 2.50732 -1.7594e-19)
(-2.2531 2.50108 -5.13332e-19)
(-2.24735 2.49468 0)
(-2.24146 2.4881 -6.43892e-19)
(-2.23541 2.48137 -6.23905e-19)
(-2.22922 2.47448 7.54736e-19)
(-2.22288 2.46742 -2.92841e-19)
(-2.21641 2.46022 1.42762e-19)
(-2.2098 2.45287 0)
(-2.20312 2.44545 0)
(-2.19648 2.43808 0)
(-2.18996 2.43085 -5.36892e-19)
(-2.18356 2.42375 0)
(-2.17728 2.4168 -5.35136e-19)
(-2.17113 2.40999 -6.67596e-19)
(-2.1651 2.40334 2.67366e-19)
(-2.15921 2.39683 -6.69616e-19)
(-2.15344 2.39048 0)
(-2.14781 2.38428 0)
(-2.14231 2.37825 0)
(-2.13695 2.37237 1.33815e-19)
(-2.13173 2.36665 4.0431e-19)
(-2.12665 2.3611 -1.34635e-19)
(-2.1217 2.3557 6.80783e-19)
(-2.1169 2.35048 5.46082e-19)
(-2.11224 2.34542 5.48374e-19)
(-2.10772 2.34052 5.5086e-19)
(-2.10335 2.33579 2.91785e-23)
(-2.09912 2.33123 0)
(-2.09503 2.32684 -6.95036e-20)
(-2.0911 2.32262 6.33009e-19)
(-2.08731 2.31857 -2.12474e-19)
(-2.08367 2.31469 -3.55887e-19)
(-2.08018 2.31098 0)
(-2.07684 2.30744 -7.15077e-20)
(-2.07365 2.30407 3.62391e-19)
(-2.07061 2.30088 7.23963e-20)
(-2.06771 2.29786 1.46579e-19)
(-2.06497 2.29501 4.42519e-19)
(-2.06237 2.29233 -4.45334e-19)
(-2.05992 2.28981 3.73871e-19)
(-2.05761 2.28747 -7.47057e-20)
(-2.05545 2.28529 7.6072e-20)
(-2.05342 2.28327 3.04336e-19)
(-2.05154 2.28142 -7.60936e-20)
(-2.04979 2.27972 3.85461e-19)
(-2.04818 2.27818 -3.09798e-19)
(-2.04669 2.27679 0)
(-2.04533 2.27554 3.13321e-19)
(-2.04409 2.27444 7.82818e-20)
(-2.04296 2.27348 -2.37912e-19)
(-2.04194 2.27264 2.39106e-19)
(-2.04103 2.27194 8.03893e-20)
(-2.04021 2.27135 -4.00959e-19)
(-2.03948 2.27087 8.10969e-20)
(-2.03883 2.2705 0)
(-2.03827 2.27022 1.62509e-19)
(-2.03777 2.27004 3.26177e-19)
(-2.03734 2.26994 0)
(-2.03697 2.26991 -2.45684e-19)
(-2.03665 2.26995 1.64536e-19)
(-2.03639 2.27006 -2.47866e-19)
(-2.03616 2.27022 -2.47465e-19)
(-2.03598 2.27043 9.49968e-22)
(-2.03584 2.27068 4.15136e-19)
(-2.03573 2.27097 0)
(-2.03564 2.27129 -8.36283e-20)
(-2.03559 2.27163 8.27406e-20)
(-2.03556 2.272 -2.50334e-19)
(-2.03556 2.27239 -2.50015e-19)
(-2.03558 2.27279 8.33812e-20)
(-2.03562 2.27321 -8.34112e-20)
(-2.03568 2.27364 8.39219e-20)
(-2.03576 2.27407 0)
(-2.32878 2.59919 9.37468e-19)
(-2.32612 2.59621 -3.02808e-19)
(-2.32332 2.59307 2.96537e-19)
(-2.32036 2.58975 -5.74988e-19)
(-2.31725 2.58627 0)
(-2.31399 2.58261 0)
(-2.31058 2.57879 5.2844e-19)
(-2.30701 2.57479 -1.0271e-18)
(-2.30329 2.57061 -2.4852e-19)
(-2.29942 2.56627 2.43299e-19)
(-2.29539 2.56175 9.41439e-19)
(-2.2912 2.55705 1.14171e-18)
(-2.28686 2.55219 6.64635e-19)
(-2.28237 2.54714 -1.72271e-18)
(-2.27771 2.54193 -8.35887e-19)
(-2.27291 2.53653 -2.01818e-19)
(-2.26794 2.53097 1.97634e-19)
(-2.26282 2.52523 5.73305e-19)
(-2.25755 2.51932 -1.11018e-18)
(-2.25212 2.51324 -1.80348e-19)
(-2.24654 2.50698 -1.73031e-19)
(-2.24081 2.50056 1.69571e-19)
(-2.23493 2.49398 8.16486e-19)
(-2.2289 2.48723 1.26585e-18)
(-2.22273 2.48031 -3.07168e-19)
(-2.21641 2.47325 2.97703e-19)
(-2.20995 2.46603 -1.83672e-21)
(-2.20336 2.45866 -1.40658e-19)
(-2.1967 2.45121 -1.36394e-19)
(-2.19008 2.44383 6.85445e-19)
(-2.18358 2.43658 0)
(-2.1772 2.42947 -4.09684e-19)
(-2.17093 2.4225 2.72163e-19)
(-2.1648 2.41567 6.80764e-19)
(-2.15878 2.409 0)
(-2.1529 2.40248 -6.79121e-19)
(-2.14715 2.39611 1.37003e-19)
(-2.14154 2.3899 0)
(-2.13605 2.38384 5.46272e-19)
(-2.13071 2.37795 0)
(-2.1255 2.37221 -4.12652e-19)
(-2.12043 2.36664 4.12161e-19)
(-2.1155 2.36124 -1.37282e-19)
(-2.11071 2.35599 5.5645e-19)
(-2.10606 2.35092 -4.1688e-19)
(-2.10155 2.34601 -6.98416e-19)
(-2.09719 2.34126 5.6378e-19)
(-2.09298 2.33669 1.42063e-19)
(-2.0889 2.33228 -1.13525e-18)
(-2.08498 2.32805 -2.8532e-19)
(-2.0812 2.32398 1.64376e-23)
(-2.07758 2.32009 3.6016e-19)
(-2.0741 2.31636 -7.29744e-20)
(-2.07077 2.31281 0)
(-2.06759 2.30944 0)
(-2.06455 2.30623 -7.33815e-20)
(-2.06167 2.30319 -2.22391e-19)
(-2.05893 2.30033 -2.98917e-19)
(-2.05635 2.29763 0)
(-2.0539 2.29511 -2.52512e-23)
(-2.05161 2.29275 0)
(-2.04945 2.29056 0)
(-2.04744 2.28853 -6.15978e-19)
(-2.04556 2.28666 -3.09763e-19)
(-2.04383 2.28495 -3.11557e-19)
(-2.04222 2.28339 7.78864e-20)
(-2.04074 2.28199 -7.92064e-20)
(-2.03939 2.28073 2.37924e-19)
(-2.03815 2.27962 -2.38198e-19)
(-2.03703 2.27864 1.59907e-19)
(-2.03602 2.27779 -3.21294e-19)
(-2.03511 2.27707 8.11455e-20)
(-2.0343 2.27646 2.43548e-19)
(-2.03357 2.27597 0)
(-2.03293 2.27558 0)
(-2.03237 2.27529 -1.63872e-19)
(-2.03188 2.27509 -3.28773e-19)
(-2.03146 2.27498 0)
(-2.0311 2.27494 1.65292e-19)
(-2.03079 2.27496 8.23671e-20)
(-2.03053 2.27505 1.65092e-19)
(-2.03031 2.2752 -2.49976e-19)
(-2.03014 2.27539 -1.66589e-19)
(-2.03001 2.27563 -1.66822e-19)
(-2.02991 2.27591 -1.66982e-19)
(-2.02984 2.27621 0)
(-2.02979 2.27655 -3.34472e-19)
(-2.02978 2.27691 1.67321e-19)
(-2.02979 2.27729 0)
(-2.02982 2.27768 8.37049e-20)
(-2.02987 2.27809 0)
(-2.02995 2.27851 -8.37244e-20)
(-2.03005 2.27894 -8.37396e-20)
(-2.32177 2.60546 -9.41175e-19)
(-2.31912 2.60248 1.22303e-18)
(-2.31632 2.59933 -1.9628e-21)
(-2.31338 2.596 2.88638e-19)
(-2.31028 2.59251 0)
(-2.30703 2.58885 -5.48127e-19)
(-2.30362 2.58501 -5.3303e-19)
(-2.30007 2.581 -1.29459e-18)
(-2.29636 2.57682 2.52828e-19)
(-2.2925 2.57246 -9.7903e-19)
(-2.28848 2.56793 -1.18807e-18)
(-2.2843 2.56323 -6.92053e-19)
(-2.27998 2.55835 0)
(-2.27549 2.5533 -2.16879e-19)
(-2.27086 2.54807 1.26894e-18)
(-2.26606 2.54266 -2.06234e-19)
(-2.26111 2.53708 7.96895e-19)
(-2.25601 2.53133 0)
(-2.25075 2.52541 8.39267e-24)
(-2.24534 2.51931 -7.2773e-19)
(-2.23978 2.51304 7.05845e-19)
(-2.23406 2.50661 -6.8454e-19)
(-2.2282 2.5 6.6381e-19)
(-2.22219 2.49324 -6.43663e-19)
(-2.21603 2.48631 0)
(-2.20973 2.47922 0)
(-2.20329 2.47199 4.40864e-19)
(-2.19672 2.4646 1.43025e-19)
(-2.19007 2.45714 0)
(-2.18347 2.44973 -5.5691e-19)
(-2.17699 2.44247 0)
(-2.17062 2.43534 5.54212e-19)
(-2.16438 2.42835 -1.37442e-19)
(-2.15826 2.4215 -5.51121e-19)
(-2.15226 2.41481 2.7639e-19)
(-2.1464 2.40827 4.13817e-19)
(-2.14066 2.40189 0)
(-2.13506 2.39566 6.91712e-19)
(-2.1296 2.38959 -5.56844e-19)
(-2.12426 2.38367 -1.77679e-21)
(-2.11907 2.37792 5.55913e-19)
(-2.11401 2.37234 -5.61128e-19)
(-2.1091 2.36691 -2.80594e-19)
(-2.10432 2.36166 -4.2155e-19)
(-2.09968 2.35656 1.40474e-19)
(-2.09519 2.35164 -2.83911e-19)
(-2.09084 2.34688 -4.26873e-19)
(-2.08664 2.34229 -1.42369e-19)
(-2.08258 2.33787 1.29656e-18)
(-2.07867 2.33362 0)
(-2.0749 2.32954 2.90923e-19)
(-2.07129 2.32563 0)
(-2.06782 2.32189 2.94096e-19)
(-2.0645 2.31833 0)
(-2.06133 2.31494 0)
(-2.05831 2.31172 -4.47839e-19)
(-2.05544 2.30867 4.52263e-19)
(-2.05271 2.30579 7.52107e-20)
(-2.05013 2.30308 -9.13915e-22)
(-2.0477 2.30055 -3.83229e-19)
(-2.04542 2.29817 -3.07963e-19)
(-2.04327 2.29597 0)
(-2.04127 2.29392 2.7754e-23)
(-2.0394 2.29204 3.13226e-19)
(-2.03767 2.29032 7.82607e-20)
(-2.03608 2.28875 2.36984e-19)
(-2.03461 2.28733 0)
(-2.03326 2.28606 -2.40333e-19)
(-2.03203 2.28493 2.40542e-19)
(-2.03092 2.28394 -8.02271e-20)
(-2.02991 2.28308 8.15456e-20)
(-2.02901 2.28234 -8.18785e-20)
(-2.0282 2.28172 -8.21876e-20)
(-2.02749 2.28121 0)
(-2.02685 2.28081 0)
(-2.0263 2.28051 8.20723e-20)
(-2.02582 2.28029 1.6463e-19)
(-2.0254 2.28016 -9.59881e-22)
(-2.02504 2.2801 -1.67366e-19)
(-2.02474 2.28012 -9.60908e-22)
(-2.02449 2.28019 -1.67027e-19)
(-2.02429 2.28032 4.18676e-19)
(-2.02412 2.2805 1.67492e-19)
(-2.024 2.28073 0)
(-2.02391 2.28099 1.67778e-19)
(-2.02385 2.28129 0)
(-2.02382 2.28161 1.36356e-23)
(-2.02381 2.28196 0)
(-2.02384 2.28233 8.34922e-20)
(-2.02388 2.28272 -9.49661e-22)
(-2.02395 2.28312 -8.39511e-20)
(-2.02404 2.28354 8.44144e-20)
(-2.02416 2.28396 1.67393e-19)
(-2.31453 2.6119 6.31527e-19)
(-2.3119 2.60891 -9.21695e-19)
(-2.30911 2.60575 3.00485e-19)
(-2.30617 2.60242 0)
(-2.30308 2.59892 0)
(-2.29984 2.59525 5.52333e-19)
(-2.29645 2.5914 0)
(-2.2929 2.58738 1.04531e-18)
(-2.2892 2.58319 1.01648e-18)
(-2.28535 2.57883 2.22257e-18)
(-2.28135 2.57428 -2.41117e-19)
(-2.27719 2.56957 0)
(-2.27287 2.56468 0)
(-2.2684 2.55961 8.81061e-19)
(-2.26378 2.55437 8.557e-19)
(-2.259 2.54895 2.06768e-19)
(-2.25407 2.54336 -1.00938e-18)
(-2.24898 2.53759 0)
(-2.24373 2.53165 8.20507e-24)
(-2.23834 2.52554 8.30259e-24)
(-2.23279 2.51926 -7.15672e-19)
(-2.22709 2.51281 1.72636e-19)
(-2.22125 2.50619 -8.4289e-19)
(-2.21525 2.4994 1.62382e-19)
(-2.20911 2.49246 -1.89876e-21)
(-2.20283 2.48536 -1.5459e-19)
(-2.19641 2.4781 -5.96023e-19)
(-2.18986 2.4707 -1.15539e-18)
(-2.18323 2.46321 -1.13558e-18)
(-2.17665 2.45579 0)
(-2.17019 2.44851 1.4019e-19)
(-2.16384 2.44136 -1.41744e-19)
(-2.15761 2.43435 0)
(-2.15151 2.42749 5.61885e-19)
(-2.14553 2.42078 -4.22162e-19)
(-2.13969 2.41422 -2.80881e-19)
(-2.13397 2.40782 2.81073e-19)
(-2.12838 2.40157 -7.04417e-19)
(-2.12293 2.39548 -5.63705e-19)
(-2.11761 2.38955 0)
(-2.11243 2.38379 -1.27314e-18)
(-2.10739 2.37818 1.42856e-19)
(-2.10249 2.37274 -1.41504e-19)
(-2.09773 2.36747 1.43798e-19)
(-2.09311 2.36236 -4.31204e-19)
(-2.08863 2.35742 -1.44917e-19)
(-2.08429 2.35264 1.01335e-18)
(-2.0801 2.34804 1.46188e-19)
(-2.07606 2.3436 -5.83906e-19)
(-2.07216 2.33934 0)
(-2.06841 2.33524 2.94853e-19)
(-2.0648 2.33132 -2.96386e-19)
(-2.06135 2.32757 -2.9798e-19)
(-2.05804 2.32399 -1.48879e-19)
(-2.05488 2.32059 1.51529e-19)
(-2.05187 2.31735 3.02914e-19)
(-2.04901 2.31429 -1.5323e-19)
(-2.0463 2.3114 -4.60361e-19)
(-2.04373 2.30868 4.61084e-19)
(-2.04131 2.30613 1.53928e-19)
(-2.03903 2.30374 3.11455e-19)
(-2.0369 2.30152 1.55636e-19)
(-2.0349 2.29947 1.56493e-19)
(-2.03305 2.29757 -1.57302e-19)
(-2.03133 2.29583 -1.58106e-19)
(-2.02974 2.29425 0)
(-2.02828 2.29282 -7.98428e-20)
(-2.02694 2.29154 -2.41594e-19)
(-2.02572 2.29039 3.24217e-19)
(-2.02462 2.28938 -8.09285e-20)
(-2.02362 2.28851 1.64445e-19)
(-2.02272 2.28776 8.25333e-20)
(-2.02192 2.28712 -8.18706e-20)
(-2.02121 2.2866 9.61935e-22)
(-2.02058 2.28618 3.31531e-19)
(-2.02004 2.28586 -8.36013e-20)
(-2.01956 2.28563 0)
(-2.01915 2.28549 -8.30385e-20)
(-2.0188 2.28542 -8.31992e-20)
(-2.01851 2.28541 0)
(-2.01827 2.28548 1.67898e-19)
(-2.01807 2.28559 -1.68109e-19)
(-2.01792 2.28576 -8.36424e-20)
(-2.0178 2.28597 8.46606e-20)
(-2.01772 2.28622 1.68423e-19)
(-2.01767 2.28651 0)
(-2.01765 2.28682 1.6847e-19)
(-2.01766 2.28716 8.46919e-20)
(-2.01769 2.28752 4.78077e-22)
(-2.01775 2.2879 -4.74721e-22)
(-2.01783 2.2883 -2.5238e-19)
(-2.01794 2.28871 8.5039e-20)
(-2.01807 2.28914 8.45323e-20)
(-2.30707 2.61851 -1.26918e-18)
(-2.30444 2.61551 0)
(-2.30166 2.61234 0)
(-2.29873 2.60901 5.84777e-19)
(-2.29565 2.6055 -5.73345e-19)
(-2.29242 2.60181 -2.79109e-19)
(-2.28904 2.59796 -5.41386e-19)
(-2.2855 2.59393 5.2681e-19)
(-2.28182 2.58973 -1.53754e-18)
(-2.27798 2.58535 -9.95015e-19)
(-2.27399 2.5808 4.84742e-19)
(-2.26984 2.57607 -2.36619e-19)
(-2.26554 2.57117 -9.16176e-19)
(-2.26108 2.56609 1.11197e-18)
(-2.25647 2.56084 -1.08236e-18)
(-2.25171 2.55541 1.04952e-18)
(-2.24679 2.5498 -2.05037e-19)
(-2.24172 2.54402 7.92675e-19)
(-2.23649 2.53807 7.69658e-19)
(-2.23111 2.53194 8.00578e-24)
(-2.22558 2.52564 0)
(-2.2199 2.51917 5.28907e-19)
(-2.21407 2.51254 -5.11362e-19)
(-2.2081 2.50574 0)
(-2.20198 2.49877 0)
(-2.19572 2.49165 1.55029e-19)
(-2.18932 2.48438 -1.523e-19)
(-2.18278 2.47695 1.45786e-19)
(-2.17617 2.46945 8.65431e-19)
(-2.16962 2.46201 1.44752e-19)
(-2.16317 2.4547 0)
(-2.15684 2.44753 0)
(-2.15063 2.44051 -4.29411e-19)
(-2.14455 2.43363 -1.43609e-19)
(-2.13859 2.4269 7.12131e-19)
(-2.13276 2.42032 -2.85235e-19)
(-2.12706 2.4139 -5.68945e-19)
(-2.12149 2.40763 8.57071e-19)
(-2.11605 2.40153 1.00049e-18)
(-2.11075 2.39558 0)
(-2.10559 2.3898 5.74644e-19)
(-2.10056 2.38418 -5.76151e-19)
(-2.09567 2.37872 -1.43557e-19)
(-2.09093 2.37343 1.45861e-19)
(-2.08632 2.36831 5.81895e-19)
(-2.08186 2.36335 0)
(-2.07753 2.35856 -7.32258e-19)
(-2.07336 2.35394 8.83579e-19)
(-2.06933 2.34949 -1.48846e-19)
(-2.06544 2.34521 1.49538e-19)
(-2.0617 2.3411 -5.95558e-19)
(-2.05811 2.33716 4.51208e-19)
(-2.05467 2.3334 1.49936e-19)
(-2.05137 2.32981 -1.52565e-19)
(-2.04823 2.32639 1.51514e-19)
(-2.04523 2.32314 -1.54179e-19)
(-2.04238 2.32006 0)
(-2.03968 2.31716 3.09805e-19)
(-2.03712 2.31442 -3.11462e-19)
(-2.03471 2.31186 -2.45431e-23)
(-2.03245 2.30946 -3.14741e-19)
(-2.03033 2.30722 0)
(-2.02834 2.30516 -1.58054e-19)
(-2.0265 2.30325 3.1959e-19)
(-2.02479 2.3015 3.21159e-19)
(-2.02321 2.2999 3.22669e-19)
(-2.02176 2.29846 -1.63028e-19)
(-2.02043 2.29716 3.25592e-19)
(-2.01921 2.296 -4.91383e-19)
(-2.01812 2.29498 -9.67644e-22)
(-2.01713 2.29409 0)
(-2.01624 2.29332 1.65325e-19)
(-2.01544 2.29267 -1.65871e-19)
(-2.01474 2.29214 1.66376e-19)
(-2.01412 2.2917 -3.33696e-19)
(-2.01358 2.29137 -2.50405e-19)
(-2.01311 2.29112 8.43038e-20)
(-2.01271 2.29096 1.67958e-19)
(-2.01237 2.29088 1.68254e-19)
(-2.01208 2.29086 0)
(-2.01185 2.29091 -8.48265e-20)
(-2.01166 2.29101 -1.68801e-19)
(-2.01152 2.29117 8.49324e-20)
(-2.01141 2.29137 0)
(-2.01134 2.29161 -3.37935e-19)
(-2.0113 2.29188 1.68939e-19)
(-2.01129 2.29219 8.39648e-20)
(-2.01131 2.29252 -1.69776e-19)
(-2.01136 2.29287 -4.73854e-22)
(-2.01143 2.29324 1.686e-19)
(-2.01152 2.29364 0)
(-2.01164 2.29404 -8.41813e-20)
(-2.01178 2.29446 8.36581e-20)
(-2.29936 2.62529 6.37283e-19)
(-2.29674 2.62228 6.19277e-19)
(-2.29397 2.61911 -6.07524e-19)
(-2.29105 2.61576 5.88043e-19)
(-2.28798 2.61224 -5.76805e-19)
(-2.28476 2.60855 1.1177e-18)
(-2.28139 2.60469 -1.99039e-21)
(-2.27787 2.60065 1.06139e-18)
(-2.27419 2.59644 5.14532e-19)
(-2.27037 2.59205 1.22795e-24)
(-2.26639 2.58749 -1.20341e-24)
(-2.26225 2.58275 7.10408e-19)
(-2.25797 2.57783 6.92732e-19)
(-2.25353 2.57274 -1.57472e-18)
(-2.24893 2.56747 -1.09365e-18)
(-2.24418 2.56203 -8.49537e-19)
(-2.23928 2.55641 0)
(-2.23422 2.55061 -1.00146e-18)
(-2.22902 2.54465 1.96246e-21)
(-2.22365 2.5385 1.7032e-18)
(-2.21814 2.53219 0)
(-2.21248 2.5257 -1.77342e-19)
(-2.20667 2.51905 1.74103e-19)
(-2.20071 2.51223 -1.67069e-19)
(-2.19461 2.50525 1.95524e-21)
(-2.18837 2.49811 1.59285e-19)
(-2.18199 2.49082 -6.14551e-19)
(-2.17548 2.48337 1.19211e-18)
(-2.16889 2.47585 -1.45522e-19)
(-2.16235 2.46839 1.47016e-19)
(-2.15593 2.46106 7.27093e-19)
(-2.14962 2.45387 -7.27308e-19)
(-2.14343 2.44683 1.16017e-18)
(-2.13736 2.43993 -5.79417e-19)
(-2.13142 2.43318 -7.22904e-19)
(-2.12561 2.42658 5.8092e-19)
(-2.11992 2.42014 8.68957e-19)
(-2.11437 2.41386 -7.25721e-19)
(-2.10895 2.40774 -5.80612e-19)
(-2.10367 2.40177 0)
(-2.09852 2.39597 0)
(-2.09351 2.39033 5.8433e-19)
(-2.08864 2.38486 -4.40397e-19)
(-2.08391 2.37955 -1.47877e-19)
(-2.07932 2.37441 -5.8981e-19)
(-2.07487 2.36944 -4.44909e-19)
(-2.07056 2.36463 -2.97151e-19)
(-2.0664 2.35999 -4.4666e-19)
(-2.06238 2.35553 0)
(-2.05851 2.35123 -1.51446e-19)
(-2.05479 2.34711 6.02968e-19)
(-2.05121 2.34316 -3.03853e-19)
(-2.04778 2.33938 1.53601e-19)
(-2.0445 2.33577 0)
(-2.04136 2.33234 -1.55129e-19)
(-2.03838 2.32907 -4.65874e-19)
(-2.03554 2.32598 0)
(-2.03285 2.32307 -4.68748e-19)
(-2.03031 2.32032 4.73027e-19)
(-2.02791 2.31774 -3.16333e-19)
(-2.02566 2.31533 3.17914e-19)
(-2.02355 2.31308 -1.58779e-19)
(-2.02157 2.311 1.61458e-19)
(-2.01974 2.30908 -3.22512e-19)
(-2.01804 2.30731 -6.48012e-19)
(-2.01647 2.3057 1.63673e-19)
(-2.01503 2.30424 1.64381e-19)
(-2.01371 2.30293 1.63121e-19)
(-2.0125 2.30176 1.63781e-19)
(-2.01141 2.30072 -1.58544e-23)
(-2.01043 2.29982 -1.65905e-19)
(-2.00955 2.29904 -1.66457e-19)
(-2.00876 2.29837 1.65986e-19)
(-2.00807 2.29782 -5.02205e-19)
(-2.00746 2.29738 6.71243e-19)
(-2.00692 2.29703 -3.36334e-19)
(-2.00646 2.29677 1.95135e-21)
(-2.00606 2.29659 -5.89381e-24)
(-2.00573 2.29649 -1.69967e-19)
(-2.00545 2.29646 8.40971e-20)
(-2.00523 2.2965 8.41579e-20)
(-2.00505 2.29659 8.4205e-20)
(-2.00491 2.29673 1.68447e-19)
(-2.00482 2.29692 -8.51939e-20)
(-2.00476 2.29714 1.69387e-19)
(-2.00473 2.29741 -3.38608e-19)
(-2.00473 2.2977 0)
(-2.00476 2.29803 1.6906e-19)
(-2.00482 2.29837 8.4455e-20)
(-2.0049 2.29874 -1.68275e-19)
(-2.005 2.29913 8.42906e-20)
(-2.00513 2.29953 -8.42081e-20)
(-2.00528 2.29995 4.69946e-22)
(-2.2914 2.63224 -1.28119e-18)
(-2.28879 2.62923 0)
(-2.28603 2.62605 0)
(-2.28312 2.6227 -5.92978e-19)
(-2.28006 2.61917 -5.77934e-19)
(-2.27685 2.61547 0)
(-2.27349 2.6116 -5.48595e-19)
(-2.26998 2.60755 -1.0686e-18)
(-2.26632 2.60332 -5.18254e-19)
(-2.26251 2.59893 -2.02188e-18)
(-2.25854 2.59435 1.48081e-18)
(-2.25443 2.5896 -1.91865e-18)
(-2.25015 2.58467 1.39794e-18)
(-2.24573 2.57957 1.35967e-18)
(-2.24115 2.57428 6.74487e-24)
(-2.23642 2.56883 0)
(-2.23153 2.56319 0)
(-2.22649 2.55738 0)
(-2.2213 2.5514 0)
(-2.21596 2.54524 -5.75213e-19)
(-2.21046 2.53891 -1.86931e-19)
(-2.20482 2.5324 0)
(-2.19903 2.52573 7.01627e-19)
(-2.19309 2.5189 1.69343e-19)
(-2.18701 2.5119 -1.66385e-19)
(-2.18079 2.50474 6.42335e-19)
(-2.17443 2.49742 6.23625e-19)
(-2.16793 2.48996 -1.21008e-18)
(-2.16137 2.48242 1.47739e-19)
(-2.15485 2.47494 4.43811e-19)
(-2.14845 2.46759 -1.04675e-23)
(-2.14216 2.46038 4.43331e-19)
(-2.13599 2.45331 2.94349e-19)
(-2.12994 2.44639 4.4004e-19)
(-2.12402 2.43963 5.87584e-19)
(-2.11823 2.43301 -7.33389e-19)
(-2.11256 2.42655 1.4786e-19)
(-2.10703 2.42025 0)
(-2.10163 2.4141 0)
(-2.09636 2.40812 0)
(-2.09123 2.4023 0)
(-2.08624 2.39665 7.39411e-19)
(-2.08138 2.39115 4.44471e-19)
(-2.07667 2.38583 7.43575e-19)
(-2.07209 2.38067 -1.503e-19)
(-2.06766 2.37568 5.99646e-19)
(-2.06337 2.37086 0)
(-2.05922 2.36621 -1.50116e-19)
(-2.05522 2.36172 1.52615e-19)
(-2.05136 2.35741 1.51385e-19)
(-2.04765 2.35327 -4.5995e-19)
(-2.04409 2.34931 -3.07385e-19)
(-2.04067 2.34551 0)
(-2.0374 2.34189 -1.54194e-19)
(-2.03428 2.33844 4.68608e-19)
(-2.03131 2.33517 1.57599e-19)
(-2.02849 2.33206 4.73129e-19)
(-2.02581 2.32913 2.20261e-23)
(-2.02328 2.32637 -7.93659e-19)
(-2.0209 2.32377 4.79994e-19)
(-2.01865 2.32135 1.59477e-19)
(-2.01655 2.31909 -4.84497e-19)
(-2.01459 2.31699 1.60951e-19)
(-2.01277 2.31506 3.23352e-19)
(-2.01108 2.31328 1.91046e-23)
(-2.00952 2.31166 -1.95553e-23)
(-2.00809 2.31019 -9.29355e-24)
(-2.00678 2.30886 1.94604e-21)
(-2.00558 2.30767 3.3273e-19)
(-2.0045 2.30662 -1.66452e-19)
(-2.00353 2.3057 1.66976e-19)
(-2.00265 2.30491 0)
(-2.00188 2.30423 5.02719e-19)
(-2.00119 2.30367 -1.95933e-21)
(-2.00058 2.3032 -5.0696e-19)
(-2.00006 2.30284 -1.67974e-19)
(-1.9996 2.30257 1.70214e-19)
(-1.99921 2.30238 1.69461e-19)
(-1.99889 2.30226 1.68641e-19)
(-1.99862 2.30222 -1.7169e-19)
(-1.9984 2.30224 -3.4061e-19)
(-1.99823 2.30232 -1.69835e-19)
(-1.99811 2.30245 -1.27351e-23)
(-1.99802 2.30262 0)
(-1.99797 2.30284 -1.68698e-19)
(-1.99795 2.3031 3.40041e-19)
(-1.99796 2.30338 0)
(-1.998 2.3037 -1.69195e-19)
(-1.99807 2.30404 -1.68989e-19)
(-1.99816 2.3044 -8.43873e-20)
(-1.99827 2.30478 1.68089e-19)
(-1.99841 2.30518 -1.68828e-19)
(-1.99857 2.3056 -2.08401e-25)
(-2.28319 2.63938 2.01593e-21)
(-2.28058 2.63636 -6.21944e-19)
(-2.27783 2.63317 1.2213e-18)
(-2.27493 2.62981 5.9356e-19)
(-2.27189 2.62627 5.80725e-19)
(-2.26869 2.62256 -5.64094e-19)
(-2.26534 2.61868 -5.47707e-19)
(-2.26185 2.61462 5.39617e-19)
(-2.2582 2.61039 -1.04742e-18)
(-2.2544 2.60598 2.04025e-18)
(-2.25045 2.60139 1.48795e-18)
(-2.24634 2.59663 4.81489e-19)
(-2.24209 2.59168 4.68562e-19)
(-2.23768 2.58657 -1.37577e-18)
(-2.23311 2.58127 1.78201e-18)
(-2.2284 2.5758 -4.31326e-19)
(-2.22353 2.57015 4.23431e-19)
(-2.2185 2.56432 8.19525e-19)
(-2.21333 2.55832 -3.96347e-19)
(-2.20801 2.55215 3.89208e-19)
(-2.20253 2.5458 -7.52606e-19)
(-2.19691 2.53928 0)
(-2.19114 2.53259 5.33908e-19)
(-2.18522 2.52573 1.73572e-19)
(-2.17916 2.51871 -6.70512e-19)
(-2.17296 2.51154 -6.51271e-19)
(-2.16662 2.5042 6.32522e-19)
(-2.16015 2.49672 1.38027e-18)
(-2.15361 2.48915 -1.51932e-19)
(-2.14711 2.48165 1.49439e-19)
(-2.14073 2.47428 -7.50858e-19)
(-2.13446 2.46705 0)
(-2.12831 2.45997 -5.9722e-19)
(-2.12229 2.45303 7.44517e-19)
(-2.11639 2.44624 4.45955e-19)
(-2.11061 2.4396 0)
(-2.10496 2.43312 -1.4799e-19)
(-2.09945 2.4268 2.98091e-19)
(-2.09407 2.42064 -1.50159e-19)
(-2.08882 2.41464 4.49203e-19)
(-2.08371 2.4088 1.90674e-21)
(-2.07873 2.40312 -5.98156e-19)
(-2.07389 2.39761 3.00766e-19)
(-2.06919 2.39227 -7.5497e-19)
(-2.06463 2.38709 7.55368e-19)
(-2.06021 2.38209 -1.52707e-19)
(-2.05594 2.37725 1.51342e-19)
(-2.05181 2.37258 -1.53808e-19)
(-2.04782 2.36808 6.13808e-19)
(-2.04398 2.36375 -3.0815e-19)
(-2.04029 2.3596 -1.53772e-19)
(-2.03674 2.35562 4.67139e-19)
(-2.03334 2.35181 0)
(-2.03008 2.34817 -1.55822e-19)
(-2.02698 2.34471 1.58447e-19)
(-2.02402 2.34142 0)
(-2.02121 2.3383 -3.17887e-19)
(-2.01855 2.33535 6.38668e-19)
(-2.01603 2.33258 1.61372e-19)
(-2.01366 2.32997 -4.82392e-19)
(-2.01143 2.32753 1.60865e-19)
(-2.00934 2.32526 1.61586e-19)
(-2.00739 2.32315 -3.26454e-19)
(-2.00558 2.3212 0)
(-2.0039 2.31941 -1.63587e-19)