/*--------------------------------*- C++ -*----------------------------------*\
  =========                 |
  \\      /  F ield         | OpenFOAM: The Open Source CFD Toolbox
   \\    /   O peration     | Website:  https://openfoam.org
    \\  /    A nd           | Version:  10
     \\/     M anipulation  |
\*---------------------------------------------------------------------------*/
FoamFile
{
    format      ascii;
    class       volVectorField;
    location    "71000";
    object      Urel;
}
// * * * * * * * * * * * * * * * * * * * * * * * * * * * * * * * * * * * * * //

dimensions      [0 1 -1 0 0 0 0];

internalField   nonuniform List<vector> 
17922
(
(2.49869 -2.73424 0)
(2.48381 -2.71798 2.91514e-19)
(2.46878 -2.70156 -1.1361e-18)
(2.45359 -2.68496 -3.40597e-24)
(2.43822 -2.66817 2.66782e-19)
(2.42269 -2.6512 5.19646e-19)
(2.40697 -2.63404 8.81517e-24)
(2.39108 -2.61668 2.43654e-19)
(2.37499 -2.59911 -1.82492e-21)
(2.35871 -2.58133 -2.30939e-19)
(2.34223 -2.56334 -1.78422e-18)
(2.32555 -2.54512 0)
(2.30865 -2.52667 0)
(2.29154 -2.50798 -2.02143e-19)
(2.2742 -2.48905 1.97599e-19)
(2.25663 -2.46986 -1.89655e-19)
(2.23883 -2.45042 1.85448e-19)
(2.22077 -2.43071 -7.14985e-19)
(2.20247 -2.41072 -1.72211e-19)
(2.1839 -2.39044 -6.68604e-19)
(2.16506 -2.36987 -4.85871e-19)
(2.14595 -2.34899 1.56197e-19)
(2.12655 -2.3278 -7.61022e-19)
(2.10685 -2.30628 5.88634e-19)
(2.08684 -2.28443 -5.69741e-19)
(2.06651 -2.26222 0)
(2.04585 -2.23964 0)
(2.02485 -2.21669 0)
(2.00368 -2.19355 1.01425e-18)
(1.9827 -2.17062 1.25582e-19)
(1.96209 -2.14807 3.77517e-19)
(1.94183 -2.1259 1.0071e-18)
(1.9219 -2.1041 -4.40523e-19)
(1.90231 -2.08264 4.39526e-19)
(1.88303 -2.06153 -5.0286e-19)
(1.86406 -2.04075 0)
(1.84539 -2.02028 6.25739e-20)
(1.82701 -2.00013 -6.30964e-19)
(1.80891 -1.98027 -3.79458e-19)
(1.79109 -1.9607 -6.34208e-19)
(1.77352 -1.94141 6.40243e-20)
(1.75622 -1.92239 -6.34088e-20)
(1.73916 -1.90363 -4.48382e-19)
(1.72234 -1.88513 -6.39789e-20)
(1.70575 -1.86687 5.18353e-19)
(1.68939 -1.84885 -9.10195e-19)
(1.67324 -1.83106 -8.13625e-22)
(1.65731 -1.81349 -5.2654e-19)
(1.64158 -1.79614 4.62259e-19)
(1.62604 -1.77899 0)
(1.6107 -1.76205 2.67637e-19)
(1.59553 -1.74529 2.69312e-19)
(1.58055 -1.72872 -3.38417e-19)
(1.56573 -1.71233 3.41528e-19)
(1.55108 -1.69611 0)
(1.53659 -1.68006 2.07898e-19)
(1.52226 -1.66417 7.00434e-20)
(1.50807 -1.64844 2.80442e-19)
(1.49403 -1.63285 0)
(1.48013 -1.61742 -2.84415e-19)
(1.46638 -1.60213 0)
(1.45275 -1.58697 7.16555e-20)
(1.43926 -1.57196 -3.63349e-19)
(1.4259 -1.55707 -2.92317e-19)
(1.41266 -1.54232 2.94332e-19)
(1.39955 -1.5277 -2.96283e-19)
(1.38657 -1.5132 2.24112e-19)
(1.37371 -1.49883 -1.50033e-19)
(1.36098 -1.48459 -3.77831e-19)
(1.34837 -1.47048 0)
(1.3359 -1.45649 1.5278e-19)
(1.32355 -1.44263 1.53612e-19)
(1.31134 -1.42891 -2.9528e-23)
(1.29926 -1.41532 2.32441e-19)
(1.28732 -1.40186 -2.34468e-19)
(1.27553 -1.38855 1.56746e-19)
(1.26387 -1.37538 1.57475e-19)
(1.25237 -1.36236 -3.16236e-19)
(1.24101 -1.34949 7.88976e-20)
(1.2298 -1.33678 -8.0105e-20)
(1.21874 -1.32422 2.39329e-19)
(1.20784 -1.31182 -1.60329e-19)
(1.19709 -1.29958 9.56994e-22)
(1.1865 -1.28752 8.10317e-20)
(1.17606 -1.27562 4.03568e-19)
(1.16578 -1.26389 1.35527e-23)
(1.15566 -1.25233 2.43849e-19)
(1.14568 -1.24095 0)
(1.13587 -1.22974 -8.09321e-20)
(1.1262 -1.2187 8.19924e-20)
(1.11668 -1.20784 -1.62798e-19)
(1.1073 -1.19716 8.26674e-20)
(1.09807 -1.18665 1.63683e-19)
(2.49214 -2.7402 -3.06448e-19)
(2.4773 -2.72391 2.95953e-19)
(2.46231 -2.70745 -2.8945e-19)
(2.44715 -2.69081 1.12106e-18)
(2.43183 -2.67399 -2.81371e-25)
(2.41633 -2.65698 -2.63375e-19)
(2.40066 -2.63978 7.70738e-19)
(2.38481 -2.62238 0)
(2.36876 -2.60477 -1.20749e-18)
(2.35253 -2.58695 2.35406e-19)
(2.33609 -2.56892 9.09789e-19)
(2.31945 -2.55066 -8.82333e-19)
(2.3026 -2.53216 0)
(2.28553 -2.51344 0)
(2.26824 -2.49446 0)
(2.25072 -2.47524 9.73054e-19)
(2.23296 -2.45575 7.5322e-19)
(2.21495 -2.43599 5.47739e-19)
(2.19669 -2.41596 1.76271e-19)
(2.17818 -2.39564 5.1393e-19)
(2.15939 -2.37502 -3.24748e-24)
(2.14032 -2.3541 0)
(2.12097 -2.33286 1.54989e-19)
(2.10132 -2.31129 -7.55546e-19)
(2.08137 -2.28939 5.84581e-19)
(2.06109 -2.26713 0)
(2.04049 -2.24451 0)
(2.01955 -2.22151 0)
(1.99844 -2.19832 7.62755e-24)
(1.97751 -2.17533 0)
(1.95695 -2.15273 1.28692e-19)
(1.93675 -2.13052 -1.30157e-19)
(1.91688 -2.10866 1.03328e-18)
(1.89733 -2.08717 3.88122e-19)
(1.87811 -2.06601 1.29943e-19)
(1.85919 -2.04518 0)
(1.84057 -2.02467 -5.17371e-19)
(1.82224 -2.00447 5.18252e-19)
(1.80419 -1.98457 5.839e-19)
(1.78641 -1.96496 4.55262e-19)
(1.7689 -1.94563 -4.57497e-19)
(1.75163 -1.92657 4.58254e-19)
(1.73462 -1.90778 0)
(1.71785 -1.88924 -6.56388e-20)
(1.7013 -1.87094 -5.29996e-19)
(1.68498 -1.85289 1.13387e-18)
(1.66888 -1.83506 6.6598e-20)
(1.65299 -1.81746 4.04241e-19)
(1.6373 -1.80007 -4.73835e-19)
(1.62181 -1.78289 3.40301e-19)
(1.6065 -1.76591 1.37104e-19)
(1.59138 -1.74912 -2.06501e-19)
(1.57643 -1.73252 2.77639e-19)
(1.56165 -1.71609 0)
(1.54704 -1.69984 -6.98871e-20)
(1.53258 -1.68376 7.12071e-20)
(1.51828 -1.66784 2.85004e-19)
(1.50413 -1.65208 -2.86921e-19)
(1.49013 -1.63647 0)
(1.47627 -1.62101 -7.22666e-20)
(1.46254 -1.60569 7.36272e-20)
(1.44895 -1.59051 -7.3241e-20)
(1.43549 -1.57547 5.94215e-19)
(1.42216 -1.56056 3.73708e-19)
(1.40896 -1.54579 0)
(1.39588 -1.53114 0)
(1.38292 -1.51662 -7.5633e-20)
(1.3701 -1.50223 3.83158e-19)
(1.3574 -1.48797 6.15937e-19)
(1.34482 -1.47384 0)
(1.33237 -1.45983 0)
(1.32006 -1.44596 -2.35276e-19)
(1.30787 -1.43221 -1.58262e-19)
(1.29583 -1.41861 -7.95163e-20)
(1.28391 -1.40514 1.58839e-19)
(1.27214 -1.39181 -1.59532e-19)
(1.26052 -1.37863 -1.60186e-19)
(1.24903 -1.36559 8.08637e-20)
(1.2377 -1.35271 1.62307e-19)
(1.22651 -1.33998 1.62842e-19)
(1.21548 -1.32741 9.3482e-22)
(1.2046 -1.315 -8.09533e-20)
(1.19387 -1.30276 -2.00239e-24)
(1.1833 -1.29068 -2.44964e-19)
(1.17288 -1.27877 -8.15004e-20)
(1.16261 -1.26702 -2.45893e-19)
(1.1525 -1.25546 -8.1774e-20)
(1.14254 -1.24406 0)
(1.13273 -1.23284 0)
(1.12307 -1.22179 2.47204e-19)
(1.11356 -1.21092 -8.26515e-20)
(1.10419 -1.20022 4.74711e-22)
(1.09497 -1.18969 0)
(2.48538 -2.74632 3.06912e-19)
(2.47058 -2.72999 -3.00318e-19)
(2.45563 -2.7135 1.16401e-18)
(2.44052 -2.69682 -1.13126e-18)
(2.42523 -2.67996 -5.49595e-19)
(2.40978 -2.66291 -2.65993e-19)
(2.39415 -2.64567 7.78721e-19)
(2.37834 -2.62823 1.00696e-18)
(2.36234 -2.61058 7.34106e-19)
(2.34615 -2.59273 -7.10658e-19)
(2.32976 -2.57465 0)
(2.31316 -2.55635 1.11566e-18)
(2.29636 -2.53782 -2.17548e-19)
(2.27934 -2.51904 -2.09167e-19)
(2.26209 -2.50003 2.04638e-19)
(2.24462 -2.48076 7.90032e-19)
(2.2269 -2.46123 -1.53167e-18)
(2.20895 -2.44142 0)
(2.19074 -2.42135 -5.40396e-19)
(2.17227 -2.40098 -1.80565e-21)
(2.15354 -2.38032 1.34882e-18)
(2.13453 -2.35935 -3.27113e-19)
(2.11523 -2.33806 6.35543e-19)
(2.09563 -2.31644 1.78514e-21)
(2.07573 -2.29449 -5.92801e-19)
(2.05552 -2.27218 1.44861e-19)
(2.03497 -2.24951 0)
(2.01408 -2.22646 1.34109e-19)
(1.99303 -2.20321 -1.19438e-18)
(1.97217 -2.18018 -1.31354e-19)
(1.95166 -2.15753 6.60316e-19)
(1.93151 -2.13527 -5.2657e-19)
(1.9117 -2.11337 -6.56541e-19)
(1.89221 -2.09182 -2.62809e-19)
(1.87304 -2.07062 -2.62802e-19)
(1.85417 -2.04975 6.58226e-19)
(1.83561 -2.02919 6.57264e-19)
(1.81733 -2.00895 -1.32682e-19)
(1.79933 -1.98901 0)
(1.7816 -1.96936 -6.61391e-19)
(1.76413 -1.94998 5.33053e-19)
(1.74692 -1.93089 1.34129e-19)
(1.72995 -1.91205 -4.6865e-19)
(1.71322 -1.89347 -6.04883e-19)
(1.69673 -1.87514 6.06712e-19)
(1.68045 -1.85704 -6.77755e-19)
(1.6644 -1.83918 -4.76338e-19)
(1.64855 -1.82154 0)
(1.6329 -1.80412 4.82271e-19)
(1.61745 -1.7869 -4.84148e-19)
(1.60218 -1.76989 -3.47718e-19)
(1.5871 -1.75307 7.04728e-20)
(1.57219 -1.73643 0)
(1.55745 -1.71998 0)
(1.54288 -1.7037 -2.85443e-19)
(1.52846 -1.68759 0)
(1.5142 -1.67164 -2.89155e-19)
(1.50009 -1.65585 0)
(1.48612 -1.64021 2.92916e-19)
(1.47229 -1.62472 0)
(1.4586 -1.60938 0)
(1.44505 -1.59417 0)
(1.43162 -1.5791 -3.00591e-19)
(1.41832 -1.56417 0)
(1.40515 -1.54937 -7.56374e-20)
(1.39211 -1.5347 1.53102e-19)
(1.37919 -1.52016 -1.54013e-19)
(1.36639 -1.50575 -2.31891e-19)
(1.35372 -1.49147 -3.11576e-19)
(1.34118 -1.47731 0)
(1.32876 -1.46329 -1.57443e-19)
(1.31647 -1.4494 1.58253e-19)
(1.30432 -1.43564 1.58997e-19)
(1.2923 -1.42201 0)
(1.28042 -1.40853 0)
(1.26868 -1.39519 8.00709e-20)
(1.25708 -1.38199 -8.12943e-20)
(1.24562 -1.36894 0)
(1.23431 -1.35605 -8.09449e-20)
(1.22315 -1.34331 -8.11795e-20)
(1.21214 -1.33072 0)
(1.20128 -1.3183 3.28252e-19)
(1.19057 -1.30604 1.64494e-19)
(1.18002 -1.29395 -1.64794e-19)
(1.16962 -1.28203 0)
(1.15937 -1.27027 8.31264e-20)
(1.14927 -1.25869 8.32382e-20)
(1.13933 -1.24728 1.65705e-19)
(1.12953 -1.23605 1.65392e-19)
(1.11988 -1.22499 -2.49006e-19)
(1.11038 -1.2141 8.30643e-20)
(1.10102 -1.20338 -9.38098e-22)
(1.09181 -1.19284 -8.36475e-20)
(2.47841 -2.75261 3.11075e-19)
(2.46365 -2.73625 -3.00679e-19)
(2.44874 -2.71971 -5.84785e-19)
(2.43367 -2.70299 8.56648e-19)
(2.41843 -2.6861 2.76294e-19)
(2.40302 -2.66901 -5.38894e-19)
(2.38744 -2.65173 -5.45251e-24)
(2.37167 -2.63425 -2.55277e-19)
(2.35571 -2.61656 2.46037e-19)
(2.33957 -2.59866 7.18526e-19)
(2.32322 -2.58054 0)
(2.30668 -2.5622 0)
(2.28992 -2.54362 -8.77122e-19)
(2.27294 -2.5248 8.51005e-19)
(2.25575 -2.50574 0)
(2.23832 -2.48643 -9.99907e-19)
(2.22066 -2.46685 9.71466e-19)
(2.20276 -2.44701 -7.5281e-19)
(2.1846 -2.42688 1.45963e-18)
(2.16619 -2.40647 -1.7594e-19)
(2.1475 -2.38576 -5.13332e-19)
(2.12855 -2.36474 0)
(2.1093 -2.3434 -6.43892e-19)
(2.08976 -2.32174 -6.23905e-19)
(2.06992 -2.29973 7.54736e-19)
(2.04976 -2.27737 -2.92841e-19)
(2.02927 -2.25465 1.42762e-19)
(2.00845 -2.23154 0)
(1.98745 -2.20825 0)
(1.96665 -2.18516 0)
(1.94621 -2.16246 -5.36892e-19)
(1.92611 -2.14015 0)
(1.90636 -2.1182 -5.35136e-19)
(1.88692 -2.09661 -6.67596e-19)
(1.86781 -2.07535 2.67366e-19)
(1.849 -2.05444 -6.69616e-19)
(1.83049 -2.03384 0)
(1.81226 -2.01355 0)
(1.79431 -1.99356 0)
(1.77663 -1.97387 1.33815e-19)
(1.75922 -1.95446 4.0431e-19)
(1.74205 -1.93532 -1.34635e-19)
(1.72514 -1.91644 6.80783e-19)
(1.70846 -1.89782 5.46082e-19)
(1.69201 -1.87945 5.48374e-19)
(1.67578 -1.86132 5.5086e-19)
(1.65977 -1.84342 2.91785e-23)
(1.64396 -1.82574 0)
(1.62836 -1.80828 -6.95036e-20)
(1.61295 -1.79103 6.33009e-19)
(1.59773 -1.77398 -2.12474e-19)
(1.58269 -1.75713 -3.55887e-19)
(1.56782 -1.74046 0)
(1.55312 -1.72397 -7.15077e-20)
(1.53859 -1.70766 3.62391e-19)
(1.52421 -1.69152 7.23963e-20)
(1.50999 -1.67554 1.46579e-19)
(1.49592 -1.65972 4.42519e-19)
(1.48198 -1.64405 -4.45334e-19)
(1.46819 -1.62853 3.73871e-19)
(1.45454 -1.61316 -7.47057e-20)
(1.44102 -1.59793 7.6072e-20)
(1.42762 -1.58284 3.04336e-19)
(1.41436 -1.56788 -7.60936e-20)
(1.40122 -1.55305 3.85461e-19)
(1.38821 -1.53836 -3.09798e-19)
(1.37532 -1.5238 0)
(1.36256 -1.50936 3.13321e-19)
(1.34992 -1.49506 7.82818e-20)
(1.33741 -1.48088 -2.37912e-19)
(1.32503 -1.46684 2.39106e-19)
(1.31277 -1.45293 8.03893e-20)
(1.30065 -1.43915 -4.00959e-19)
(1.28866 -1.42551 8.10969e-20)
(1.27681 -1.41201 0)
(1.2651 -1.39865 1.62509e-19)
(1.25352 -1.38544 3.26177e-19)
(1.24209 -1.37238 0)
(1.23081 -1.35947 -2.45684e-19)
(1.21967 -1.34671 1.64536e-19)
(1.20869 -1.33411 -2.47866e-19)
(1.19785 -1.32168 -2.47465e-19)
(1.18716 -1.30941 9.49968e-22)
(1.17663 -1.2973 4.15136e-19)
(1.16625 -1.28537 0)
(1.15602 -1.2736 -8.36283e-20)
(1.14594 -1.262 8.27406e-20)
(1.13601 -1.25058 -2.50334e-19)
(1.12623 -1.23933 -2.50015e-19)
(1.11659 -1.22825 8.33812e-20)
(1.1071 -1.21735 -8.34112e-20)
(1.09775 -1.20661 8.39219e-20)
(1.08854 -1.19605 0)
(2.47122 -2.75907 9.37468e-19)
(2.4565 -2.74266 -3.02808e-19)
(2.44164 -2.72609 2.96537e-19)
(2.42661 -2.70933 -5.74988e-19)
(2.41141 -2.69239 0)
(2.39605 -2.67526 0)
(2.38051 -2.65794 5.2844e-19)
(2.36478 -2.64042 -1.0271e-18)
(2.34888 -2.62269 -2.4852e-19)
(2.33278 -2.60475 2.43299e-19)
(2.31648 -2.58658 9.41439e-19)
(2.29998 -2.5682 1.14171e-18)
(2.28327 -2.54958 6.64635e-19)
(2.26635 -2.53072 -1.72271e-18)
(2.2492 -2.51161 -8.35887e-19)
(2.23183 -2.49225 -2.01818e-19)
(2.21422 -2.47263 1.97634e-19)
(2.19637 -2.45273 5.73305e-19)
(2.17826 -2.43256 -1.11018e-18)
(2.1599 -2.4121 -1.80348e-19)
(2.14128 -2.39134 -1.73031e-19)
(2.12237 -2.37027 1.69571e-19)
(2.10319 -2.34889 8.16486e-19)
(2.08371 -2.32717 1.26585e-18)
(2.06392 -2.30511 -3.07168e-19)
(2.04382 -2.2827 2.97703e-19)
(2.02339 -2.25993 -1.83672e-21)
(2.00263 -2.23677 -1.40658e-19)
(1.9817 -2.21342 -1.36394e-19)
(1.96096 -2.19027 6.85445e-19)
(1.94057 -2.16752 0)
(1.92054 -2.14516 -4.09684e-19)
(1.90084 -2.12316 2.72163e-19)
(1.88147 -2.10152 6.80764e-19)
(1.86241 -2.08022 0)
(1.84366 -2.05925 -6.79121e-19)
(1.8252 -2.03861 1.37003e-19)
(1.80703 -2.01827 0)
(1.78913 -1.99824 5.46272e-19)
(1.77151 -1.9785 0)
(1.75414 -1.95905 -4.12652e-19)
(1.73703 -1.93986 4.12161e-19)
(1.72016 -1.92095 -1.37282e-19)
(1.70353 -1.90229 5.5645e-19)
(1.68713 -1.88388 -4.1688e-19)
(1.67095 -1.8657 -6.98416e-19)
(1.65499 -1.84777 5.6378e-19)
(1.63923 -1.83005 1.42063e-19)
(1.62367 -1.81255 -1.13525e-18)
(1.60831 -1.79527 -2.8532e-19)
(1.59313 -1.77818 1.64376e-23)
(1.57813 -1.76129 3.6016e-19)
(1.56331 -1.74459 -7.29744e-20)
(1.54865 -1.72807 0)
(1.53416 -1.71172 0)
(1.51982 -1.69555 -7.33815e-20)
(1.50564 -1.67954 -2.22391e-19)
(1.4916 -1.66369 -2.98917e-19)
(1.47771 -1.64799 0)
(1.46395 -1.63244 -2.52512e-23)
(1.45033 -1.61704 0)
(1.43685 -1.60178 0)
(1.42349 -1.58666 -6.15978e-19)
(1.41026 -1.57168 -3.09763e-19)
(1.39716 -1.55683 -3.11557e-19)
(1.38418 -1.54211 7.78864e-20)
(1.37133 -1.52752 -7.92064e-20)
(1.3586 -1.51307 2.37924e-19)
(1.346 -1.49874 -2.38198e-19)
(1.33352 -1.48454 1.59907e-19)
(1.32117 -1.47048 -3.21294e-19)
(1.30894 -1.45655 8.11455e-20)
(1.29685 -1.44275 2.43548e-19)
(1.28489 -1.42909 0)
(1.27307 -1.41557 0)
(1.26139 -1.4022 -1.63872e-19)
(1.24984 -1.38897 -3.28773e-19)
(1.23844 -1.37589 0)
(1.22719 -1.36297 1.65292e-19)
(1.21608 -1.3502 8.23671e-20)
(1.20511 -1.33758 1.65092e-19)
(1.1943 -1.32513 -2.49976e-19)
(1.18364 -1.31285 -1.66589e-19)
(1.17312 -1.30073 -1.66822e-19)
(1.16276 -1.28878 -1.66982e-19)
(1.15255 -1.277 0)
(1.14249 -1.26539 -3.34472e-19)
(1.13257 -1.25395 1.67321e-19)
(1.12281 -1.24268 0)
(1.11319 -1.23159 8.37049e-20)
(1.10371 -1.22066 0)
(1.09437 -1.20991 -8.37244e-20)
(1.08517 -1.19933 -8.37396e-20)
(2.46379 -2.7657 -9.41175e-19)
(2.44912 -2.74925 1.22303e-18)
(2.4343 -2.73263 -1.9628e-21)
(2.41932 -2.71584 2.88638e-19)
(2.40417 -2.69886 0)
(2.38885 -2.68169 -5.48127e-19)
(2.37335 -2.66432 -5.3303e-19)
(2.35768 -2.64676 -1.29459e-18)
(2.34182 -2.62898 2.52828e-19)
(2.32577 -2.611 -9.7903e-19)
(2.30952 -2.59279 -1.18807e-18)
(2.29307 -2.57436 -6.92053e-19)
(2.27641 -2.55569 0)
(2.25954 -2.53679 -2.16879e-19)
(2.24245 -2.51764 1.26894e-18)
(2.22513 -2.49823 -2.06234e-19)
(2.20757 -2.47856 7.96895e-19)
(2.18977 -2.45861 0)
(2.17172 -2.43839 8.39267e-24)
(2.15342 -2.41788 -7.2773e-19)
(2.13485 -2.39707 7.05845e-19)
(2.116 -2.37595 -6.8454e-19)
(2.09687 -2.35452 6.6381e-19)
(2.07745 -2.33275 -6.43663e-19)
(2.05773 -2.31064 0)
(2.03769 -2.28817 0)
(2.01733 -2.26534 4.40864e-19)
(1.99663 -2.24213 1.43025e-19)
(1.97576 -2.21872 0)
(1.95508 -2.19552 -5.5691e-19)
(1.93476 -2.17272 0)
(1.91479 -2.1503 5.54212e-19)
(1.89515 -2.12825 -1.37442e-19)
(1.87584 -2.10656 -5.51121e-19)
(1.85684 -2.08521 2.7639e-19)
(1.83814 -2.06419 4.13817e-19)
(1.81974 -2.0435 0)
(1.80163 -2.02312 6.91712e-19)
(1.78379 -2.00304 -5.56844e-19)
(1.76622 -1.98326 -1.77679e-21)
(1.7489 -1.96376 5.55913e-19)
(1.73185 -1.94453 -5.61128e-19)
(1.71503 -1.92557 -2.80594e-19)
(1.69845 -1.90687 -4.2155e-19)
(1.6821 -1.88842 1.40474e-19)
(1.66597 -1.87021 -2.83911e-19)
(1.65005 -1.85223 -4.26873e-19)
(1.63434 -1.83448 -1.42369e-19)
(1.61883 -1.81694 1.29656e-18)
(1.60351 -1.79961 0)
(1.58838 -1.78249 2.90923e-19)
(1.57342 -1.76557 0)
(1.55864 -1.74883 2.94096e-19)
(1.54403 -1.73227 0)
(1.52958 -1.7159 0)
(1.51528 -1.69969 -4.47839e-19)
(1.50114 -1.68365 4.52263e-19)
(1.48714 -1.66776 7.52107e-20)
(1.47329 -1.65203 -9.13915e-22)
(1.45957 -1.63646 -3.83229e-19)
(1.44599 -1.62103 -3.07963e-19)
(1.43254 -1.60574 0)
(1.41922 -1.59059 2.7754e-23)
(1.40603 -1.57558 3.13226e-19)
(1.39296 -1.5607 7.82607e-20)
(1.38002 -1.54596 2.36984e-19)
(1.3672 -1.53134 0)
(1.35451 -1.51686 -2.40333e-19)
(1.34194 -1.50251 2.40542e-19)
(1.32949 -1.48829 -8.02271e-20)
(1.31718 -1.47421 8.15456e-20)
(1.30499 -1.46025 -8.18785e-20)
(1.29293 -1.44644 -8.21876e-20)
(1.281 -1.43276 0)
(1.26921 -1.41922 0)
(1.25756 -1.40583 8.20723e-20)
(1.24604 -1.39259 1.6463e-19)
(1.23467 -1.37949 -9.59881e-22)
(1.22344 -1.36655 -1.67366e-19)
(1.21236 -1.35376 -9.60908e-22)
(1.20142 -1.34114 -1.67027e-19)
(1.19063 -1.32867 4.18676e-19)
(1.17999 -1.31637 1.67492e-19)
(1.1695 -1.30423 0)
(1.15916 -1.29227 1.67778e-19)
(1.14897 -1.28047 0)
(1.13892 -1.26884 1.36356e-23)
(1.12903 -1.25739 0)
(1.11928 -1.2461 8.34922e-20)
(1.10967 -1.23499 -9.49661e-22)
(1.10021 -1.22405 -8.39511e-20)
(1.09089 -1.21328 8.44144e-20)
(1.0817 -1.20267 1.67393e-19)
(2.45613 -2.7725 6.31527e-19)
(2.44151 -2.75601 -9.21695e-19)
(2.42673 -2.73935 3.00485e-19)
(2.41179 -2.72252 0)
(2.39669 -2.70549 0)
(2.38142 -2.68828 5.52333e-19)
(2.36597 -2.67087 0)
(2.35035 -2.65326 1.04531e-18)
(2.33454 -2.63544 1.01648e-18)
(2.31854 -2.61741 2.22257e-18)
(2.30234 -2.59916 -2.41117e-19)
(2.28594 -2.58068 0)
(2.26934 -2.56197 0)
(2.25252 -2.54302 8.81061e-19)
(2.23547 -2.52382 8.557e-19)
(2.21821 -2.50436 2.06768e-19)
(2.20071 -2.48464 -1.00938e-18)
(2.18296 -2.46465 0)
(2.16497 -2.44438 8.20507e-24)
(2.14673 -2.42382 8.30259e-24)
(2.12821 -2.40296 -7.15672e-19)
(2.10943 -2.38179 1.72636e-19)
(2.09036 -2.36029 -8.4289e-19)
(2.071 -2.33847 1.62382e-19)
(2.05134 -2.31631 -1.89876e-21)
(2.03136 -2.29379 -1.5459e-19)
(2.01106 -2.2709 -5.96023e-19)
(1.99043 -2.24763 -1.15539e-18)
(1.96963 -2.22417 -1.13558e-18)
(1.94902 -2.20091 0)
(1.92876 -2.17805 1.4019e-19)
(1.90885 -2.15558 -1.41744e-19)
(1.88928 -2.13348 0)
(1.87003 -2.11173 5.61885e-19)
(1.85109 -2.09033 -4.22162e-19)
(1.83245 -2.06927 -2.80881e-19)
(1.81411 -2.04853 2.81073e-19)
(1.79605 -2.0281 -7.04417e-19)
(1.77827 -2.00797 -5.63705e-19)
(1.76075 -1.98814 0)
(1.7435 -1.9686 -1.27314e-18)
(1.72649 -1.94933 1.42856e-19)
(1.70973 -1.93032 -1.41504e-19)
(1.6932 -1.91158 1.43798e-19)
(1.6769 -1.89308 -4.31204e-19)
(1.66082 -1.87483 -1.44917e-19)
(1.64495 -1.85681 1.01335e-18)
(1.62929 -1.83902 1.46188e-19)
(1.61383 -1.82144 -5.83906e-19)
(1.59856 -1.80408 0)
(1.58347 -1.78692 2.94853e-19)
(1.56856 -1.76995 -2.96386e-19)
(1.55383 -1.75318 -2.9798e-19)
(1.53926 -1.73659 -1.48879e-19)
(1.52485 -1.72018 1.51529e-19)
(1.51059 -1.70394 3.02914e-19)
(1.49649 -1.68786 -1.5323e-19)
(1.48254 -1.67194 -4.60361e-19)
(1.46872 -1.65618 4.61084e-19)
(1.45505 -1.64057 1.53928e-19)
(1.4415 -1.62511 3.11455e-19)
(1.42809 -1.6098 1.55636e-19)
(1.41481 -1.59462 1.56493e-19)
(1.40166 -1.57958 -1.57302e-19)
(1.38863 -1.56467 -1.58106e-19)
(1.37572 -1.5499 0)
(1.36294 -1.53526 -7.98428e-20)
(1.35028 -1.52076 -2.41594e-19)
(1.33774 -1.50638 3.24217e-19)
(1.32533 -1.49214 -8.09285e-20)
(1.31305 -1.47803 1.64445e-19)
(1.30089 -1.46406 8.25333e-20)
(1.28887 -1.45022 -8.18706e-20)
(1.27697 -1.43652 9.61935e-22)
(1.26522 -1.42297 3.31531e-19)
(1.25359 -1.40955 -8.36013e-20)
(1.24211 -1.39629 0)
(1.23077 -1.38318 -8.30385e-20)
(1.21957 -1.37022 -8.31992e-20)
(1.20851 -1.35742 0)
(1.1976 -1.34477 1.67898e-19)
(1.18684 -1.33229 -1.68109e-19)
(1.17622 -1.31997 -8.36424e-20)
(1.16575 -1.30782 8.46606e-20)
(1.15543 -1.29584 1.68423e-19)
(1.14526 -1.28402 0)
(1.13524 -1.27238 1.6847e-19)
(1.12536 -1.2609 8.46919e-20)
(1.11563 -1.2496 4.78077e-22)
(1.10604 -1.23847 -4.74721e-22)
(1.0966 -1.22751 -2.5238e-19)
(1.08729 -1.21671 8.5039e-20)
(1.07812 -1.20609 8.45323e-20)
(2.44822 -2.77948 -1.26918e-18)
(2.43365 -2.76295 0)
(2.41892 -2.74625 0)
(2.40403 -2.72937 5.84777e-19)
(2.38897 -2.7123 -5.73345e-19)
(2.37375 -2.69505 -2.79109e-19)
(2.35835 -2.67759 -5.41386e-19)
(2.34278 -2.65994 5.2681e-19)
(2.32702 -2.64208 -1.53754e-18)
(2.31107 -2.624 -9.95015e-19)
(2.29493 -2.6057 4.84742e-19)
(2.27858 -2.58717 -2.36619e-19)
(2.26203 -2.56842 -9.16176e-19)
(2.24526 -2.54941 1.11197e-18)
(2.22828 -2.53017 -1.08236e-18)
(2.21107 -2.51066 1.04952e-18)
(2.19362 -2.49089 -2.05037e-19)
(2.17594 -2.47085 7.92675e-19)
(2.15801 -2.45052 7.69658e-19)
(2.13982 -2.42991 8.00578e-24)
(2.12137 -2.409 0)
(2.10264 -2.38777 5.28907e-19)
(2.08364 -2.36623 -5.11362e-19)
(2.06434 -2.34435 0)
(2.04474 -2.32213 0)
(2.02483 -2.29955 1.55029e-19)
(2.0046 -2.27661 -1.523e-19)
(1.98403 -2.25328 1.45786e-19)
(1.9633 -2.22976 8.65431e-19)
(1.94276 -2.20644 1.44752e-19)
(1.92257 -2.18353 0)
(1.90272 -2.161 0)
(1.88321 -2.13884 -4.29411e-19)
(1.86403 -2.11704 -1.43609e-19)
(1.84515 -2.09559 7.12131e-19)
(1.82658 -2.07447 -2.85235e-19)
(1.80829 -2.05368 -5.68945e-19)
(1.7903 -2.03321 8.57071e-19)
(1.77257 -2.01303 1.00049e-18)
(1.75511 -1.99315 0)
(1.73791 -1.97356 5.74644e-19)
(1.72096 -1.95425 -5.76151e-19)
(1.70426 -1.9352 -1.43557e-19)
(1.68778 -1.91641 1.45861e-19)
(1.67154 -1.89787 5.81895e-19)
(1.65551 -1.87957 0)
(1.63969 -1.86151 -7.32258e-19)
(1.62408 -1.84368 8.83579e-19)
(1.60867 -1.82606 -1.48846e-19)
(1.59344 -1.80866 1.49538e-19)
(1.5784 -1.79146 -5.95558e-19)
(1.56354 -1.77446 4.51208e-19)
(1.54885 -1.75765 1.49936e-19)
(1.53433 -1.74102 -1.52565e-19)
(1.51996 -1.72457 1.51514e-19)
(1.50575 -1.70829 -1.54179e-19)
(1.49169 -1.69218 0)
(1.47778 -1.67623 3.09805e-19)
(1.46401 -1.66044 -3.11462e-19)
(1.45037 -1.6448 -2.45431e-23)
(1.43687 -1.62931 -3.14741e-19)
(1.4235 -1.61396 0)
(1.41025 -1.59875 -1.58054e-19)
(1.39714 -1.58368 3.1959e-19)
(1.38414 -1.56875 3.21159e-19)
(1.37128 -1.55395 3.22669e-19)
(1.35853 -1.53928 -1.63028e-19)
(1.34591 -1.52475 3.25592e-19)
(1.33341 -1.51035 -4.91383e-19)
(1.32103 -1.49608 -9.67644e-22)
(1.30878 -1.48195 0)
(1.29666 -1.46795 1.65325e-19)
(1.28467 -1.45409 -1.65871e-19)
(1.27281 -1.44038 1.66376e-19)
(1.26109 -1.4268 -3.33696e-19)
(1.2495 -1.41337 -2.50405e-19)
(1.23804 -1.40009 8.43038e-20)
(1.22673 -1.38695 1.67958e-19)
(1.21556 -1.37398 1.68254e-19)
(1.20453 -1.36115 0)
(1.19365 -1.34849 -8.48265e-20)
(1.18291 -1.33599 -1.68801e-19)
(1.17232 -1.32366 8.49324e-20)
(1.16188 -1.31149 0)
(1.15158 -1.29949 -3.37935e-19)
(1.14143 -1.28765 1.68939e-19)
(1.13143 -1.27599 8.39648e-20)
(1.12158 -1.2645 -1.69776e-19)
(1.11186 -1.25317 -4.73854e-22)
(1.10229 -1.24202 1.686e-19)
(1.09287 -1.23104 0)
(1.08358 -1.22022 -8.41813e-20)
(1.07442 -1.20957 8.36581e-20)
(2.44006 -2.78665 6.37283e-19)
(2.42553 -2.77007 6.19277e-19)
(2.41085 -2.75333 -6.07524e-19)
(2.39601 -2.7364 5.88043e-19)
(2.38101 -2.71929 -5.76805e-19)
(2.36584 -2.70199 1.1177e-18)
(2.35049 -2.68449 -1.99039e-21)
(2.33497 -2.66679 1.06139e-18)
(2.31926 -2.64888 5.14532e-19)
(2.30337 -2.63076 1.22795e-24)
(2.28728 -2.61241 -1.20341e-24)
(2.27099 -2.59384 7.10408e-19)
(2.25449 -2.57503 6.92732e-19)
(2.23778 -2.55598 -1.57472e-18)
(2.22085 -2.53668 -1.09365e-18)
(2.2037 -2.51712 -8.49537e-19)
(2.18631 -2.4973 0)
(2.16869 -2.47721 -1.00146e-18)
(2.15082 -2.45683 1.96246e-21)
(2.13269 -2.43616 1.7032e-18)
(2.1143 -2.41519 0)
(2.09564 -2.39391 -1.77342e-19)
(2.0767 -2.37231 1.74103e-19)
(2.05747 -2.35038 -1.67069e-19)
(2.03793 -2.3281 1.95524e-21)
(2.01809 -2.30547 1.59285e-19)
(1.99793 -2.28246 -6.14551e-19)
(1.97743 -2.25908 1.19211e-18)
(1.95677 -2.23549 -1.45522e-19)
(1.93629 -2.21212 1.47016e-19)
(1.91617 -2.18915 7.27093e-19)
(1.8964 -2.16656 -7.27308e-19)
(1.87695 -2.14435 1.16017e-18)
(1.85783 -2.12249 -5.79417e-19)
(1.83902 -2.10099 -7.22904e-19)
(1.82051 -2.07982 5.8092e-19)
(1.80229 -2.05898 8.68957e-19)
(1.78435 -2.03845 -7.25721e-19)
(1.76669 -2.01823 -5.80612e-19)
(1.74929 -1.9983 0)
(1.73215 -1.97866 0)
(1.71526 -1.95929 5.8433e-19)
(1.69861 -1.9402 -4.40397e-19)
(1.68219 -1.92137 -1.47877e-19)
(1.666 -1.90278 -5.8981e-19)
(1.65002 -1.88444 -4.44909e-19)
(1.63426 -1.86634 -2.97151e-19)
(1.6187 -1.84846 -4.4666e-19)
(1.60333 -1.83081 0)
(1.58816 -1.81336 -1.51446e-19)
(1.57317 -1.79612 6.02968e-19)
(1.55835 -1.77908 -3.03853e-19)
(1.54371 -1.76223 1.53601e-19)
(1.52923 -1.74557 0)
(1.51491 -1.72908 -1.55129e-19)
(1.50075 -1.71277 -4.65874e-19)
(1.48673 -1.69662 0)
(1.47286 -1.68063 -4.68748e-19)
(1.45913 -1.66481 4.73027e-19)
(1.44554 -1.64913 -3.16333e-19)
(1.43208 -1.63361 3.17914e-19)
(1.41875 -1.61823 -1.58779e-19)
(1.40554 -1.60299 1.61458e-19)
(1.39246 -1.58789 -3.22512e-19)
(1.37951 -1.57292 -6.48012e-19)
(1.36668 -1.5581 1.63673e-19)
(1.35397 -1.5434 1.64381e-19)
(1.34139 -1.52884 1.63121e-19)
(1.32893 -1.51442 1.63781e-19)
(1.31659 -1.50012 -1.58544e-23)
(1.30438 -1.48597 -1.65905e-19)
(1.29229 -1.47195 -1.66457e-19)
(1.28033 -1.45806 1.65986e-19)
(1.26851 -1.44432 -5.02205e-19)
(1.25682 -1.43073 6.71243e-19)
(1.24526 -1.41727 -3.36334e-19)
(1.23384 -1.40397 1.95135e-21)
(1.22256 -1.39082 -5.89381e-24)
(1.21142 -1.37782 -1.69967e-19)
(1.20042 -1.36498 8.40971e-20)
(1.18957 -1.3523 8.41579e-20)
(1.17886 -1.33978 8.4205e-20)
(1.16829 -1.32743 1.68447e-19)
(1.15788 -1.31524 -8.51939e-20)
(1.1476 -1.30322 1.69387e-19)
(1.13748 -1.29136 -3.38608e-19)
(1.1275 -1.27968 0)
(1.11767 -1.26817 1.6906e-19)
(1.10798 -1.25682 8.4455e-20)
(1.09843 -1.24565 -1.68275e-19)
(1.08902 -1.23464 8.42906e-20)
(1.07975 -1.2238 -8.42081e-20)
(1.07062 -1.21313 4.69946e-22)
(2.43163 -2.794 -1.28119e-18)
(2.41716 -2.77738 0)
(2.40253 -2.76059 0)
(2.38774 -2.74362 -5.92978e-19)
(2.37279 -2.72646 -5.77934e-19)
(2.35767 -2.70911 0)
(2.34237 -2.69157 -5.48595e-19)
(2.32691 -2.67382 -1.0686e-18)
(2.31125 -2.65586 -5.18254e-19)
(2.29541 -2.63769 -2.02188e-18)
(2.27938 -2.6193 1.48081e-18)
(2.26314 -2.60067 -1.91865e-18)
(2.2467 -2.58181 1.39794e-18)
(2.23005 -2.56271 1.35967e-18)
(2.21318 -2.54336 6.74487e-24)
(2.19609 -2.52375 0)
(2.17877 -2.50388 0)
(2.1612 -2.48373 0)
(2.14339 -2.4633 0)
(2.12533 -2.44258 -5.75213e-19)
(2.107 -2.42155 -1.86931e-19)
(2.08841 -2.40022 0)
(2.06953 -2.37856 7.01627e-19)
(2.05037 -2.35657 1.69343e-19)
(2.03091 -2.33423 -1.66385e-19)
(2.01113 -2.31154 6.42335e-19)
(1.99104 -2.28847 6.23625e-19)
(1.97061 -2.26502 -1.21008e-18)
(1.95003 -2.24138 1.47739e-19)
(1.92962 -2.21795 4.43811e-19)
(1.90957 -2.19491 -1.04675e-23)
(1.88987 -2.17227 4.43331e-19)
(1.87049 -2.15 2.94349e-19)
(1.85144 -2.12809 4.4004e-19)
(1.83269 -2.10653 5.87584e-19)
(1.81425 -2.0853 -7.33389e-19)
(1.79609 -2.06441 1.4786e-19)
(1.77822 -2.04383 0)
(1.76062 -2.02355 0)
(1.74328 -2.00358 0)
(1.7262 -1.98389 0)
(1.70936 -1.96448 7.39411e-19)
(1.69277 -1.94533 4.44471e-19)
(1.67641 -1.92645 7.43575e-19)
(1.66027 -1.90782 -1.503e-19)
(1.64435 -1.88944 5.99646e-19)
(1.62864 -1.87129 0)
(1.61314 -1.85337 -1.50116e-19)
(1.59782 -1.83567 1.52615e-19)
(1.5827 -1.81819 1.51385e-19)
(1.56776 -1.80091 -4.5995e-19)
(1.553 -1.78382 -3.07385e-19)
(1.5384 -1.76693 0)
(1.52397 -1.75023 -1.54194e-19)
(1.5097 -1.7337 4.68608e-19)
(1.49558 -1.71735 1.57599e-19)
(1.48161 -1.70117 4.73129e-19)
(1.46778 -1.68515 2.20261e-23)
(1.45409 -1.66929 -7.93659e-19)
(1.44054 -1.65358 4.79994e-19)
(1.42712 -1.63802 1.59477e-19)
(1.41384 -1.6226 -4.84497e-19)
(1.40067 -1.60733 1.60951e-19)
(1.38764 -1.5922 3.23352e-19)
(1.37472 -1.57721 1.91046e-23)
(1.36193 -1.56235 -1.95553e-23)
(1.34926 -1.54762 -9.29355e-24)
(1.33672 -1.53304 1.94604e-21)
(1.32429 -1.51858 3.3273e-19)
(1.31199 -1.50426 -1.66452e-19)
(1.29982 -1.49008 1.66976e-19)
(1.28777 -1.47604 0)
(1.27585 -1.46213 5.02719e-19)
(1.26406 -1.44837 -1.95933e-21)
(1.2524 -1.43475 -5.0696e-19)
(1.24088 -1.42127 -1.67974e-19)
(1.22949 -1.40795 1.70214e-19)
(1.21825 -1.39478 1.69461e-19)
(1.20714 -1.38176 1.68641e-19)
(1.19617 -1.3689 -1.7169e-19)
(1.18535 -1.35619 -3.4061e-19)
(1.17467 -1.34366 -1.69835e-19)
(1.16413 -1.33128 -1.27351e-23)
(1.15374 -1.31907 0)
(1.14349 -1.30703 -1.68698e-19)
(1.13339 -1.29515 3.40041e-19)
(1.12344 -1.28345 0)
(1.11363 -1.27192 -1.69195e-19)
(1.10396 -1.26055 -1.68989e-19)
(1.09444 -1.24935 -8.43873e-20)
(1.08505 -1.23832 1.68089e-19)
(1.0758 -1.22746 -1.68828e-19)
(1.06669 -1.21676 -2.08401e-25)
(2.42294 -2.80154 2.01593e-21)
(2.40851 -2.78488 -6.21944e-19)
(2.39393 -2.76804 1.2213e-18)
(2.3792 -2.75102 5.9356e-19)
(2.3643 -2.73382 5.80725e-19)
(2.34923 -2.71642 -5.64094e-19)
(2.334 -2.69883 -5.47707e-19)
(2.31858 -2.68103 5.39617e-19)
(2.30299 -2.66303 -1.04742e-18)
(2.2872 -2.6448 2.04025e-18)
(2.27123 -2.62636 1.48795e-18)
(2.25505 -2.60769 4.81489e-19)
(2.23867 -2.58878 4.68562e-19)
(2.22208 -2.56962 -1.37577e-18)
(2.20527 -2.55022 1.78201e-18)
(2.18824 -2.53056 -4.31326e-19)
(2.17097 -2.51063 4.23431e-19)
(2.15347 -2.49043 8.19525e-19)
(2.13573 -2.46994 -3.96347e-19)
(2.11773 -2.44916 3.89208e-19)
(2.09947 -2.42808 -7.52606e-19)
(2.08094 -2.40669 0)
(2.06214 -2.38497 5.33908e-19)
(2.04304 -2.36292 1.73572e-19)
(2.02365 -2.34052 -6.70512e-19)
(2.00395 -2.31777 -6.51271e-19)
(1.98393 -2.29464 6.32522e-19)
(1.96358 -2.27113 1.38027e-18)
(1.94306 -2.24742 -1.51932e-19)
(1.92274 -2.22392 1.49439e-19)
(1.90276 -2.20083 -7.50858e-19)
(1.88313 -2.17812 0)
(1.86382 -2.15579 -5.9722e-19)
(1.84484 -2.13383 7.44517e-19)
(1.82616 -2.11221 4.45955e-19)
(1.80778 -2.09093 0)
(1.78969 -2.06998 -1.4799e-19)
(1.77188 -2.04935 2.98091e-19)
(1.75435 -2.02902 -1.50159e-19)
(1.73707 -2.00899 4.49203e-19)
(1.72005 -1.98925 1.90674e-21)
(1.70328 -1.96979 -5.98156e-19)
(1.68675 -1.9506 3.00766e-19)
(1.67044 -1.93167 -7.5497e-19)
(1.65436 -1.913 7.55368e-19)
(1.6385 -1.89457 -1.52707e-19)
(1.62285 -1.87637 1.51342e-19)
(1.60739 -1.85841 -1.53808e-19)
(1.59213 -1.84066 6.13808e-19)
(1.57706 -1.82313 -3.0815e-19)
(1.56218 -1.80581 -1.53772e-19)
(1.54746 -1.78869 4.67139e-19)
(1.53292 -1.77176 0)
(1.51853 -1.75501 -1.55822e-19)
(1.50431 -1.73845 1.58447e-19)
(1.49024 -1.72206 0)
(1.47631 -1.70584 -3.17887e-19)
(1.46253 -1.68978 6.38668e-19)
(1.44889 -1.67388 1.61372e-19)
(1.43538 -1.65813 -4.82392e-19)
(1.42201 -1.64254 1.60865e-19)
(1.40876 -1.62709 1.61586e-19)
(1.39564 -1.61179 -3.26454e-19)
(1.38265 -1.59662 0)
(1.36977 -1.58159 -1.63587e-19)