/*--------------------------------*- C++ -*----------------------------------*\
  =========                 |
  \\      /  F ield         | OpenFOAM: The Open Source CFD Toolbox
   \\    /   O peration     | Website:  https://openfoam.org
    \\  /    A nd           | Version:  10
     \\/     M anipulation  |
\*---------------------------------------------------------------------------*/
FoamFile
{
    format      ascii;
    class       volScalarField;
    location    "40000";
    object      nut;
}
// * * * * * * * * * * * * * * * * * * * * * * * * * * * * * * * * * * * * * //

dimensions      [0 2 -1 0 0 0 0];

internalField   nonuniform List<scalar> 
17969
(
1.3827e-09
1.44267e-07
1.47055e-06
5.61953e-06
1.12175e-05
1.60776e-05
1.93278e-05
2.11457e-05
2.28419e-05
2.46727e-05
2.62415e-05
2.50044e-05
2.39554e-05
2.3697e-05
2.43271e-05
2.58925e-05
2.8533e-05
3.2515e-05
3.83463e-05
4.68044e-05
5.44152e-05
6.04281e-05
6.77672e-05
7.66587e-05
8.72881e-05
9.97966e-05
0.000114286
0.000130809
0.000149354
0.000169831
0.000192092
0.000215955
0.000241226
0.000267715
0.000295241
0.000323639
0.00035276
0.000382472
0.000412665
0.000443242
0.00047412
0.000505231
0.000536516
0.000567925
0.000599411
0.000630935
0.000662456
0.000693937
0.000725339
0.000756622
0.000787745
0.000818662
0.000849327
0.00087969
0.000909698
0.000939295
0.00096842
0.000997011
0.001025
0.00105232
0.00107889
0.00110464
0.00112948
0.00115332
0.00117607
0.00119762
0.00121787
0.00123669
0.00125396
0.00126953
0.00128324
0.00129494
0.00130442
0.0013115
0.0013159
0.00131756
0.00131667
0.00131346
0.00128647
0.00125613
0.00122883
0.00120351
0.00117998
0.00115808
0.00113738
0.00111803
0.00110169
0.00109217
0.00109446
0.00111066
0.00113178
0.00112484
0.00110953
0.00109478
0.00108076
0.00106777
0.00105665
0.00104767
0.00104054
0.00103532
7.25424e-10
7.5203e-08
8.41505e-07
3.80949e-06
8.56467e-06
1.32838e-05
1.68299e-05
1.8935e-05
2.06571e-05
2.26483e-05
2.49048e-05
2.73874e-05
2.99393e-05
3.00383e-05
2.89126e-05
2.84238e-05
2.87913e-05
3.00457e-05
3.22608e-05
3.5621e-05
4.04052e-05
4.71247e-05
5.65316e-05
6.44087e-05
7.07682e-05
7.84046e-05
8.75285e-05
9.83155e-05
0.000110902
0.000125386
0.000141831
0.000160254
0.00018062
0.000202831
0.000226732
0.000252139
0.000278852
0.000306676
0.000335425
0.000364932
0.000395046
0.000425637
0.000456591
0.000487813
0.000519217
0.000550734
0.0005823
0.000613859
0.000645361
0.000676756
0.000707997
0.000739038
0.00076983
0.000800324
0.000830468
0.000860209
0.000889488
0.000918246
0.000946419
0.000973939
0.00100074
0.00102674
0.00105185
0.00107601
0.00109911
0.00112105
0.00114172
0.00116102
0.00117881
0.00119495
0.00120928
0.00122164
0.00123184
0.00123969
0.00124491
0.00124743
0.00124747
0.0012453
0.00121438
0.00118416
0.00115714
0.00113212
0.00110913
0.0010882
0.00106907
0.00105143
0.00103529
0.00102176
0.00101385
0.00101619
0.00103196
0.00105606
0.00106432
0.00105135
0.0010391
0.00102786
0.00101835
0.00101085
0.00100512
0.00100127
4.28839e-10
4.41973e-08
5.093e-07
2.59637e-06
6.49209e-06
1.09012e-05
1.46957e-05
1.72646e-05
1.87436e-05
2.03938e-05
2.23626e-05
2.46718e-05
2.73024e-05
3.02205e-05
3.32922e-05
3.5251e-05
3.42282e-05
3.35647e-05
3.36694e-05
3.46076e-05
3.64189e-05
3.9202e-05
4.31844e-05
4.86717e-05
5.62098e-05
6.6552e-05
7.45436e-05
8.11391e-05
8.89752e-05
9.82599e-05
0.000109164
0.00012182
0.000136325
0.000152736
0.000171074
0.000191315
0.000213389
0.000237177
0.000262512
0.000289201
0.000317042
0.000345835
0.000375397
0.000405564
0.00043619
0.000467149
0.000498334
0.000529651
0.000561017
0.000592359
0.000623609
0.000654707
0.000685592
0.000716207
0.000746495
0.000776398
0.000805856
0.00083481
0.000863195
0.000890945
0.000917992
0.000944261
0.000969674
0.000994149
0.0010176
0.00103992
0.00106102
0.00108077
0.00109906
0.00111575
0.00113068
0.00114369
0.0011546
0.00116322
0.00116927
0.00117269
0.0011737
0.00117137
0.00114093
0.00111135
0.00108472
0.00106007
0.00103744
0.00101697
0.000998619
0.000982302
0.00096789
0.000955417
0.00094565
0.000940823
0.000944656
0.000960444
0.000986381
0.00100596
0.000995734
0.000986523
0.000978942
0.000973204
0.000969189
0.000967016
3.00733e-10
3.07943e-08
3.48458e-07
1.88872e-06
5.08028e-06
9.10138e-06
1.30354e-05
1.62185e-05
1.82674e-05
1.94408e-05
2.08078e-05
2.25072e-05
2.45936e-05
2.70651e-05
2.99092e-05
3.31069e-05
3.65621e-05
4.00389e-05
3.98195e-05
3.91409e-05
3.90915e-05
3.97515e-05
4.11994e-05
4.35259e-05
4.68843e-05
5.15588e-05
5.78747e-05
6.64538e-05
7.80319e-05
8.48817e-05
9.16745e-05
9.97007e-05
0.000109163
0.00012022
0.000132994
0.000147565
0.000163975
0.000182229
0.000202293
0.0002241
0.000247546
0.000272493
0.000298776
0.00032621
0.000354606
0.00038378
0.000413561
0.000443794
0.000474341
0.000505081
0.000535907
0.000566722
0.000597439
0.000627978
0.000658264
0.000688225
0.000717789
0.000746889
0.000775454
0.000803414
0.000830697
0.000857228
0.000882929
0.000907718
0.000931507
0.000954203
0.000975705
0.000995902
0.00101467
0.00103189
0.00104741
0.00106107
0.00107271
0.00108216
0.00108914
0.00109358
0.0010957
0.00109547
0.00106615
0.00103738
0.00101145
0.0009875
0.000965544
0.00094569
0.000927966
0.000912444
0.000899214
0.000888345
0.000879996
0.000874788
0.000874321
0.000881337
0.000898779
0.000926441
0.000951104
0.000944192
0.000938813
0.000935132
0.000933117
0.000932911
0.000934676
0.000938539
0.000944573
0.000952786
2.43317e-10
2.48155e-08
2.72432e-07
1.5139e-06
4.23673e-06
7.89282e-06
1.17947e-05
1.53882e-05
1.82465e-05
2.00766e-05
2.10321e-05
2.20402e-05
2.33319e-05
2.50194e-05
2.71327e-05
2.96804e-05
3.26523e-05
3.60307e-05
3.97732e-05
4.3672e-05
4.58022e-05
4.54426e-05
4.53103e-05
4.57608e-05
4.68967e-05
4.88353e-05
5.17255e-05
5.5784e-05
6.13357e-05
6.87183e-05
7.85181e-05
8.9714e-05
9.5713e-05
0.000102729
0.000110977
0.00012064
0.000131857
0.000144727
0.00015931
0.000175626
0.000193663
0.000213379
0.000234701
0.000257534
0.000281761
0.000307244
0.000333831
0.000361359
0.000389661
0.000418574
0.000447941
0.000477614
0.000507457
0.000537347
0.000567167
0.000596815
0.000626191
0.000655203
0.000683765
0.00071179
0.000739196
0.000765899
0.000791816
0.000816862
0.000840946
0.000863977
0.000885855
0.000906477
0.000925729
0.00094349
0.000959631
0.000974014
0.000986493
0.00099692
0.00100502
0.00101072
0.00101423
0.00101582
0.000990513
0.000962984
0.000938017
0.000915148
0.000894262
0.000875423
0.00085866
0.000844051
0.000831767
0.000822039
0.000815136
0.000811408
0.000811472
0.000816482
0.000828369
0.000849687
0.000879783
0.000901328
0.000898407
0.000897047
0.000897303
0.000899338
0.000903317
0.000909361
0.000917535
0.000927835
2.1529e-10
2.19103e-08
2.34306e-07
1.31127e-06
3.73992e-06
7.10751e-06
1.08826e-05
1.46449e-05
1.80466e-05
2.07851e-05
2.26113e-05
2.35221e-05
2.41477e-05
2.50042e-05
2.61892e-05
2.78071e-05
2.99014e-05
3.24914e-05
3.55735e-05
3.91307e-05
4.31459e-05
4.745e-05
5.17841e-05
5.27024e-05
5.26526e-05
5.29386e-05
5.37683e-05
5.53332e-05
5.77949e-05
6.13573e-05
6.62547e-05
7.27472e-05
8.11681e-05
9.20081e-05
0.000101125
0.000107347
0.000114579
0.000123011
0.000132797
0.000144056
0.000156863
0.000171264
0.000187268
0.000204857
0.000223983
0.000244578
0.000266552
0.000289799
0.000314199
0.00033962
0.000365918
0.000392945
0.000420549
0.000448576
0.000476879
0.000505312
0.000533739
0.00056203
0.000590063
0.000617724
0.000644903
0.000671497
0.000697406
0.000722533
0.00074678
0.000770051
0.000792248
0.000813271
0.000833014
0.00085137
0.000868227
0.000883467
0.000896966
0.000908594
0.000918073
0.000925279
0.000930386
0.000933615
0.000915069
0.000889482
0.000865901
0.000844487
0.000825022
0.000807563
0.000792143
0.000778809
0.000767709
0.000759108
0.000753378
0.000751005
0.000752587
0.000758835
0.000770564
0.000788922
0.000816196
0.000849641
0.000858199
0.000859382
0.000862144
0.000866661
0.000873092
0.000881549
0.000892082
0.000904667
2.00314e-10
2.03705e-08
2.13328e-07
1.1909e-06
3.42085e-06
6.55743e-06
1.01658e-05
1.3931e-05
1.76023e-05
2.09474e-05
2.37368e-05
2.57505e-05
2.68265e-05
2.72089e-05
2.76612e-05
2.83406e-05
2.93627e-05
3.08471e-05
3.28618e-05
3.54424e-05
3.85973e-05
4.23124e-05
4.65652e-05
5.12492e-05
5.61269e-05
6.08902e-05
6.1148e-05
6.12686e-05
6.18515e-05
6.30585e-05
6.51057e-05
6.8174e-05
7.247e-05
7.81957e-05
8.55001e-05
9.47206e-05
0.000106271
0.000113424
0.000119806
0.000127148
0.000135612
0.000145334
0.000156414
0.000168922
0.000182898
0.000198352
0.000215265
0.000233595
0.000253273
0.000274214
0.000296313
0.000319453
0.000343508
0.00036834
0.000393806
0.000419761
0.000446054
0.00047254
0.000499073
0.000525512
0.000551722
0.000577574
0.000602944
0.000627715
0.000651774
0.000675014
0.000697329
0.000718617
0.000738776
0.000757706
0.000775305
0.000791467
0.000806083
0.000819031
0.000830007
0.000838835
0.000845648
0.000850617
0.000842133
0.000818973
0.000796867
0.000777101
0.000759366
0.000743631
0.000729901
0.000718193
0.000708633
0.000701483
0.000697137
0.000696153
0.000699284
0.000707403
0.000721153
0.000740748
0.000767373
0.000800548
0.000818687
0.000822588
0.000828055
0.000835263
0.000844358
0.000855432
0.000868511
0.000883546
0.000900423
1.9283e-10
1.96127e-08
2.01769e-07
1.11654e-06
3.20577e-06
6.15531e-06
9.58804e-06
1.32584e-05
1.6992e-05
2.06333e-05
2.40193e-05
2.69688e-05
2.92842e-05
3.07652e-05
3.13461e-05
3.1452e-05
3.16963e-05
3.21535e-05
3.29427e-05
3.42018e-05
3.60376e-05
3.85107e-05
4.16439e-05
4.54309e-05
4.98481e-05
5.48643e-05
6.02127e-05
6.5608e-05
7.01116e-05
7.04883e-05
7.08949e-05
7.18726e-05
7.3587e-05
7.62281e-05
7.99792e-05
8.50242e-05
9.15212e-05
9.95412e-05
0.000109443
0.000120727
0.000126421
0.000132821
0.000140098
0.000148399
0.000157847
0.000168537
0.000180539
0.000193894
0.000208615
0.000224686
0.000242064
0.000260682
0.000280448
0.000301257
0.000322989
0.000345511
0.000368685
0.000392367
0.000416412
0.000440674
0.000465009
0.000489274
0.000513335
0.000537058
0.000560317
0.000582992
0.000604968
0.000626135
0.000646387
0.000665622
0.00068374
0.000700637
0.00071621
0.000730337
0.000742682
0.000753024
0.000761459
0.000768123
0.000772517
0.000752975
0.000732917
0.000715093
0.000699371
0.000685634
0.000673904
0.000664182
0.000656554
0.000651336
0.000649006
0.000650025
0.000655008
0.000664913
0.000680564
0.000702178
0.000730459
0.000763907
0.000780367
0.000787117
0.000795451
0.000805526
0.000817463
0.000831322
0.000847093
0.000864701
0.000884
0.000904794
0.000926849
1.91076e-10
1.94532e-08
1.96911e-07
1.07537e-06
3.0708e-06
5.88122e-06
9.16229e-06
1.27087e-05
1.63932e-05
2.01156e-05
2.37762e-05
2.72604e-05
3.04297e-05
3.31185e-05
3.51359e-05
3.62877e-05
3.6554e-05
3.64318e-05
3.6431e-05
3.66081e-05
3.70845e-05
3.80197e-05
3.95537e-05
4.17795e-05
4.47503e-05
4.84838e-05
5.29707e-05
5.81943e-05
6.39348e-05
6.98686e-05
7.57335e-05
7.98261e-05
8.05846e-05
8.15375e-05
8.31332e-05
8.55342e-05
8.89008e-05
9.34301e-05
9.93002e-05
0.000106599
0.000115449
0.000126123
0.000134174
0.000139823
0.000146102
0.000153165
0.000161152
0.000170176
0.000180332
0.000191689
0.000204286
0.000218138
0.000233226
0.000249504
0.000266902
0.000285324
0.00030466
0.000324785
0.000345566
0.000366862
0.00038853
0.000410429
0.000432416
0.000454355
0.000476112
0.000497559
0.000518574
0.000539041
0.000558849
0.000577891
0.000596066
0.00061327
0.000629399
0.000644333
0.000657711
0.000669272
0.00067909
0.000687284
0.00069394
0.000691836
0.000676674
0.000661485
0.000647643
0.000635852
0.000626482
0.000619385
0.000614399
0.000611893
0.000612576
0.0006165
0.000623547
0.00063404
0.000648817
0.000668911
0.000696673
0.000730764
0.000743641
0.000753334
0.000764663
0.000777749
0.000792665
0.000809431
0.000827997
0.000848247
0.000870009
0.000893061
0.000917152
0.000942019
1.94868e-10
1.98699e-08
1.98013e-07
1.06307e-06
3.00813e-06
5.73227e-06
8.90923e-06
1.23545e-05
1.59639e-05
1.96666e-05
2.34015e-05
2.71033e-05
3.06937e-05
3.40741e-05
3.71187e-05
3.96713e-05
4.15437e-05
4.25433e-05
4.26292e-05
4.22794e-05
4.20183e-05
4.18851e-05
4.19951e-05
4.2515e-05
4.3611e-05
4.54236e-05
4.80513e-05
5.15467e-05
5.59235e-05
6.11761e-05
6.71661e-05
7.35494e-05
7.99975e-05
8.6325e-05
9.03311e-05
9.18078e-05
9.35774e-05
9.60225e-05
9.93074e-05
0.000103579
0.000109048
0.000115857
0.000124058
0.000133822
0.000142896
0.000148015
0.000153529
0.000159593
0.000166351
0.00017393
0.00018244
0.000191967
0.000202574
0.000214296
0.000227139
0.00024108
0.00025607
0.000272036
0.000288883
0.0003065
0.000324764
0.000343546
0.000362714
0.000382128
0.000401656
0.000421167
0.000440536
0.00045964
0.000478366
0.000496605
0.000514253
0.000531206
0.000547362
0.000562603
0.000576555
0.00058893
0.000599783
0.000609222
0.000617332
0.00062417
0.000627591
0.000617139
0.000607145
0.000598926
0.000592675
0.000588637
0.000586784
0.000587056
0.000589549
0.000594552
0.000601884
0.000607853
0.000614947
0.000626077
0.000643262
0.000669017
0.000701958
0.0007214
0.000735852
0.000752066
0.000770067
0.000789822
0.000811235
0.000834153
0.000858367
0.000883635
0.000909691
0.000936265
0.000963094
0.000989935
2.04451e-10
2.08933e-08
2.05033e-07
1.07769e-06
3.01198e-06
5.70085e-06
8.82858e-06
1.22206e-05
1.57812e-05
1.94513e-05
2.31867e-05
2.69469e-05
3.06887e-05
3.43604e-05
3.78961e-05
4.12104e-05
4.41899e-05
4.669e-05
4.85308e-05
4.95207e-05
4.95593e-05
4.90218e-05
4.85293e-05
4.81096e-05
4.78465e-05
4.78958e-05
4.84554e-05
4.97119e-05
5.18139e-05
5.48599e-05
5.88987e-05
6.39456e-05
6.99739e-05
7.66371e-05
8.35578e-05
9.05029e-05
9.73146e-05
0.000102218
0.000104742
0.000107538
0.000111014
0.000115376
0.000120826
0.00012746
0.000135312
0.000144462
0.000152373
0.000157194
0.000162196
0.000167532
0.000173343
0.000179756
0.000186883
0.000194818
0.000203636
0.000213385
0.000224093
0.000235758
0.000248355
0.000261835
0.000276129
0.000291148
0.000306789
0.000322939
0.000339481
0.000356299
0.00037327
0.000390274
0.000407198
0.000423935
0.000440382
0.000456437
0.000472
0.00048696
0.000500937
0.000513625
0.000525063
0.000535345
0.000544555
0.000552772
0.000560087
0.00056665
0.000572829
0.00057389
0.000571378
0.000570603
0.000572072
0.000574539
0.000569112
0.000566571
0.000566101
0.000567854
0.000572435
0.000580708
0.000594042
0.000614416
0.000644209
0.00068184
0.000709108
0.000728544
0.000749699
0.000772485
0.000796756
0.000822315
0.000848924
0.000876317
0.000904219
0.000932359
0.000960482
0.000988355
0.00101578
0.00104258
0.00106861
0.00109378
2.20191e-10
2.25735e-08
2.18335e-07
1.11847e-06
3.07729e-06
5.77538e-06
8.90519e-06
1.22967e-05
1.58526e-05
1.95181e-05
2.32542e-05
2.70292e-05
3.08144e-05
3.45805e-05
3.8294e-05
4.19135e-05
4.53852e-05
4.86373e-05
5.15737e-05
5.40681e-05
5.5957e-05
5.70503e-05
5.72089e-05
5.66145e-05
5.59329e-05
5.52779e-05
5.46986e-05
5.43114e-05
5.43189e-05
5.49421e-05
5.63808e-05
5.87901e-05
6.22714e-05
6.68775e-05
7.26545e-05
7.9343e-05
8.6565e-05
9.39921e-05
0.000101436
0.000108764
0.000115854
0.000119919
0.000123991
0.000128739
0.000134383
0.000141117
0.000149066
0.000157346
0.000162189
0.000166924
0.000171681
0.000176588
0.000181768
0.000187334
0.000193391
0.000200031
0.000207332
0.00021535
0.000224126
0.000233677
0.000244002
0.000255073
0.000266849
0.000279273
0.000292271
0.000305758
0.000319638
0.000333815
0.000348192
0.000362677
0.000377173
0.000391591
0.000405842
0.000419823
0.000433168
0.000445562
0.000457021
0.000467619
0.000477426
0.000486511
0.00049495
0.00050285
0.000510378
0.000517775
0.000525024
0.000531946
0.000538691
0.000541645
0.000538981
0.000536328
0.000534549
0.000534848
0.000538201
0.000545297
0.00055695
0.000574224
0.0005988
0.000632817
0.000674745
0.000707303
0.000731631
0.000757434
0.000784513
0.000812628
0.000841512
0.000870883
0.00090046
0.000929976
0.00095919
0.000987885
0.00101588
0.00104303
0.00106921
0.00109435
2.42394e-10
2.49555e-08
2.38064e-07
1.184e-06
3.19854e-06
5.94101e-06
9.10957e-06
1.25382e-05
1.61325e-05
1.98329e-05
2.35981e-05
2.73973e-05
3.12062e-05
3.5004e-05
3.87713e-05
4.24883e-05
4.61315e-05
4.96708e-05
5.30655e-05
5.62588e-05
5.9172e-05
6.16978e-05
6.36923e-05
6.49654e-05
6.53829e-05
6.49271e-05
6.41066e-05
6.33003e-05
6.25071e-05
6.17896e-05
6.13152e-05
6.13184e-05
6.20386e-05
6.36885e-05
6.6432e-05
7.03766e-05
7.55956e-05
8.20056e-05
8.9263e-05
9.69817e-05
0.000104905
0.000112834
0.000120648
0.000128254
0.000135575
0.000142567
0.000149174
0.000155362
0.000161136
0.000166541
0.000171651
0.000176554
0.000181345
0.000186125
0.000190992
0.000196044
0.000201372
0.000207059
0.000213178
0.000219789
0.000226941
0.000234659
0.000242957
0.00025184
0.000261292
0.000271284
0.000281769
0.000292697
0.000304014
0.000315657
0.000327553
0.000339637
0.00035185
0.000364112
0.000376094
0.0003875
0.000398324
0.000408612
0.000418412
0.000427774
0.000436753
0.000445415
0.000453844
0.000462157
0.000470509
0.000479116
0.000487875
0.000496622
0.000505483
0.000509502
0.000509643
0.000510489
0.00051334
0.000519453
0.000529749
0.000544959
0.000566074
0.000594726
0.000632887
0.000678876
0.000715959
0.000744687
0.000774445
0.000804955
0.000835923
0.000867056
0.000898075
0.000928725
0.00095878
0.000988049
0.00101637
0.00104363
0.00106973
0.00109462
2.71881e-10
2.81316e-08
2.64899e-07
1.27408e-06
3.3563e-06
6.17383e-06
9.42481e-06
1.29372e-05
1.66108e-05
2.03811e-05
2.42037e-05
2.80465e-05
3.18856e-05
3.5703e-05
3.94853e-05
4.32215e-05
4.69022e-05
5.05174e-05
5.40541e-05
5.74935e-05
6.08072e-05
6.39524e-05
6.68663e-05
6.94592e-05
7.16083e-05
7.31412e-05
7.38967e-05
7.37521e-05
7.29403e-05
7.20683e-05
7.11608e-05
7.02516e-05
6.94315e-05
6.89146e-05
6.89577e-05
6.98168e-05
7.17131e-05
7.48125e-05
7.92212e-05
8.50443e-05
9.20121e-05
9.97518e-05
0.000107924
0.000116291
0.000124664
0.000132893
0.000140857
0.000148462
0.00015566
0.000162417
0.000168739
0.00017466
0.000180229
0.000185505
0.000190559
0.000195465
0.000200301
0.000205144
0.000210071
0.000215153
0.000220453
0.000226029
0.000231927
0.000238187
0.000244837
0.000251896
0.000259367
0.000267249
0.000275532
0.0002842
0.000293236
0.000302618
0.000312321
0.000322305
0.000332313
0.000342096
0.000351638
0.000360968
0.000370118
0.000379119
0.000388007
0.000396824
0.000405623
0.000414469
0.000423449
0.000432666
0.000442236
0.000452356
0.000463001
0.000474174
0.00048591
0.000490877
0.000494472
0.000500152
0.000509491
0.000523433
0.000542587
0.000567856
0.000600799
0.000643108
0.000692822
0.000734212
0.000766433
0.000799091
0.000831873
0.000864483
0.000896653
0.000928143
0.000958753
0.000988316
0.0010167
0.00104382
0.0010696
0.00109401
3.08808e-10
3.2145e-08
2.99607e-07
1.38025e-06
3.56135e-06
6.49007e-06
9.85758e-06
1.34847e-05
1.72648e-05
2.11287e-05
2.50283e-05
2.89295e-05
3.28078e-05
3.66462e-05
4.04336e-05
4.41636e-05
4.78333e-05
5.14421e-05
5.49902e-05
5.84771e-05
6.1899e-05
6.52467e-05
6.85018e-05
7.16324e-05
7.45881e-05
7.72932e-05
7.96405e-05
8.14784e-05
8.2604e-05
8.29134e-05
8.23831e-05
8.14967e-05
8.05671e-05
7.95914e-05
7.85892e-05
7.77092e-05
7.71999e-05
7.73364e-05
7.83856e-05
8.05753e-05
8.40758e-05
8.90102e-05
9.533e-05
0.000102739
0.000110859
0.00011938
0.000128053
0.000136677
0.000145097
0.0001532
0.000160916
0.000168227
0.000175116
0.000181591
0.000187683
0.000193428
0.000198872
0.000204068
0.000209071
0.000213942
0.000218738
0.000223517
0.000228334
0.000233242
0.000238285
0.000243503
0.000248935
0.000254608
0.00026055
0.000266781
0.000273322
0.000280192
0.000287414
0.000294999
0.000302782
0.000310584
0.000318407
0.000326276
0.000334222
0.000342277
0.00035047
0.000358836
0.000367416
0.000376257
0.000385416
0.000394964
0.000404986
0.000415586
0.000426871
0.00043898
0.000452119
0.000466409
0.000478744
0.000485406
0.000494494
0.000507971
0.000526317
0.000549926
0.000579609
0.000616706
0.000662593
0.000715112
0.000760287
0.000794753
0.000828997
0.000862731
0.000895703
0.000927698
0.000958543
0.000988102
0.00101627
0.00104299
0.00106822
0.00109193
0.00111415
3.52849e-10
3.69584e-08
3.40584e-07
1.50947e-06
3.816e-06
6.88421e-06
1.03941e-05
1.41582e-05
1.80632e-05
2.2035e-05
2.60225e-05
2.99896e-05
3.39113e-05
3.77712e-05
4.15599e-05
4.52738e-05
4.89142e-05
5.24856e-05
5.59955e-05
5.94525e-05
6.28649e-05
6.62396e-05
6.95796e-05
7.28819e-05
7.61342e-05
7.93115e-05
8.23713e-05
8.52471e-05
8.78428e-05
9.00262e-05
9.16015e-05
9.24129e-05
9.23468e-05
9.15873e-05
9.07088e-05
8.97415e-05
8.87014e-05
8.76313e-05
8.67383e-05
8.62927e-05
8.65844e-05
8.78833e-05
9.04103e-05
9.43166e-05
9.97278e-05
0.000106457
0.000114176
0.000122518
0.000131187
0.000139942
0.000148606
0.000157048
0.00016518
0.000172943
0.000180323
0.000187308
0.000193901
0.000200119
0.000205991
0.00021155
0.000216832
0.000221879
0.000226736
0.000231447
0.000236056
0.000240605
0.000245138
0.000249695
0.00025432
0.000259051
0.00026393
0.000269001
0.000274313
0.000279914
0.00028572
0.000291632
0.000297685
0.000303925
0.0003104
0.000317154
0.000324231
0.000331673
0.000339526
0.000347836
0.000356658
0.000366055
0.000376104
0.000386901
0.000398568
0.000411257
0.000425151
0.000440454
0.000457373
0.00047264
0.000482946
0.000496681
0.000515232
0.000538657
0.000567121
0.000601081
0.000641694
0.00069029
0.000744422
0.000791586
0.000826855
0.000861294
0.000894673
0.000926806
0.000957549
0.000986797
0.00101448
0.00104055
0.001065
0.00108783
0.00110907
4.05209e-10
4.26752e-08
3.87796e-07
1.66096e-06
4.11638e-06
7.34713e-06
1.10188e-05
1.49348e-05
1.89752e-05
2.30617e-05
2.71402e-05
3.11734e-05
3.51362e-05
3.90132e-05
4.27971e-05
4.6487e-05
5.00875e-05
5.36076e-05
5.70595e-05
6.04573e-05
6.38164e-05
6.71519e-05
7.04772e-05
7.3803e-05
7.71353e-05
8.04734e-05
8.38074e-05
8.7115e-05
9.03571e-05
9.3473e-05
9.63738e-05
9.89379e-05
0.000100993
0.000102301
0.000102791
0.000102416
0.000101611
0.000100712
9.97272e-05
9.86289e-05
9.75366e-05
9.66966e-05
9.63927e-05
9.69143e-05
9.85197e-05
0.000101413
0.00010573
0.000111471
0.000118408
0.000126211
0.000134549
0.000143153
0.000151815
0.000160383
0.000168744
0.00017682
0.000184557
0.00019193
0.000198935
0.000205566
0.000211831
0.000217748
0.000223339
0.000228632
0.000233654
0.000238437
0.000243016
0.000247426
0.000251707
0.000255901
0.000260051
0.000264207
0.000268426
0.000272768
0.0002772
0.000281688
0.0002863
0.000291112
0.000296196
0.000301622
0.000307456
0.00031376
0.000320599
0.000328037
0.00033614
0.000344983
0.000354656
0.000365267
0.000376954
0.000389893
0.000404294
0.000420395
0.000438427
0.000458586
0.000472957
0.000487661
0.000507085
0.000531533
0.00056076
0.000594542
0.00063259
0.000675505
0.000725427
0.000783315
0.000824895
0.000859594
0.000892968
0.000924864
0.000955167
0.000983802
0.00101072
0.00103592
0.00105939
0.00108117
0.0011013
4.66887e-10
4.9404e-08
4.41106e-07
1.83476e-06
4.45931e-06
7.8699e-06
1.1716e-05
1.57918e-05
1.99715e-05
2.41726e-05
2.83389e-05
3.24324e-05
3.64286e-05
4.03138e-05
4.40831e-05
4.7739e-05
5.12899e-05
5.47487e-05
5.8132e-05
6.14584e-05
6.47481e-05
6.80212e-05
7.12972e-05
7.45936e-05
7.7925e-05
8.1302e-05
8.47299e-05
8.82066e-05
9.17211e-05
9.52504e-05
9.87559e-05
0.000102179
0.000105435
0.000108407
0.000110943
0.000112814
0.000113853
0.000113992
0.000113379
0.000112591
0.000111693
0.00011069
0.000109571
0.000108532
0.000107829
0.000107748
0.000108562
0.000110498
0.000113708
0.000118296
0.000124172
0.000131103
0.000138786
0.000146934
0.000155316
0.000163751
0.000172105
0.000180278
0.000188196
0.000195808
0.00020308
0.000210002
0.00021657
0.00022278
0.000228639
0.000234162
0.000239365
0.000244269
0.000248899
0.000253285
0.000257462
0.00026147
0.000265358
0.000269185
0.000272934
0.000276606
0.000280295
0.000284102
0.000288122
0.000292452
0.000297184
0.000302406
0.000308207
0.000314675
0.000321903
0.000329991
0.000339054
0.000349227
0.000360682
0.00037363
0.000388321
0.000405026
0.000424001
0.000445435
0.000466189
0.000482495
0.000503184
0.000529245
0.00055971
0.000594252
0.000635544
0.000674623
0.000716968
0.000764212
0.000813695
0.000857111
0.000890069
0.000921357
0.000950889
0.000978618
0.00100453
0.00102863
0.00105094
0.00107152
0.00109042
0.0011077
5.38835e-10
5.72208e-08
5.01013e-07
2.02995e-06
4.83873e-06
8.44014e-06
1.24672e-05
1.67053e-05
2.10227e-05
2.53334e-05
2.95797e-05
3.37234e-05
3.77414e-05
4.16224e-05
4.53648e-05
4.89749e-05
5.24653e-05
5.58534e-05
5.916e-05
6.2408e-05
6.56216e-05
6.88249e-05
7.20412e-05
7.52922e-05
7.8597e-05
8.19715e-05
8.54278e-05
8.89732e-05
9.2609e-05
9.63297e-05
0.000100121
0.000103957
0.000107798
0.000111586
0.000115238
0.000118644
0.00012166
0.00012409
0.000125656
0.000126343
0.000126135
0.00012546
0.000124676
0.000123828
0.000122835
0.000121784
0.0001209
0.000120438
0.000120659
0.000121792
0.000124024
0.000127457
0.000132129
0.00013793
0.000144658
0.000152048
0.000159855
0.000167879
0.000175964
0.000183987
0.000191858
0.000199504
0.000206874
0.000213932
0.000220652
0.000227029
0.000233053
0.000238723
0.000244043
0.000249025
0.000253687
0.000258052
0.000262156
0.000266039
0.000269678
0.000273081
0.000276357
0.000279623
0.000282993
0.000286584
0.000290506
0.000294874
0.000299802
0.000305406
0.000311806
0.000319136
0.000327544
0.000337206
0.000348338
0.0003612
0.000376094
0.000393333
0.0004132
0.000435878
0.000461412
0.000482652
0.000505494
0.000533009
0.000567333
0.000600964
0.000636709
0.000674344
0.000713406
0.0007545
0.000798028
0.000842041
0.000882785
0.000915951
0.000944396
0.00097093
0.000995555
0.0010183
0.0010369
0.0010523
0.00106591
0.00107832
6.2178e-10
6.62368e-08
5.66821e-07
2.24193e-06
5.24366e-06
9.04129e-06
1.32513e-05
1.76501e-05
2.21002e-05
2.65123e-05
3.08276e-05
3.50088e-05
3.90348e-05
4.28972e-05
4.65986e-05
5.01498e-05
5.35684e-05
5.68763e-05
6.00988e-05
6.32631e-05
6.63968e-05
6.95277e-05
7.26822e-05
7.58848e-05
7.91572e-05
8.25184e-05
8.59835e-05
8.95637e-05
9.3266e-05
9.70924e-05
0.000101039
0.000105096
0.000109244
0.000113455
0.000117687
0.00012188
0.000125955
0.000129805
0.000133288
0.000136239
0.000138395
0.000139604
0.000139893
0.000139425
0.000138789
0.000138084
0.000137322
0.000136428
0.000135566
0.000134949
0.00013481
0.00013537
0.000136811
0.000139265
0.000142784
0.000147376
0.000152938
0.000159312
0.000166271
0.000173608
0.000181153
0.000188766
0.000196336
0.000203776
0.000211018
0.000218005
0.000224697
0.000231061
0.000237077
0.000242736
0.000248033
0.000252968
0.000257556
0.000261818
0.000265708
0.000269221
0.000272468
0.000275574
0.000278662
0.000281859
0.000285294
0.000289097
0.000293404
0.000298354
0.000304092
0.00031079
0.000318638
0.000327854
0.000338706
0.000351514
0.000366636
0.00038443
0.000405197
0.000429106
0.000456151
0.000486135
0.000515518
0.000543645
0.000574542
0.000608021
0.000643002
0.000678768
0.000714983
0.000751808
0.0007895
0.000827723
0.00086504
0.00089931
0.000929074
0.000954256
0.000975637
0.000993983
0.00100964
0.00102276
0.0010337
0.00104305
7.17029e-10
7.64872e-08
6.40101e-07
2.46576e-06
5.66244e-06
9.65699e-06
1.40486e-05
1.86037e-05
2.31786e-05
2.7681e-05
3.2052e-05
3.62565e-05
4.02761e-05
4.41046e-05
4.77501e-05
5.12291e-05
5.45642e-05
5.77827e-05
6.09145e-05
6.39902e-05
6.7041e-05
7.00981e-05
7.31906e-05
7.63455e-05
7.95861e-05
8.2933e-05
8.64029e-05
9.00091e-05
9.37605e-05
9.76623e-05
0.000101715
0.000105916
0.000110255
0.000114717
0.00011928
0.000123911
0.000128568
0.000133189
0.000137697
0.00014199
0.000145935
0.000149375
0.000152106
0.000153819
0.000154621
0.00015456
0.000154064
0.000153509
0.000152992
0.000152389
0.000151715
0.000151156
0.000150899
0.000151136
0.000152035
0.000153737
0.000156323
0.000159807
0.000164188
0.000169383
0.000175276
0.000181684
0.00018843
0.000195367
0.000202371
0.00020934
0.000216188
0.000222846
0.000229257
0.000235374
0.000241162
0.000246596
0.000251667
0.000256371
0.000260629
0.00026442
0.000267844
0.000271023
0.000274081
0.000277148
0.000280359
0.000283856
0.000287789
0.000292318
0.000297611
0.000303862
0.000311309
0.000320219
0.000330916
0.000343779
0.000359219
0.000377629
0.000399309
0.000424383
0.000452753
0.000484048
0.00051772
0.000553215
0.000587026
0.000620576
0.000654615
0.000688409
0.000721539
0.000754301
0.000787177
0.000820179
0.000852705
0.000883694
0.000911941
0.000936562
0.000957246
0.000974122
0.000987557
0.000998019
0.00100607
0.00101235
8.2357e-10
8.78398e-08
7.19759e-07
2.70097e-06
6.0917e-06
1.02817e-05
1.4852e-05
1.95575e-05
2.4248e-05
2.88284e-05
3.32396e-05
3.74484e-05
4.14408e-05
4.5218e-05
4.87925e-05
5.21861e-05
5.54266e-05
5.85469e-05
6.15829e-05
6.45657e-05
6.75304e-05
7.05117e-05
7.35422e-05
7.66504e-05
7.98604e-05
8.31939e-05
8.66689e-05
9.02994e-05
9.40951e-05
9.80621e-05
0.000102203
0.000106517
0.000110999
0.000115639
0.000120424
0.000125335
0.000130346
0.000135422
0.000140517
0.000145572
0.00015051
0.000155233
0.000159617
0.000163507
0.000166746
0.000169059
0.000170343
0.000170777
0.000170517
0.000170145
0.000169781
0.000169511
0.000169161
0.000168812
0.000168632
0.000168768
0.000169371
0.000170558
0.000172429
0.000175034
0.00017836
0.000182403
0.000187108
0.000192391
0.000198112
0.00020412
0.000210286
0.0002165
0.000222667
0.000228706
0.00023455
0.000240143
0.00024544
0.000250403
0.000254926
0.000258958
0.000262577
0.000265896
0.000269033
0.000272113
0.000275269
0.000278645
0.000282397
0.000286699
0.00029174
0.000297743
0.000304972
0.000313747
0.000324448
0.000337509
0.000353384
0.000372481
0.000395068
0.000421192
0.000450643
0.000482885
0.000517285
0.000553262
0.000590203
0.000627516
0.000664636
0.00070105
0.000734639
0.000764297
0.000792931
0.000821051
0.000848506
0.000874959
0.000899912
0.000922633
0.000942312
0.00095837
0.000970621
0.000979262
0.000984804
0.000988016
9.40893e-10
1.00197e-07
8.03691e-07
2.94488e-06
6.53138e-06
1.09152e-05
1.56587e-05
2.05051e-05
2.52984e-05
2.99416e-05
3.4377e-05
3.85748e-05
4.25259e-05
4.62372e-05
4.97271e-05
5.3023e-05
5.6158e-05
5.91692e-05
6.20954e-05
6.49757e-05
6.78485e-05
7.07509e-05
7.37183e-05
7.67816e-05
7.99606e-05
8.328e-05
8.67599e-05
9.04142e-05
9.42518e-05
9.82794e-05
0.0001025
0.000106915
0.000111518
0.000116304
0.000121262
0.00012638
0.00013164
0.000137019
0.000142489
0.000148012
0.000153541
0.000159019
0.000164368
0.000169495
0.000174287
0.000178603
0.000182295
0.00018519
0.000186958
0.000187867
0.000188063
0.000187848
0.000187664
0.00018758
0.000187591
0.000187546
0.000187548
0.000187724