/*--------------------------------*- C++ -*----------------------------------*\
  =========                 |
  \\      /  F ield         | OpenFOAM: The Open Source CFD Toolbox
   \\    /   O peration     | Website:  https://openfoam.org
    \\  /    A nd           | Version:  10
     \\/     M anipulation  |
\*---------------------------------------------------------------------------*/
FoamFile
{
    format      ascii;
    class       volScalarField;
    location    "75000";
    object      Co;
}
// * * * * * * * * * * * * * * * * * * * * * * * * * * * * * * * * * * * * * //

dimensions      [0 0 0 0 0 0 0];

internalField   nonuniform List<scalar> 
17922
(
4634.86
4624.27
4613.61
4602.86
4592.01
4581.07
4570.03
4558.87
4547.59
4536.18
4524.63
4512.93
4501.06
4489.03
4476.81
4464.39
4451.76
4438.9
4425.81
4412.45
4398.82
4384.9
4370.65
4356.07
4341.12
4325.78
4310.02
4293.81
4277.27
4260.66
4244.1
4227.6
4211.12
4194.67
4178.24
4161.81
4145.38
4128.94
4112.49
4096.01
4079.5
4062.95
4046.36
4029.72
4013.02
3996.26
3979.44
3962.62
3945.79
3928.89
3911.9
3894.83
3877.66
3860.39
3843.02
3825.54
3807.95
3790.25
3772.42
3754.48
3736.42
3718.24
3699.95
3681.53
3663
3644.36
3625.62
3606.78
3587.85
3568.85
3549.78
3530.66
3511.51
3492.33
3473.15
3453.97
3434.83
3415.72
3396.67
3377.7
3358.81
3340.03
3321.35
3302.81
3284.4
3266.13
3248.02
3230.06
3212.27
3194.65
3177.19
3159.9
3142.78
4501.73
4491.44
4481.08
4470.64
4460.11
4449.48
4438.75
4427.92
4416.96
4405.87
4394.65
4383.29
4371.76
4360.07
4348.2
4336.14
4323.87
4311.39
4298.67
4285.7
4272.46
4258.93
4245.1
4230.93
4216.42
4201.52
4186.21
4170.47
4154.4
4138.27
4122.19
4106.16
4090.16
4074.19
4058.23
4042.28
4026.32
4010.36
3994.38
3978.37
3962.34
3946.27
3930.16
3914
3897.78
3881.51
3865.19
3848.87
3832.54
3816.12
3799.63
3783.05
3766.38
3749.62
3732.75
3715.78
3698.7
3681.51
3664.2
3646.78
3629.25
3611.59
3593.83
3575.94
3557.95
3539.85
3521.66
3503.36
3484.99
3466.54
3448.03
3429.46
3410.87
3392.25
3373.62
3355.01
3336.42
3317.87
3299.38
3280.95
3262.61
3244.36
3226.23
3208.21
3190.32
3172.57
3154.96
3137.51
3120.21
3103.06
3086.08
3069.26
3052.6
4372.42
4362.43
4352.36
4342.22
4331.99
4321.67
4311.25
4300.72
4290.08
4279.31
4268.41
4257.37
4246.18
4234.82
4223.29
4211.58
4199.66
4187.54
4175.18
4162.58
4149.73
4136.59
4123.15
4109.39
4095.29
4080.82
4065.96
4050.67
4035.06
4019.39
4003.78
3988.21
3972.68
3957.17
3941.67
3926.17
3910.68
3895.18
3879.66
3864.12
3848.55
3832.94
3817.3
3801.6
3785.86
3770.05
3754.22
3738.39
3722.53
3706.59
3690.58
3674.48
3658.3
3642.02
3625.64
3609.16
3592.58
3575.88
3559.08
3542.16
3525.14
3507.99
3490.74
3473.38
3455.91
3438.33
3420.66
3402.9
3385.06
3367.15
3349.17
3331.15
3313.09
3295.02
3276.94
3258.86
3240.81
3222.8
3204.84
3186.95
3169.13
3151.41
3133.79
3116.28
3098.9
3081.65
3064.53
3047.56
3030.74
3014.07
2997.55
2981.18
2964.96
4246.83
4237.12
4227.34
4217.49
4207.55
4197.53
4187.41
4177.18
4166.84
4156.38
4145.8
4135.07
4124.2
4113.17
4101.97
4090.59
4079.02
4067.24
4055.24
4043.01
4030.52
4017.76
4004.71
3991.35
3977.65
3963.6
3949.16
3934.31
3919.15
3903.94
3888.77
3873.65
3858.57
3843.5
3828.45
3813.41
3798.36
3783.3
3768.23
3753.14
3738.02
3722.87
3707.67
3692.43
3677.14
3661.8
3646.44
3631.08
3615.68
3600.21
3584.66
3569.03
3553.31
3537.5
3521.6
3505.6
3489.49
3473.28
3456.97
3440.54
3424.01
3407.36
3390.61
3373.74
3356.78
3339.71
3322.55
3305.31
3287.98
3270.59
3253.14
3235.64
3218.11
3200.56
3183
3165.45
3147.92
3130.43
3112.99
3095.61
3078.31
3061.09
3043.97
3026.96
3010.06
2993.3
2976.66
2960.16
2943.8
2927.58
2911.5
2895.58
2879.79
4124.84
4115.41
4105.92
4096.34
4086.69
4076.95
4067.12
4057.19
4047.14
4036.99
4026.7
4016.29
4005.73
3995.01
3984.14
3973.08
3961.84
3950.4
3938.75
3926.86
3914.73
3902.34
3889.66
3876.69
3863.39
3849.74
3835.71
3821.29
3806.57
3791.79
3777.07
3762.39
3747.73
3733.1
3718.49
3703.87
3689.26
3674.64
3660.01
3645.35
3630.67
3615.95
3601.2
3586.4
3571.55
3556.65
3541.75
3526.85
3511.9
3496.87
3481.78
3466.6
3451.34
3435.99
3420.55
3405.01
3389.37
3373.63
3357.78
3341.83
3325.77
3309.61
3293.34
3276.96
3260.48
3243.91
3227.25
3210.5
3193.68
3176.79
3159.84
3142.85
3125.82
3108.78
3091.73
3074.69
3057.67
3040.68
3023.74
3006.86
2990.05
2973.32
2956.69
2940.16
2923.74
2907.44
2891.26
2875.22
2859.31
2843.53
2827.89
2812.39
2797.03
4006.36
3997.2
3987.97
3978.68
3969.3
3959.84
3950.29
3940.64
3930.89
3921.02
3911.03
3900.91
3890.65
3880.25
3869.68
3858.95
3848.03
3836.92
3825.6
3814.05
3802.27
3790.24
3777.93
3765.32
3752.4
3739.15
3725.53
3711.52
3697.22
3682.87
3668.57
3654.31
3640.08
3625.87
3611.68
3597.49
3583.3
3569.1
3554.89
3540.66
3526.4
3512.11
3497.78
3483.41
3468.99
3454.53
3440.08
3425.62
3411.09
3396.51
3381.85
3367.11
3352.29
3337.38
3322.39
3307.3
3292.11
3276.82
3261.43
3245.94
3230.35
3214.65
3198.85
3182.94
3166.94
3150.85
3134.66
3118.4
3102.06
3085.66
3069.2
3052.7
3036.17
3019.62
3003.06
2986.51
2969.98
2953.48
2937.03
2920.63
2904.3
2888.04
2871.88
2855.81
2839.85
2824.01
2808.28
2792.68
2777.2
2761.85
2746.64
2731.56
2716.6
3891.28
3882.38
3873.42
3864.39
3855.28
3846.09
3836.81
3827.44
3817.97
3808.38
3798.68
3788.85
3778.89
3768.78
3758.52
3748.09
3737.49
3726.69
3715.7
3704.49
3693.04
3681.35
3669.4
3657.15
3644.61
3631.73
3618.51
3604.9
3591.02
3577.08
3563.19
3549.34
3535.52
3521.73
3507.94
3494.16
3480.38
3466.59
3452.79
3438.97
3425.13
3411.25
3397.34
3383.38
3369.38
3355.35
3341.33
3327.28
3313.18
3299.02
3284.78
3270.47
3256.08
3241.6
3227.04
3212.39
3197.64
3182.79
3167.85
3152.8
3137.65
3122.41
3107.06
3091.61
3076.07
3060.44
3044.72
3028.93
3013.06
2997.13
2981.15
2965.12
2949.07
2932.99
2916.91
2900.84
2884.78
2868.75
2852.77
2836.84
2820.97
2805.18
2789.47
2773.85
2758.34
2742.93
2727.64
2712.47
2697.41
2682.49
2667.68
2653.01
2638.45
3779.5
3770.86
3762.15
3753.38
3744.53
3735.61
3726.6
3717.49
3708.29
3698.98
3689.56
3680.01
3670.33
3660.51
3650.55
3640.42
3630.12
3619.64
3608.96
3598.07
3586.95
3575.6
3563.98
3552.09
3539.91
3527.4
3514.56
3501.34
3487.86
3474.33
3460.84
3447.39
3433.97
3420.57
3407.18
3393.8
3380.42
3367.03
3353.63
3340.2
3326.76
3313.28
3299.77
3286.22
3272.62
3259.01
3245.41
3231.77
3218.08
3204.33
3190.5
3176.6
3162.63
3148.57
3134.43
3120.19
3105.87
3091.45
3076.94
3062.32
3047.61
3032.8
3017.89
3002.89
2987.8
2972.61
2957.35
2942.01
2926.6
2911.12
2895.6
2880.04
2864.44
2848.83
2833.21
2817.6
2802
2786.43
2770.9
2755.42
2740
2724.65
2709.39
2694.21
2679.13
2664.15
2649.28
2634.52
2619.88
2605.36
2590.96
2576.68
2562.52
3670.94
3662.54
3654.08
3645.56
3636.97
3628.3
3619.54
3610.7
3601.76
3592.72
3583.57
3574.29
3564.89
3555.36
3545.68
3535.84
3525.83
3515.65
3505.28
3494.7
3483.91
3472.88
3461.6
3450.05
3438.22
3426.07
3413.6
3400.76
3387.67
3374.52
3361.42
3348.36
3335.33
3322.31
3309.31
3296.32
3283.32
3270.32
3257.31
3244.27
3231.22
3218.13
3205.01
3191.85
3178.65
3165.44
3152.25
3139.01
3125.71
3112.35
3098.92
3085.43
3071.85
3058.2
3044.46
3030.64
3016.73
3002.72
2988.63
2974.43
2960.14
2945.76
2931.28
2916.7
2902.04
2887.29
2872.47
2857.56
2842.59
2827.57
2812.49
2797.37
2782.22
2767.06
2751.89
2736.72
2721.56
2706.44
2691.35
2676.31
2661.33
2646.41
2631.57
2616.82
2602.16
2587.59
2573.13
2558.78
2544.54
2530.41
2516.4
2502.51
2488.73
3565.49
3557.33
3549.12
3540.84
3532.49
3524.07
3515.57
3506.98
3498.29
3489.51
3480.62
3471.61
3462.48
3453.22
3443.82
3434.26
3424.55
3414.66
3404.58
3394.31
3383.82
3373.11
3362.16
3350.94
3339.45
3327.65
3315.53
3303.07
3290.35
3277.59
3264.86
3252.18
3239.52
3226.88
3214.26
3201.64
3189.02
3176.39
3163.75
3151.1
3138.42
3125.71
3112.97
3100.19
3087.37
3074.56
3061.76
3048.9
3035.98
3023.01
3009.97
2996.86
2983.68
2970.42
2957.08
2943.66
2930.14
2916.54
2902.84
2889.06
2875.17
2861.2
2847.13
2832.98
2818.74
2804.41
2790.01
2775.53
2760.99
2746.39
2731.74
2717.06
2702.34
2687.61
2672.87
2658.13
2643.41
2628.72
2614.05
2599.44
2584.88
2570.38
2555.96
2541.61
2527.36
2513.2
2499.13
2485.18
2471.33
2457.58
2443.96
2430.44
2417.03
3463.07
3455.14
3447.16
3439.12
3431.02
3422.84
3414.58
3406.23
3397.8
3389.27
3380.63
3371.88
3363.01
3354.02
3344.88
3335.6
3326.16
3316.56
3306.77
3296.8
3286.61
3276.21
3265.57
3254.68
3243.51
3232.06
3220.29
3208.18
3195.83
3183.43
3171.08
3158.76
3146.47
3134.19
3121.93
3109.68
3097.42
3085.16
3072.89
3060.6
3048.29
3035.95
3023.57
3011.16
2998.73
2986.3
2973.86
2961.38
2948.83
2936.24
2923.57
2910.84
2898.04
2885.16
2872.2
2859.16
2846.03
2832.82
2819.52
2806.12
2792.64
2779.06
2765.4
2751.64
2737.81
2723.89
2709.9
2695.83
2681.71
2667.52
2653.29
2639.03
2624.73
2610.42
2596.1
2581.78
2567.48
2553.19
2538.95
2524.74
2510.59
2496.5
2482.48
2468.53
2454.67
2440.9
2427.23
2413.66
2400.18
2386.82
2373.56
2360.41
2347.37
3363.59
3355.89
3348.14
3340.33
3332.45
3324.51
3316.49
3308.38
3300.19
3291.9
3283.51
3275.02
3266.4
3257.66
3248.79
3239.78
3230.61
3221.28
3211.78
3202.08
3192.19
3182.09
3171.75
3161.18
3150.33
3139.21
3127.78
3116.02
3104.03
3091.98
3079.99
3068.02
3056.08
3044.17
3032.26
3020.36
3008.46
2996.55
2984.63
2972.7
2960.74
2948.76
2936.74
2924.69
2912.63
2900.57
2888.49
2876.36
2864.18
2851.95
2839.65
2827.28
2814.85
2802.34
2789.75
2777.08
2764.33
2751.49
2738.57
2725.56
2712.46
2699.27
2685.99
2672.63
2659.19
2645.66
2632.07
2618.41
2604.68
2590.9
2577.08
2563.22
2549.33
2535.42
2521.51
2507.59
2493.69
2479.81
2465.97
2452.16
2438.41
2424.71
2411.08
2397.52
2384.05
2370.66
2357.36
2344.16
2331.06
2318.06
2305.16
2292.37
2279.69
3266.96
3259.49
3251.96
3244.37
3236.72
3229
3221.21
3213.34
3205.38
3197.33
3189.18
3180.93
3172.56
3164.08
3155.46
3146.7
3137.8
3128.74
3119.51
3110.09
3100.49
3090.67
3080.64
3070.36
3059.83
3049.02
3037.92
3026.51
3014.86
3003.16
2991.51
2979.89
2968.3
2956.72
2945.16
2933.6
2922.04
2910.48
2898.91
2887.32
2875.71
2864.07
2852.4
2840.7
2829
2817.3
2805.57
2793.79
2781.96
2770.08
2758.13
2746.12
2734.04
2721.89
2709.66
2697.35
2684.97
2672.49
2659.94
2647.3
2634.57
2621.75
2608.85
2595.87
2582.81
2569.67
2556.46
2543.18
2529.85
2516.46
2503.03
2489.56
2476.06
2462.55
2449.03
2435.51
2422
2408.51
2395.05
2381.64
2368.26
2354.95
2341.7
2328.52
2315.41
2302.39
2289.46
2276.63
2263.89
2251.24
2238.7
2226.27
2213.93
3173.11
3165.85
3158.54
3151.17
3143.74
3136.24
3128.67
3121.03
3113.3
3105.48
3097.56
3089.55
3081.42
3073.18
3064.81
3056.3
3047.65
3038.85
3029.89
3020.74
3011.41
3001.88
2992.13
2982.15
2971.93
2961.43
2950.65
2939.56
2928.25
2916.89
2905.57
2894.29
2883.03
2871.79
2860.56
2849.34
2838.11
2826.89
2815.65
2804.39
2793.12
2781.82
2770.49
2759.12
2747.77
2736.42
2725.02
2713.58
2702.1
2690.55
2678.95
2667.28
2655.55
2643.74
2631.86
2619.91
2607.87
2595.75
2583.55
2571.27
2558.9
2546.45
2533.92
2521.3
2508.61
2495.84
2483
2470.1
2457.15
2444.14
2431.08
2418
2404.88
2391.75
2378.61
2365.47
2352.34
2339.23
2326.15
2313.11
2300.11
2287.16
2274.28
2261.46
2248.72
2236.06
2223.49
2211.01
2198.62
2186.32
2174.13
2162.04
2150.04
3081.96
3074.9
3067.8
3060.64
3053.43
3046.14
3038.79
3031.36
3023.86
3016.26
3008.57
3000.79
2992.89
2984.89
2976.76
2968.5
2960.1
2951.55
2942.84
2933.96
2924.9
2915.64
2906.17
2896.48
2886.55
2876.35
2865.88
2855.12
2844.13
2833.1
2822.11
2811.15
2800.21
2789.3
2778.39
2767.49
2756.59
2745.69
2734.77
2723.85
2712.9
2701.92
2690.92
2679.9
2668.88
2657.85
2646.79
2635.68
2624.52
2613.31
2602.03
2590.7
2579.3
2567.83
2556.29
2544.67
2532.98
2521.21
2509.35
2497.42
2485.4
2473.3
2461.12
2448.86
2436.52
2424.12
2411.64
2399.11
2386.51
2373.87
2361.19
2348.47
2335.72
2322.96
2310.19
2297.42
2284.65
2271.91
2259.2
2246.51
2233.88
2221.29
2208.77
2196.31
2183.92
2171.61
2159.39
2147.25
2135.2
2123.25
2111.39
2099.63
2087.97
2993.42
2986.57
2979.67
2972.72
2965.71
2958.63
2951.49
2944.28
2936.98
2929.61
2922.14
2914.58
2906.91
2899.13
2891.24
2883.21
2875.06
2866.75
2858.29
2849.67
2840.87
2831.88
2822.68
2813.27
2803.62
2793.72
2783.55
2773.09
2762.42
2751.71
2741.04
2730.39
2719.77
2709.17
2698.58
2688
2677.41
2666.82
2656.23
2645.61
2634.98
2624.32
2613.64
2602.94
2592.25
2581.55
2570.8
2560.01
2549.17
2538.27
2527.32
2516.31
2505.24
2494.1
2482.88
2471.6
2460.23
2448.79
2437.27
2425.67
2413.99
2402.23
2390.39
2378.48
2366.49
2354.43
2342.31
2330.13
2317.89
2305.6
2293.27
2280.91
2268.52
2256.12
2243.7
2231.29
2218.89
2206.5
2194.14
2181.81
2169.52
2157.29
2145.11
2133
2120.95
2108.98
2097.1
2085.29
2073.58
2061.96
2050.44
2039.01
2027.67
2933.65
2927.15
2920.61
2914.04
2907.42
2900.77
2894.07
2887.31
2880.5
2873.63
2866.7
2859.69
2852.61
2845.44
2838.19
2830.84
2823.4
2815.84
2808.17
2800.38
2792.46
2784.39
2776.18
2767.8
2759.25
2750.52
2741.59
2732.44
2723.07
2713.46
2703.58
2693.43
2683.06
2672.66
2662.29
2651.96
2641.64
2631.35
2621.06
2610.79
2600.51
2590.22
2579.93
2569.63
2559.3
2548.95
2538.58
2528.2
2517.83
2507.43
2496.99
2486.5
2475.97
2465.39
2454.75
2444.06
2433.3
2422.47
2411.57
2400.61
2389.56
2378.45
2367.25
2355.98
2344.62
2333.2
2321.69
2310.11
2298.46
2286.74
2274.95
2263.11
2251.22
2239.27
2227.29
2215.27
2203.23
2191.17
2179.11
2167.04
2154.98
2142.94
2130.92
2118.94
2106.99
2095.1
2083.26
2071.48
2059.77
2048.13
2036.57
2025.1
2013.71
2002.42
1991.21
1980.1
1969.09
2849.37
2843.05
2836.7
2830.32
2823.9
2817.43
2810.92
2804.36
2797.75
2791.08
2784.34
2777.53
2770.65
2763.69
2756.65
2749.51
2742.28
2734.94
2727.49
2719.92
2712.23
2704.39
2696.42
2688.28
2679.98
2671.49
2662.82
2653.94
2644.84
2635.5
2625.91
2616.05
2605.98
2595.88
2585.81
2575.77
2565.76
2555.76
2545.77
2535.79
2525.81
2515.82
2505.83
2495.82
2485.79
2475.75
2465.67
2455.6
2445.53
2435.43
2425.29
2415.11
2404.88
2394.6
2384.26
2373.87
2363.41
2352.89
2342.3
2331.65
2320.91
2310.11
2299.23
2288.27
2277.24
2266.13
2254.94
2243.69
2232.36
2220.97
2209.51
2198
2186.44
2174.83
2163.18
2151.5
2139.79
2128.07
2116.34
2104.61
2092.89
2081.18
2069.49
2057.84
2046.23
2034.66
2023.15
2011.7
2000.31
1989
1977.77
1966.61
1955.54
1944.56
1933.67
1922.88
1912.18
2767.51
2761.37
2755.2
2749
2742.77
2736.49
2730.17
2723.79
2717.37
2710.89
2704.34
2697.73
2691.05
2684.29
2677.45
2670.52
2663.49
2656.37
2649.13
2641.78
2634.3
2626.7
2618.95
2611.04
2602.98
2594.74
2586.32
2577.69
2568.85
2559.79
2550.47
2540.89
2531.12
2521.3
2511.53
2501.78
2492.05
2482.34
2472.64
2462.95
2453.26
2443.56
2433.85
2424.13
2414.4
2404.64
2394.86
2385.09
2375.31
2365.5
2355.65
2345.76
2335.82
2325.83
2315.79
2305.69
2295.53
2285.31
2275.02
2264.66
2254.23
2243.73
2233.15
2222.5
2211.77
2200.97
2190.1
2179.16
2168.15
2157.07
2145.94
2134.74
2123.5
2112.22
2100.89
2089.53
2078.16
2066.76
2055.35
2043.95
2032.55
2021.17
2009.81
1998.48
1987.19
1975.94
1964.75
1953.61
1942.55
1931.55
1920.63
1909.78
1899.02
1888.35
1877.77
1867.28
1856.88
2705.72
2699.84
2693.93
2688
2682.04
2676.05
2670.02
2663.96
2657.87
2651.73
2645.54
2639.3
2633
2626.65
2620.22
2613.73
2607.17
2600.52
2593.79
2586.97
2580.05
2573.02
2565.88
2558.62
2551.23
2543.7
2536.03
2528.19
2520.19
2512.01
2503.63
2495.05
2486.24
2477.2
2467.89
2458.4
2448.87
2439.37
2429.91
2420.46
2411.03
2401.61
2392.2
2382.78
2373.37
2363.94
2354.5
2345.05
2335.57
2326.09
2316.61
2307.11
2297.58
2288.01
2278.4
2268.74
2259.04
2249.28
2239.46
2229.59
2219.65
2209.65
2199.58
2189.45
2179.24
2168.96
2158.6
2148.17
2137.67
2127.11
2116.47
2105.76
2094.99
2084.17
2073.29
2062.36
2051.38
2040.37
2029.33
2018.27
2007.19
1996.1
1985.01
1973.92
1962.86
1951.81
1940.79
1929.82
1918.88
1908
1897.18
1886.42
1875.72
1865.11
1854.57
1844.11
1833.74
1823.46
1813.27
1803.17
2627.98
2622.26
2616.53
2610.76
2604.98
2599.16
2593.31
2587.43
2581.5
2575.54
2569.53
2563.47
2557.35
2551.18
2544.94
2538.64
2532.26
2525.81
2519.27
2512.64
2505.92
2499.09
2492.16
2485.1
2477.93
2470.62
2463.16
2455.56
2447.78
2439.84
2431.7
2423.37
2414.81
2406.03
2396.99
2387.77
2378.51
2369.29
2360.1
2350.92
2341.77
2332.62
2323.48
2314.34
2305.19
2296.04
2286.87
2277.69
2268.49
2259.29
2250.09
2240.86
2231.6
2222.3
2212.96
2203.58
2194.15
2184.67
2175.13
2165.54
2155.88
2146.16
2136.37
2126.52
2116.59
2106.59
2096.53
2086.39
2076.18
2065.91
2055.56
2045.15
2034.68
2024.16
2013.58
2002.95
1992.28
1981.57
1970.83
1960.08
1949.3
1938.52
1927.74
1916.96
1906.2
1895.46
1884.75
1874.07
1863.44
1852.86
1842.34
1831.88
1821.48
1811.16
1800.92
1790.76
1780.69
1770.7
1760.8
1750.99
2552.47
2546.92
2541.35
2535.75
2530.13
2524.48
2518.8
2513.08
2507.33
2501.54
2495.7
2489.81
2483.87
2477.88
2471.82
2465.7
2459.5
2453.23
2446.88
2440.45
2433.92
2427.29
2420.55
2413.7
2406.73
2399.63
2392.39
2385
2377.45
2369.74
2361.84
2353.74
2345.43
2336.9
2328.12
2319.17
2310.18
2301.22
2292.29
2283.39
2274.49
2265.61
2256.73
2247.85
2238.97
2230.08
2221.18
2212.27
2203.34
2194.41
2185.47
2176.51
2167.51
2158.48
2149.41
2140.29
2131.13
2121.91
2112.64
2103.31
2093.93
2084.48
2074.96
2065.38
2055.73
2046.01
2036.23
2026.37
2016.44
2006.45
1996.39
1986.27
1976.09
1965.85
1955.56
1945.23
1934.85
1924.44
1914
1903.54
1893.06
1882.57
1872.09
1861.61
1851.14
1840.7
1830.28
1819.91
1809.57
1799.28
1789.05
1778.88
1768.78
1758.75
1748.8
1738.93
1729.14
1719.43
1709.82
1700.29
2479.13
2473.73
2468.32
2462.89
2457.43
2451.94
2446.43
2440.88
2435.29
2429.66
2423.99
2418.27
2412.51
2406.68
2400.8
2394.85
2388.84
2382.75
2376.58
2370.33
2363.98
2357.54
2351
2344.35
2337.58
2330.68
2323.65
2316.48
2309.15
2301.65
2293.98
2286.11
2278.04
2269.76
2261.24
2252.54
2243.81
2235.11
2226.44
2217.79
2209.15
2200.52
2191.9
2183.28
2174.65
2166.02
2157.38
2148.72
2140.06
2131.39
2122.71
2114.01
2105.26
2096.49
2087.67
2078.81
2069.91
2060.95
2051.94
2042.87
2033.75
2024.56
2015.31
2006
1996.61
1987.16
1977.65
1968.06
1958.41
1948.69
1938.91
1929.06
1919.16
1909.2
1899.2
1889.15
1879.06
1868.93
1858.78
1848.6
1838.41
1828.21
1818.02
1807.83
1797.65
1787.49
1777.37
1767.28
1757.23
1747.23
1737.28
1727.4
1717.58
1707.83
1698.16
1688.56
1679.05
1669.63
1660.29
1651.04
2407.89
2402.65
2397.4
2392.12
2386.82
2381.49
2376.13
2370.74
2365.31
2359.85
2354.34
2348.79
2343.19
2337.53
2331.81
2326.04
2320.2
2314.28
2308.29
2302.22
2296.06
2289.8
2283.45
2276.99
2270.41
2263.72
2256.89
2249.92
2242.8
2235.52
2228.06
2220.43
2212.59
2204.54
2196.27
2187.82
2179.34
2170.89
2162.47
2154.07
2145.68
2137.3
2128.93
2120.56
2112.18
2103.8
2095.41
2087
2078.6
2070.19
2061.75
2053.29
2044.8
2036.27
2027.7
2019.09
2010.44
2001.73
1992.97
1984.16
1975.29
1966.36
1957.36
1948.3
1939.18
1929.99
1920.73
1911.41
1902.02
1892.57
1883.06
1873.48
1863.85
1854.17
1844.44
1834.67
1824.9
1815.1
1805.26
1795.41
1785.54
1775.65
1765.75
1755.85
1745.96
1736.07
1726.21
1716.36
1706.53
1696.74
1687.01
1677.37
1667.82
1658.35
1648.95
1639.63
1630.4
1621.24
1612.17
1603.18
2338.69
2333.61
2328.51
2323.38
2318.23
2313.06
2307.85
2302.62
2297.35
2292.04
2286.69
2281.3
2275.86
2270.36
2264.81
2259.2
2253.53
2247.78
2241.96
2236.07
2230.08
2224.01
2217.84
2211.56
2205.18
2198.67
2192.04
2185.27
2178.35
2171.28
2164.05
2156.63
2149.02
2141.2
2133.16
2124.96
2116.73
2108.52
2100.34
2092.18
2084.04
2075.9
2067.77
2059.64
2051.5
2043.36
2035.21
2027.06
2018.9
2010.73
2002.54
1994.32
1986.07
1977.78
1969.45
1961.08
1952.67
1944.21
1935.69
1927.13
1918.5
1909.82
1901.07
1892.26
1883.39
1874.45
1865.45
1856.38
1847.25
1838.06
1828.83
1819.58
1810.28
1800.94
1791.55
1782.12
1772.65
1763.15
1753.62
1744.07
1734.5
1724.91
1715.32
1705.73
1696.15
1686.57
1677.01
1667.47
1657.95
1648.47
1639.02
1629.61
1620.24
1610.92
1601.65
1592.43
1583.26
1574.24
1565.42
1556.69
2271.49
2266.55
2261.59
2256.61
2251.61
2246.59
2241.53
2236.45
2231.33
2226.18
2220.98
2215.74
2210.46
2205.12
2199.73
2194.28
2188.77
2183.19
2177.54
2171.81
2166
2160.1
2154.11
2148.01
2141.81
2135.49
2129.05
2122.48
2115.76
2108.89
2101.86
2094.66
2087.27
2079.68
2071.87
2063.91
2055.91
2047.94
2040
2032.07
2024.16
2016.26
2008.36
2000.46
1992.57
1984.66
1976.75
1968.84
1960.92
1952.99
1945.03
1937.04
1929.02
1920.96
1912.87
1904.74
1896.56
1888.33
1880.05
1871.72
1863.34
1854.89
1846.39
1837.82
1829.19
1820.5
1811.75
1802.98
1794.17
1785.3
1776.38
1767.41
1758.4
1749.33
1740.23
1731.08
1721.9
1712.69
1703.45
1694.2
1684.92
1675.63
1666.34
1657.05
1647.76
1638.48
1629.22
1619.98
1610.77
1601.58
1592.43
1583.32
1574.24
1565.22
1556.24
1547.31
1538.42
1529.6
1520.82
1512.09
2206.21
2201.41
2196.6
2191.76
2186.91
2182.03
2177.12
2172.18
2167.21
2162.2
2157.16
2152.07
2146.94
2141.76
2136.52
2131.23
2125.88
2120.46
2114.97
2109.4
2103.76
2098.03
2092.21
2086.29
2080.27
2074.13
2067.87
2061.49
2054.96
2048.3
2041.47
2034.47
2027.29
2019.92
2012.34
2004.6
1996.84
1989.1
1981.38
1973.68
1966
1958.33
1950.66
1942.99
1935.32
1927.65
1919.97
1912.3
1904.61
1896.9
1889.16
1881.4
1873.6
1865.78
1857.91
1850
1842.05
1834.05
1826.01
1817.9
1809.75
1801.54
1793.26
1784.94
1776.58
1768.19
1759.74
1751.25
1742.7
1734.09
1725.44
1716.74
1708
1699.21
1690.38
1681.51
1672.61
1663.68
1654.73
1645.75
1636.76
1627.77
1618.76
1609.76
1600.76
1591.78
1582.81
1573.86
1564.93
1556.04
1547.18
1538.35
1529.57
1520.83
1512.13
1503.48
1494.89
1486.34
1477.84
1469.39
2142.8
2138.14
2133.47
2128.78
2124.06
2119.32
2114.55
2109.76
2104.93
2100.07
2095.17
2090.23
2085.24
2080.21
2075.12
2069.98
2064.78
2059.52
2054.19
2048.79
2043.31
2037.74
2032.09
2026.34
2020.49
2014.53
2008.45
2002.25
1995.91
1989.44
1982.81
1976.01
1969.04
1961.88
1954.52
1947
1939.46
1931.94
1924.45
1916.97
1909.51
1902.06
1894.61
1887.16
1879.72
1872.28
1864.84
1857.38
1849.91
1842.42
1834.9
1827.35
1819.78
1812.17
1804.52
1796.84
1789.11
1781.33
1773.5
1765.63
1757.69
1749.72
1741.71
1733.67
1725.58
1717.43
1709.24
1700.99
1692.7
1684.35
1675.96
1667.52
1659.04
1650.51
1641.95
1633.35
1624.73
1616.07
1607.39
1598.7
1589.99
1581.27
1572.55
1563.83
1555.11
1546.41
1537.72
1529.06
1520.42
1511.8
1503.22
1494.68
1486.18
1477.71
1469.3
1460.93
1452.6
1444.33
1436.1
1427.92
2081.21
2076.69
2072.15
2067.6
2063.02
2058.41
2053.78
2049.13
2044.44
2039.72
2034.96
2030.16
2025.32
2020.43
2015.49
2010.5
2005.45
2000.34
1995.16
1989.91
1984.59
1979.18
1973.69
1968.11
1962.42
1956.64
1950.73
1944.71
1938.56
1932.27
1925.83
1919.23
1912.46
1905.51
1898.35
1891.06
1883.73
1876.43
1869.15
1861.89
1854.64
1847.41
1840.17
1832.95
1825.73
1818.51
1811.28
1804.04
1796.78
1789.5
1782.19
1774.86
1767.5
1760.1
1752.67
1745.19
1737.68
1730.11
1722.5
1714.85
1707.17
1699.46
1691.7
1683.89
1676.04
1668.13
1660.18
1652.18
1644.13
1636.03
1627.89
1619.71
1611.48
1603.21
1594.91
1586.58
1578.21
1569.82
1561.41
1552.99
1544.55
1536.1
1527.66
1519.21
1510.77
1502.34
1493.93
1485.54
1477.17
1468.84
1460.53
1452.26
1444.03
1435.84
1427.7
1419.59
1411.54
1403.53
1395.57
1387.65
2021.4
2017
2012.6
2008.17
2003.72
1999.25
1994.76
1990.23
1985.68
1981.09
1976.47
1971.81
1967.11
1962.36
1957.57
1952.72
1947.81
1942.85
1937.82
1932.72
1927.55
1922.3
1916.97
1911.55
1906.03
1900.41
1894.67
1888.82
1882.85
1876.74
1870.49
1864.08
1857.5
1850.75
1843.8
1836.72
1829.6
1822.51
1815.44
1808.39
1801.35
1794.33
1787.32
1780.31
1773.3
1766.29
1759.26
1752.23
1745.17
1738.09
1730.99
1723.87
1716.71
1709.52
1702.29
1695.03
1687.72
1680.37
1672.98
1665.58
1658.14
1650.65
1643.12
1635.54
1627.92
1620.25
1612.53
1604.76
1596.95
1589.1
1581.2
1573.26
1565.28
1557.26
1549.21
1541.13
1533.03
1524.9
1516.75
1508.58
1500.41
1492.23
1484.05
1475.87
1467.7
1459.54
1451.39
1443.27
1435.17
1427.1
1419.07
1411.06
1403.1
1395.17
1387.29
1379.45
1371.66
1363.91
1356.2
1348.54
1963.29
1959.03
1954.75
1950.45
1946.13
1941.79
1937.43
1933.03
1928.61
1924.16
1919.67
1915.14
1910.57
1905.96
1901.31
1896.6
1891.83
1887.01
1882.13
1877.18
1872.16
1867.06
1861.88
1856.61
1851.25
1845.79
1840.22
1834.54
1828.74
1822.81
1816.73
1810.51
1804.12
1797.56
1790.82
1783.93
1777.02
1770.14
1763.27
1756.43
1749.61
1742.8
1736
1729.19
1722.38
1715.57
1708.74
1701.9
1695.04
1688.17
1681.27
1674.34
1667.38
1660.39
1653.37
1646.3
1639.19
1632.06
1624.92
1617.73
1610.51
1603.24
1595.93
1588.57
1581.17
1573.73
1566.24
1558.7
1551.13
1543.5
1535.84
1528.14
1520.4
1512.63
1504.82
1496.99
1489.13
1481.26
1473.36
1465.45
1457.53
1449.61
1441.68
1433.76
1425.85
1417.95
1410.07
1402.21
1394.37
1386.56
1378.79
1371.05
1363.34
1355.67
1348.05
1340.47
1332.93
1325.43
1317.98
1310.57
1906.86
1902.72
1898.56
1894.39
1890.2
1885.98
1881.74
1877.47
1873.18
1868.85
1864.49
1860.1
1855.66
1851.18
1846.66
1842.09
1837.46
1832.78
1828.04
1823.23
1818.35
1813.4
1808.37
1803.25
1798.05
1792.74
1787.34
1781.82
1776.18
1770.42
1764.52
1758.48
1752.27
1745.9
1739.35
1732.67
1725.96
1719.29
1712.64
1706
1699.38
1692.76
1686.15
1679.53
1672.92
1666.3
1659.66
1653.02
1646.36
1639.67
1632.96
1626.23
1619.47
1612.67
1605.84
1598.97
1592.08
1585.17
1578.23
1571.26
1564.24
1557.19
1550.09
1542.95
1535.77
1528.54
1521.27
1513.96
1506.61
1499.21
1491.78
1484.31
1476.81
1469.27
1461.7
1454.11
1446.49
1438.86
1431.21
1423.54
1415.87
1408.2
1400.53
1392.86
1385.2
1377.56
1369.93
1362.32
1354.74
1347.19
1339.66
1332.17
1324.72
1317.31
1309.93
1302.6
1295.31
1288.06
1280.86
1273.69
1852.05
1848.03
1843.99
1839.94
1835.86
1831.77
1827.65
1823.51
1819.34
1815.14
1810.9
1806.63
1802.33
1797.98
1793.58
1789.14
1784.65
1780.1
1775.5
1770.83
1766.09
1761.28
1756.39
1751.43
1746.37
1741.22
1735.97
1730.61
1725.13
1719.54
1713.81
1707.94
1701.92
1695.74
1689.39
1682.91
1676.4
1669.92
1663.46
1657.01
1650.58
1644.15
1637.73
1631.3
1624.88
1618.44
1612
1605.54
1599.06
1592.57
1586.05
1579.5
1572.93
1566.32
1559.67
1553
1546.32
1539.62
1532.89
1526.11
1519.3
1512.45
1505.56
1498.63
1491.66
1484.64
1477.59
1470.49
1463.36
1456.19
1448.98
1441.73
1434.45
1427.14
1419.81
1412.45
1405.07
1397.67
1390.26
1382.83
1375.41
1367.98
1360.55
1353.13
1345.71
1338.31
1330.93
1323.57
1316.24
1308.93
1301.65
1294.41
1287.21
1280.04
1272.91
1265.82
1258.77
1251.77
1244.8
1237.88
1798.81
1794.9
1790.99
1787.05
1783.09
1779.12
1775.12
1771.09
1767.04
1762.96
1758.85
1754.71
1750.52
1746.3
1742.03
1737.72
1733.35
1728.94
1724.46
1719.93
1715.33
1710.66
1705.91
1701.09
1696.17
1691.17
1686.07
1680.87
1675.55
1670.13
1664.57
1658.88
1653.05
1647.05
1640.88
1634.59
1628.27
1621.97
1615.7
1609.44
1603.19
1596.94
1590.7
1584.46
1578.22
1571.96
1565.7
1559.42
1553.13
1546.82
1540.48
1534.11
1527.72
1521.3
1514.83
1508.36
1501.88
1495.38
1488.83
1482.26
1475.64
1468.99
1462.3
1455.58
1448.81
1442
1435.15
1428.27
1421.35
1414.39
1407.39
1400.36
1393.3
1386.22
1379.1
1371.97
1364.82
1357.65
1350.47
1343.28
1336.09
1328.89
1321.7
1314.52
1307.35
1300.19
1293.05
1285.93
1278.83
1271.77
1264.73
1257.73
1250.76
1243.83
1236.94
1230.09
1223.28
1216.51
1209.78
1203.09
1747.1
1743.31
1739.5
1735.68
1731.84
1727.98
1724.09
1720.18
1716.25
1712.29
1708.29
1704.27
1700.2
1696.1
1691.96
1687.77
1683.53
1679.24
1674.9
1670.49
1666.02
1661.49
1656.88
1652.19
1647.43
1642.58
1637.64
1632.6
1627.44
1622.18
1616.78
1611.26
1605.59
1599.76
1593.77
1587.66
1581.52
1575.4
1569.31
1563.23
1557.15
1551.09
1545.03
1538.96
1532.89
1526.82
1520.73
1514.63
1508.52
1502.38
1496.22
1490.03
1483.81
1477.56
1471.28
1465
1458.71
1452.39
1446.04
1439.66
1433.24
1426.78
1420.28
1413.75
1407.18
1400.57
1393.93
1387.25
1380.53
1373.78
1366.99
1360.17
1353.32
1346.45
1339.55
1332.64
1325.71
1318.76
1311.81
1304.85
1297.88
1290.92
1283.96
1277.01
1270.07
1263.14
1256.24
1249.35
1242.49
1235.66
1228.86
1222.09
1215.36
1208.66
1202
1195.38
1188.8
1182.26
1175.76
1169.3
1700.55
1696.87
1693.19
1689.49
1685.78
1682.05
1678.3
1674.53
1670.73
1666.91
1663.07
1659.19
1655.28
1651.33
1647.35
1643.32
1639.25
1635.14
1630.97
1626.75
1622.49
1618.16
1613.76
1609.3
1604.75
1600.13
1595.42
1590.62
1585.73
1580.72
1575.6
1570.37
1565
1559.49
1553.83
1548.01
1542.07
1536.11
1530.17
1524.25
1518.34
1512.44
1506.55
1500.66
1494.77
1488.88
1482.97
1477.06
1471.13
1465.18
1459.21
1453.22
1447.21
1441.16
1435.09
1428.99
1422.89
1416.78
1410.64
1404.47
1398.27
1392.04
1385.77
1379.46
1373.12
1366.74
1360.33
1353.88
1347.4
1340.88
1334.32
1327.74
1321.12
1314.48
1307.82
1301.13
1294.42
1287.71
1280.98
1274.24
1267.5
1260.76
1254.02
1247.29
1240.56
1233.85
1227.15
1220.47
1213.81
1207.18
1200.58
1194
1187.46
1180.95
1174.48
1168.05
1161.66
1155.3
1148.99
1142.72
1136.48
1651.66
1648.09
1644.51
1640.92
1637.32
1633.7
1630.05
1626.39
1622.71
1618.99
1615.26
1611.49
1607.69
1603.87
1600.01
1596.11
1592.16
1588.18
1584.14
1580.05
1575.91
1571.7
1567.43
1563.1
1558.68
1554.2
1549.62
1544.96
1540.2
1535.34
1530.37
1525.28
1520.07
1514.72
1509.22
1503.57
1497.8
1492.01
1486.24
1480.49
1474.75
1469.02
1463.3
1457.57
1451.85
1446.12
1440.38
1434.64
1428.87
1423.09
1417.29
1411.47
1405.62
1399.74
1393.83
1387.9
1381.97
1376.04
1370.08
1364.09
1358.07
1352.01
1345.93
1339.8
1333.65
1327.46
1321.23
1314.97
1308.68
1302.35
1295.99
1289.6
1283.19
1276.74
1270.28
1263.79
1257.29
1250.78
1244.26
1237.74
1231.22
1224.69
1218.17
1211.65
1205.15
1198.65
1192.17
1185.72
1179.28
1172.87
1166.48
1160.13
1153.81
1147.52
1141.28
1135.06
1128.89
1122.76
1116.66
1110.6
1104.58
1604.17
1600.71
1597.24
1593.75
1590.25
1586.73
1583.2
1579.65
1576.08
1572.49
1568.87
1565.22
1561.54
1557.82
1554.08
1550.29
1546.46
1542.59
1538.67
1534.69
1530.67
1526.58
1522.44
1518.22
1513.94
1509.58
1505.14
1500.61
1495.99
1491.27
1486.44
1481.5
1476.43
1471.24
1465.9
1460.41
1454.8
1449.18
1443.57
1437.99
1432.41
1426.85
1421.28
1415.72
1410.16
1404.6
1399.02
1393.43
1387.83
1382.21
1376.57
1370.91
1365.22
1359.51
1353.76
1347.99
1342.23
1336.47
1330.68
1324.86
1319.01
1313.13
1307.22
1301.28
1295.3
1289.29
1283.25
1277.17
1271.06
1264.92
1258.75
1252.55
1246.33
1240.07
1233.8
1227.51
1221.2
1214.89
1208.58
1202.27
1195.95
1189.64
1183.33
1177.03
1170.73
1164.45
1158.18
1151.94
1145.72
1139.52
1133.35
1127.21
1121.11
1115.04
1109
1103
1097.04
1091.12
1085.24
1079.39
1558.09
1554.73
1551.37
1547.99
1544.59
1541.18
1537.76
1534.31
1530.84
1527.35
1523.83
1520.29
1516.71
1513.11
1509.47
1505.79
1502.07
1498.31
1494.5
1490.64
1486.73
1482.76
1478.74
1474.65
1470.48
1466.25
1461.94
1457.54
1453.05
1448.46
1443.77
1438.97
1434.05
1429
1423.82
1418.48
1413.04
1407.58
1402.14
1396.71
1391.29
1385.88
1380.48
1375.08