/*--------------------------------*- C++ -*----------------------------------*\
  =========                 |
  \\      /  F ield         | OpenFOAM: The Open Source CFD Toolbox
   \\    /   O peration     | Website:  https://openfoam.org
    \\  /    A nd           | Version:  10
     \\/     M anipulation  |
\*---------------------------------------------------------------------------*/
FoamFile
{
    format      ascii;
    class       volScalarField;
    location    "75000";
    object      omega;
}
// * * * * * * * * * * * * * * * * * * * * * * * * * * * * * * * * * * * * * //

dimensions      [0 0 -1 0 0 0 0];

internalField   nonuniform List<scalar> 
17922
(
24.0135
23.6826
23.3666
23.065
22.7779
22.5049
22.2461
22.0012
21.7702
21.5532
21.35
21.1607
20.9853
20.8241
20.677
20.5443
20.4263
20.323
20.235
20.1626
20.1061
20.0662
20.0434
20.0383
20.0518
20.0846
20.1377
20.2123
20.3086
20.4251
20.5604
20.7136
20.8841
21.0714
21.275
21.4943
21.7291
21.979
22.2436
22.5226
22.8158
23.123
23.444
23.7787
24.127
24.4888
24.864
25.2525
25.6544
26.0694
26.4976
26.9389
27.393
27.8599
28.3392
28.8309
29.3346
29.85
30.3767
30.9145
31.4627
32.0209
32.5885
33.165
33.7497
34.3418
34.9406
35.5452
36.1546
36.7681
37.3846
38.003
38.6225
39.242
39.8607
40.4775
41.0919
41.703
42.3103
42.9134
43.512
44.1061
44.6957
45.2812
45.8631
46.4422
47.0198
47.5971
48.1759
48.7584
49.3469
49.9445
50.5544
24.0137
23.6829
23.3668
23.0653
22.7781
22.5051
22.2463
22.0014
21.7704
21.5533
21.3501
21.1609
20.9855
20.8243
20.6772
20.5445
20.4264
20.3232
20.2352
20.1627
20.1063
20.0664
20.0435
20.0385
20.0519
20.0847
20.1379
20.2124
20.3087
20.4253
20.5605
20.7137
20.8842
21.0714
21.275
21.4943
21.7291
21.9789
22.2434
22.5224
22.8155
23.1227
23.4437
23.7783
24.1266
24.4883
24.8634
25.252
25.6537
26.0687
26.4969
26.938
27.3921
27.8588
28.3381
28.8296
29.3332
29.8484
30.3749
30.9124
31.4604
32.0183
32.5857
33.1618
33.7461
34.3378
34.936
35.5401
36.1489
36.7617
37.3775
37.9952
38.6139
39.2326
39.8503
40.4663
41.0798
41.6901
42.2966
42.8989
43.4968
44.0903
44.6794
45.2646
45.8464
46.4258
47.0038
47.5819
48.162
48.7461
49.3369
49.9373
50.5507
24.0139
23.6831
23.367
23.0655
22.7783
22.5053
22.2465
22.0016
21.7706
21.5535
21.3503
21.161
20.9857
20.8244
20.6774
20.5447
20.4266
20.3234
20.2353
20.1629
20.1064
20.0665
20.0437
20.0386
20.0521
20.0849
20.138
20.2125
20.3088
20.4254
20.5606
20.7137
20.8842
21.0715
21.275
21.4943
21.729
21.9787
22.2432
22.5222
22.8153
23.1224
23.4433
23.7779
24.1261
24.4878
24.8629
25.2514
25.6531
26.0681
26.4961
26.9372
27.3911
27.8578
28.3369
28.8283
29.3317
29.8467
30.3731
30.9103
31.458
32.0157
32.5827
33.1585
33.7424
34.3336
34.9313
35.5348
36.143
36.7552
37.3702
37.9871
38.605
39.2228
39.8397
40.4548
41.0674
41.6768
42.2825
42.884
43.4813
44.0741
44.6629
45.2478
45.8296
46.4092
46.9877
47.5667
48.1481
48.7341
49.3273
49.9308
50.5479
24.0142
23.6833
23.3672
23.0657
22.7785
22.5055
22.2467
22.0018
21.7708
21.5537
21.3505
21.1612
20.9859
20.8246
20.6775
20.5448
20.4268
20.3235
20.2355
20.163
20.1066
20.0667
20.0438
20.0388
20.0522
20.085
20.1381
20.2127
20.3089
20.4255
20.5607
20.7138
20.8843
21.0715
21.275
21.4942
21.7289
21.9786
22.2431
22.5219
22.815
23.1221
23.443
23.7775
24.1257
24.4873
24.8624
25.2508
25.6525
26.0673
26.4953
26.9363
27.3902
27.8567
28.3357
28.8269
29.3302
29.845
30.3712
30.9082
31.4556
32.013
32.5796
33.155
33.7385
34.3292
34.9264
35.5293
36.1369
36.7483
37.3626
37.9787
38.5957
39.2127
39.8287
40.4429
41.0546
41.6631
42.2679
42.8687
43.4653
44.0576
44.6459
45.2307
45.8125
46.3923
46.9715
47.5516
48.1344
48.7224
49.3182
49.9248
50.546
24.0144
23.6835
23.3674
23.0659
22.7787
22.5057
22.2468
22.002
21.771
21.5539
21.3507
21.1614
20.9861
20.8248
20.6777
20.545
20.4269
20.3237
20.2357
20.1632
20.1068
20.0668
20.044
20.0389
20.0524
20.0852
20.1383
20.2128
20.309
20.4256
20.5608
20.7139
20.8843
21.0715
21.2749
21.4942
21.7288
21.9785
22.2429
22.5217
22.8148
23.1218
23.4426
23.7771
24.1252
24.4868
24.8618
25.2502
25.6518
26.0666
26.4945
26.9354
27.3891
27.8555
28.3344
28.8255
29.3286
29.8432
30.3692
30.9059
31.4531
32.0101
32.5764
33.1514
33.7344
34.3247
34.9213
35.5236
36.1306
36.7413
37.3548
37.9701
38.5862
39.2023
39.8174
40.4306
41.0414
41.649
42.253
42.853
43.4489
44.0407
44.6287
45.2132
45.7951
46.3753
46.9552
47.5364
48.1209
48.711
49.3095
49.9196
50.5449
24.0146
23.6838
23.3677
23.0661
22.7789
22.5059
22.2471
22.0022
21.7712
21.5541
21.3509
21.1616
20.9862
20.825
20.6779
20.5452
20.4271
20.3239
20.2358
20.1634
20.1069
20.067
20.0442
20.0391
20.0525
20.0853
20.1384
20.2129
20.3092
20.4257
20.5609
20.714
20.8844
21.0715
21.2749
21.4941
21.7287
21.9784
22.2427
22.5215
22.8145
23.1214
23.4422
23.7767
24.1248
24.4863
24.8613
25.2495
25.6511
26.0658
26.4937
26.9345
27.3881
27.8544
28.3331
28.8241
29.3269
29.8414
30.3671
30.9036
31.4505
32.0072
32.5731
33.1477
33.7302
34.32
34.9161
35.5177
36.124
36.7339
37.3466
37.9611
38.5763
39.1915
39.8056
40.418
41.0278
41.6345
42.2377
42.8369
43.4322
44.0235
44.6111
45.1955
45.7775
46.3582
46.9389
47.5214
48.1076
48.7
49.3014
49.9151
50.5447
24.0149
23.684
23.3679
23.0663
22.7791
22.5061
22.2473
22.0024
21.7714
21.5543
21.3511
21.1618
20.9864
20.8251
20.6781
20.5454
20.4273
20.324
20.236
20.1635
20.1071
20.0671
20.0443
20.0392
20.0527
20.0855
20.1386
20.2131
20.3093
20.4258
20.561
20.714
20.8844
21.0716
21.2749
21.4941
21.7287
21.9782
22.2425
22.5213
22.8142
23.1211
23.4419
23.7763
24.1243
24.4858
24.8607
25.2489
25.6504
26.065
26.4928
26.9335
27.387
27.8532
28.3318
28.8225
29.3252
29.8395
30.3649
30.9012
31.4477
32.0041
32.5697
33.1438
33.7259
34.315
34.9106
35.5115
36.1171
36.7263
37.3382
37.9517
38.5661
39.1803
39.7935
40.4049
41.0138
41.6196
42.2219
42.8204
43.415
44.0058
44.5931
45.1775
45.7597
46.3409
46.9226
47.5064
48.0945
48.6893
49.2938
49.9113
50.5456
24.0151
23.6842
23.3681
23.0665
22.7793
22.5064
22.2475
22.0026
21.7716
21.5545
21.3513
21.1619
20.9866
20.8253
20.6782
20.5455
20.4274
20.3242
20.2362
20.1637
20.1073
20.0673
20.0445
20.0394
20.0528
20.0856
20.1387
20.2132
20.3094
20.4259
20.5611
20.7141
20.8845
21.0716
21.2749
21.494
21.7286
21.9781
22.2423
22.521
22.8139
23.1208
23.4415
23.7758
24.1238
24.4852
24.8601
25.2482
25.6496
26.0642
26.4919
26.9325
27.3859
27.8519
28.3303
28.8209
29.3234
29.8375
30.3627
30.8986
31.4449
32.0009
32.5661
33.1398
33.7213
34.31
34.9049
35.5052
36.11
36.7184
37.3294
37.9421
38.5555
39.1688
39.781
40.3914
40.9994
41.6043
42.2057
42.8035
43.3975
43.9878
44.5749
45.1592
45.7417
46.3236
46.9062
47.4915
48.0816
48.6791
49.2869
49.9084
50.5475
24.0153
23.6845
23.3683
23.0668
22.7796
22.5066
22.2477
22.0028
21.7718
21.5547
21.3515
21.1621
20.9868
20.8255
20.6784
20.5457
20.4276
20.3244
20.2363
20.1639
20.1074
20.0675
20.0446
20.0396
20.053
20.0858
20.1389
20.2133
20.3096
20.4261
20.5612
20.7142
20.8845
21.0716
21.2749
21.494
21.7285
21.978
22.2421
22.5208
22.8136
23.1204
23.441
23.7754
24.1233
24.4846
24.8594
25.2475
25.6489
26.0634
26.4909
26.9314
27.3847
27.8506
28.3289
28.8193
29.3216
29.8354
30.3603
30.896
31.4419
31.9976
32.5623
33.1356
33.7166
34.3047
34.8989
35.4985
36.1026
36.7102
37.3203
37.9321
38.5446
39.1568
39.7681
40.3775
40.9845
41.5885
42.1891
42.7862
43.3796
43.9695
44.5563
45.1407
45.7235
46.3061
46.8899
47.4769
48.0691
48.6694
49.2807
49.9064
50.5506
24.0156
23.6847
23.3686
23.067
22.7798
22.5068
22.2479
22.003
21.772
21.5549
21.3517
21.1623
20.987
20.8257
20.6786
20.5459
20.4278
20.3246
20.2365
20.1641
20.1076
20.0677
20.0448
20.0397
20.0532
20.0859
20.139
20.2135
20.3097
20.4262
20.5613
20.7143
20.8846
21.0716
21.2749
21.4939
21.7284
21.9778
22.2419
22.5205
22.8133
23.12
23.4406
23.7749
24.1227
24.484
24.8588
25.2468
25.6481
26.0625
26.4899
26.9303
27.3835
27.8492
28.3274
28.8176
29.3197
29.8332
30.3579
30.8933
31.4389
31.9941
32.5584
33.1312
33.7117
34.2991
34.8927
35.4916
36.0949
36.7017
37.3109
37.9218
38.5332
39.1445
39.7547
40.3632
40.9692
41.5723
42.1721
42.7684
43.3612
43.9508
44.5374
45.1219
45.7052
46.2886
46.8737
47.4624
48.057
48.6603
49.2752
49.9054
50.5548
24.0158
23.6849
23.3688
23.0672
22.78
22.507
22.2481
22.0032
21.7722
21.5551
21.3519
21.1625
20.9872
20.8259
20.6788
20.5461
20.428
20.3247
20.2367
20.1642
20.1078
20.0678
20.045
20.0399
20.0533
20.0861
20.1392
20.2136
20.3098
20.4263
20.5614
20.7144
20.8846
21.0716
21.2749
21.4939
21.7282
21.9776
22.2417
22.5203
22.813
23.1197
23.4402
23.7744
24.1222
24.4834
24.8581
25.246
25.6472
26.0616
26.4889
26.9292
27.3822
27.8478
28.3258
28.8158
29.3177
29.831
30.3554
30.8904
31.4357
31.9905
32.5544
33.1267
33.7066
34.2934
34.8863
35.4845
36.087
36.6928
37.3012
37.911
38.5215
39.1318
39.741
40.3484
40.9535
41.5557
42.1547
42.7503
43.3425
43.9317
44.5183
45.103
45.6868
46.2711
46.8576
47.4482
48.0453
48.6517
49.2705
49.9054
50.5603
24.0161
23.6852
23.3691
23.0675
22.7802
22.5072
22.2483
22.0034
21.7724
21.5553
21.3521
21.1627
20.9874
20.8261
20.679
20.5463
20.4282
20.3249
20.2369
20.1644
20.108
20.068
20.0452
20.0401
20.0535
20.0863
20.1393
20.2138
20.31
20.4264
20.5615
20.7144
20.8847
21.0717
21.2749
21.4938
21.7281
21.9775
22.2415
22.52
22.8126
23.1193
23.4397
23.7739
24.1216
24.4828
24.8574
25.2453
25.6464
26.0606
26.4879
26.928
27.3809
27.8464
28.3241
28.814
29.3156
29.8287
30.3528
30.8875
31.4323
31.9868
32.5502
33.1219
33.7013
34.2875
34.8797
35.4771
36.0787
36.6837
37.2911
37.9
38.5095
39.1187
39.7268
40.3333
40.9373
41.5386
42.1368
42.7317
43.3235
43.9124
44.4989
45.0838
45.6683
46.2536
46.8416
47.4343
48.0341
48.6438
49.2667
49.9064
50.5671
24.0163
23.6854
23.3693
23.0677
22.7805
22.5075
22.2485
22.0036
21.7726
21.5555
21.3523
21.1629
20.9876
20.8263
20.6792
20.5465
20.4284
20.3251
20.2371
20.1646
20.1081
20.0682
20.0453
20.0402
20.0537
20.0864
20.1395
20.2139
20.3101
20.4265
20.5616
20.7145
20.8847
21.0717
21.2748
21.4937
21.728
21.9773
22.2413
22.5197
22.8123
23.1189
23.4393
23.7734
24.121
24.4822
24.8567
25.2445
25.6455
26.0596
26.4868
26.9268
27.3796
27.8448
28.3224
28.8121
29.3135
29.8262
30.3501
30.8844
31.4289
31.9829
32.5458
33.117
33.6958
34.2813
34.8728
35.4694
36.0701
36.6742
37.2806
37.8885
38.497
39.1051
39.7123
40.3176
40.9208
41.5211
42.1185
42.7128
43.3041
43.8927
44.4792
45.0645
45.6497
46.2362
46.8258
47.4207
48.0233
48.6366
49.2637
49.9086
50.5752
24.0166
23.6857
23.3695
23.0679
22.7807
22.5077
22.2488
22.0038
21.7728
21.5557
21.3525
21.1631
20.9878
20.8265
20.6794
20.5467
20.4285
20.3253
20.2373
20.1648
20.1083
20.0684
20.0455
20.0404
20.0538
20.0866
20.1397
20.2141
20.3102
20.4267
20.5617
20.7146
20.8848
21.0717
21.2748
21.4937
21.7279
21.9771
22.241
22.5194
22.8119
23.1184
23.4388
23.7728
24.1204
24.4815
24.8559
25.2436
25.6446
26.0586
26.4857
26.9255
27.3781
27.8433
28.3207
28.8101
29.3112
29.8237
30.3472
30.8813
31.4253
31.9789
32.5413
33.1119
33.69
34.2749
34.8656
35.4614
36.0613
36.6644
37.2698
37.8767
38.4841
39.0912
39.6972
40.3016
40.9037
41.5032
42.0998
42.6934
43.2843
43.8727
44.4593
45.0451
45.6311
46.2188
46.8103
47.4075
48.0131
48.6301
49.2617
49.9119
50.5847
24.0169
23.686
23.3698
23.0682
22.7809
22.5079
22.249
22.0041
21.773
21.5559
21.3527
21.1633
20.988
20.8267
20.6796
20.5469
20.4287
20.3255
20.2374
20.165
20.1085
20.0686
20.0457
20.0406
20.054
20.0868
20.1398
20.2142
20.3104
20.4268
20.5618
20.7147
20.8848
21.0717
21.2748
21.4936
21.7278
21.9769
22.2408
22.5191
22.8116
23.118
23.4383
23.7723
24.1198
24.4808
24.8551
25.2428
25.6436
26.0576
26.4845
26.9242
27.3767
27.8416
28.3188
28.808
29.3089
29.8211
30.3443
30.8779
31.4216
31.9747
32.5366
33.1066
33.6841
34.2682
34.8582
35.4531
36.0521
36.6542
37.2587
37.8645
38.4708
39.0768
39.6818
40.2851
40.8862
41.4848
42.0807
42.6737
43.2642
43.8525
44.4393
45.0255
45.6124
46.2016
46.7949
47.3947
48.0035
48.6244
49.2607
49.9164
50.5956
24.0171
23.6862
23.37
23.0684
22.7812
22.5082
22.2492
22.0043
21.7733
21.5561
21.3529
21.1635
20.9882
20.8269
20.6798
20.5471
20.4289
20.3257
20.2376
20.1652
20.1087
20.0687
20.0459
20.0408
20.0542
20.0869
20.14
20.2144
20.3105
20.4269
20.5619
20.7148
20.8849
21.0717
21.2747
21.4935
21.7276
21.9767
22.2405
22.5188
22.8112
23.1176
23.4378
23.7717
24.1191
24.4801
24.8543
25.2419
25.6426
26.0565
26.4833
26.9229
27.3752
27.8399
28.3169
28.8059
29.3065
29.8184
30.3412
30.8745
31.4177
31.9703
32.5317
33.1011
33.6779
34.2613
34.8504
35.4445
36.0425
36.6437
37.2471
37.8518
38.457
39.062
39.6659
40.2681
40.8683
41.466
42.0611
42.6536
43.2438
43.832
44.419
45.0058
45.5938
46.1845
46.7799
47.3823
47.9945
48.6195
49.2607
49.9221
50.6079
25.4933
25.1009
24.7244
24.3633
24.0174
23.6865
23.3703
23.0687
22.7814
22.5084
22.2495
22.0045
21.7735
21.5564
21.3531
21.1638
20.9884
20.8271
20.68
20.5473
20.4291
20.3259
20.2378
20.1654
20.1089
20.0689
20.0461
20.041
20.0544
20.0871
20.1401
20.2146
20.3107
20.427
20.562
20.7148
20.8849
21.0717
21.2747
21.4934
21.7275
21.9765
22.2403
22.5184
22.8108
23.1171
23.4373
23.7711
24.1185
24.4793
24.8535
25.241
25.6416
26.0553
26.482
26.9215
27.3736
27.8382
28.315
28.8037
29.304
29.8156
30.3381
30.8709
31.4137
31.9658
32.5266
33.0954
33.6715
34.2541
34.8424
35.4356
36.0327
36.6328
37.2352
37.8388
38.4429
39.0467
39.6495
40.2508
40.85
41.4468
42.0412
42.6332
43.223
43.8112
44.3985
44.9861
45.5752
46.1675
46.7652
47.3705
47.9862
48.6154
49.2617
49.9291
50.6218
25.4936
25.1012
24.7247
24.3636
24.0177
23.6867
23.3706
23.0689
22.7817
22.5086
22.2497
22.0047
21.7737
21.5566
21.3533
21.164
20.9886
20.8273
20.6802
20.5475
20.4293
20.3261
20.238
20.1656
20.1091
20.0691
20.0463
20.0412
20.0546
20.0873
20.1403
20.2147
20.3108
20.4272
20.5621
20.7149
20.885
21.0717
21.2746
21.4933
21.7273
21.9763
22.24
22.5181
22.8104
23.1166
23.4367
23.7705
24.1178
24.4785
24.8527
25.24
25.6406
26.0542
26.4807
26.92
27.372
27.8364
28.3129
28.8014
29.3014
29.8127
30.3348
30.8672
31.4095
31.9611
32.5213
33.0894
33.6648
34.2467
34.8341
35.4263
36.0225
36.6216
37.2228
37.8253
38.4283
39.031
39.6327
40.2329
40.8312
41.4272
42.0209
42.6124
43.202
43.7902
44.3779
44.9663
45.5567
46.1508
46.7508
47.3591
47.9786
48.6123
49.2639
49.9374
50.6371
25.4939
25.1015
24.725
24.3639
24.0179
23.687
23.3708
23.0692
22.7819
22.5089
22.2499
22.005
21.7739
21.5568
21.3535
21.1642
20.9888
20.8275
20.6804
20.5477
20.4295
20.3263
20.2382
20.1658
20.1093
20.0693
20.0465
20.0413
20.0547
20.0875
20.1405
20.2149
20.311
20.4273
20.5622
20.715
20.885
21.0717
21.2746
21.4932
21.7272
21.9761
22.2397
22.5177
22.81
23.1161
23.4362
23.7698
24.1171
24.4778
24.8518
25.2391
25.6395
26.053
26.4794
26.9185
27.3703
27.8345
28.3108
28.799
29.2987
29.8097
30.3314
30.8634
31.4052
31.9562
32.5158
33.0833
33.6579
34.2389
34.8255
35.4168
36.0119
36.61
37.2101
37.8115
38.4133
39.0148
39.6155
40.2146
40.8119
41.4071
42.0002
42.5912
43.1806
43.769
44.3572
44.9465
45.5382
46.1343
46.7369
47.3483
47.9717
48.6101
49.2671
49.947
50.6539
26.7698
26.3278
25.9028
25.4942
25.1018
24.7252
24.3641
24.0182
23.6873
23.3711
23.0695
22.7822
22.5091
22.2502
22.0052
21.7742
21.557
21.3538
21.1644
20.989
20.8277
20.6806
20.5479
20.4297
20.3265
20.2384
20.166
20.1095
20.0695
20.0467
20.0415
20.0549
20.0876
20.1407
20.215
20.3111
20.4274
20.5623
20.715
20.885
21.0717
21.2745
21.4931
21.727
21.9759
22.2394
22.5174
22.8095
23.1156
23.4356
23.7692
24.1163
24.4769
24.8509
25.2381
25.6384
26.0517
26.478
26.917
27.3686
27.8325
28.3086
28.7965
29.296
29.8065
30.3279
30.8594
31.4007
31.9511
32.5101
33.0769
33.6507
34.2309
34.8166
35.4069
36.001
36.5979
37.197
37.7972
38.3978
38.9982
39.5977
40.1959
40.7922
41.3866
41.9791
42.5697
43.159
43.7476
44.3364
44.9267
45.5199
46.1181
46.7233
47.3381
47.9655
48.6088
49.2715
49.9579
50.6723
26.7701
26.3281
25.9031
25.4945
25.1021
24.7255
24.3644
24.0185
23.6876
23.3714
23.0697
22.7824
22.5094
22.2504
22.0054
21.7744
21.5573
21.354
21.1646
20.9892
20.8279
20.6808
20.5481
20.43
20.3267
20.2386
20.1662
20.1097
20.0697
20.0469
20.0417
20.0551
20.0878
20.1408
20.2152
20.3113
20.4275
20.5624
20.7151
20.8851
21.0717
21.2745
21.493
21.7268
21.9756
22.2391
22.517
22.8091
23.1151
23.435
23.7685
24.1156
24.4761
24.8499
25.237
25.6372
26.0504
26.4765
26.9154
27.3668
27.8305
28.3063
28.794
29.2931
29.8033
30.3242
30.8553
31.396
31.9459
32.5042
33.0702
33.6433
34.2226
34.8074
35.3967
35.9897
36.5855
37.1834
37.7825
38.3819
38.9812
39.5796
40.1767
40.7721
41.3657
41.9576
42.5479
43.1371
43.726
44.3155
44.9069
45.5018
46.1022
46.7102
47.3286
47.9602
48.6085
49.2771
49.9701
50.6921
26.7705
26.3285
25.9034
25.4948
25.1024
24.7258
24.3647
24.0188
23.6878
23.3716
23.07
22.7827
22.5096
22.2507
22.0057
21.7746
21.5575
21.3542
21.1649
20.9895
20.8281
20.681
20.5483
20.4302
20.3269
20.2389
20.1664
20.1099
20.0699
20.0471
20.0419
20.0553
20.088
20.141
20.2154
20.3114
20.4277
20.5625
20.7152
20.8851
21.0717
21.2744
21.4929
21.7266
21.9754
22.2388
22.5166
22.8086
23.1146
23.4344
23.7678
24.1148
24.4752
24.849
25.2359
25.636
26.0491
26.4751
26.9137
27.3649
27.8284
28.304
28.7913
29.2901
29.7999
30.3204
30.851
31.3912
31.9405
32.4981
33.0634
33.6356
34.2141
34.7978
35.3861
35.978
36.5727
37.1694
37.7673
38.3656
38.9637
39.5609
40.157
40.7515
41.3444
41.9358
42.5258
43.115
43.7042
44.2945
44.8872
45.4838
46.0865
46.6976
47.3196
47.9557
48.6091
49.2838
49.9837
50.7135
26.7708
26.3288
25.9037
25.4952
25.1027
24.7261
24.365
24.0191
23.6881
23.3719
23.0702
22.783
22.5099
22.2509
22.0059
21.7749
21.5577
21.3544
21.1651
20.9897
20.8284
20.6813
20.5485
20.4304
20.3271
20.2391
20.1666
20.1101
20.0701
20.0473
20.0421
20.0555
20.0882
20.1412
20.2155
20.3116
20.4278
20.5626
20.7152
20.8851
21.0716
21.2743
21.4927
21.7264
21.9751
22.2385
22.5162
22.8082
23.1141
23.4338
23.7671
24.114
24.4744
24.848
25.2348
25.6348
26.0477
26.4735
26.912
27.363
27.8263
28.3016
28.7886
29.287
29.7965
30.3165
30.8466
31.3862
31.9348
32.4917
33.0563
33.6277
34.2052
34.7879
35.3752
35.966
36.5595
37.155
37.7517
38.3488
38.9457
39.5419
40.1369
40.7306
41.3228
41.9136
42.5034
43.0927
43.6824
44.2735
44.8675
45.4661
46.0713
46.6854
47.3113
47.9519
48.6108
49.2916
49.9986
50.7363
26.7712
26.3291
25.904
25.4955
25.103
24.7264
24.3653
24.0193
23.6884
23.3722
23.0705
22.7832
22.5101
22.2512
22.0062
21.7751
21.558
21.3547
21.1653
20.9899
20.8286
20.6815
20.5487
20.4306
20.3273
20.2393
20.1668
20.1103
20.0703
20.0475
20.0423
20.0557
20.0884
20.1414
20.2157
20.3117
20.4279
20.5627
20.7153
20.8851
21.0716
21.2743
21.4926
21.7262
21.9749
22.2381
22.5158
22.8077
23.1135
23.4331
23.7664
24.1132
24.4734
24.847
25.2337
25.6335
26.0463
26.472
26.9103
27.361
27.824
28.2991
28.7858
29.2838
29.7929
30.3124
30.842
31.381
31.929
32.4852
33.0489
33.6194
34.196
34.7777
35.3639
35.9535
36.5459
37.1402
37.7356
38.3315
38.9273
39.5223
40.1164
40.7092
41.3007
41.891
42.4807
43.0701
43.6603
44.2525
44.8479
45.4485
46.0564
46.6738
47.3037
47.9491
48.6134
49.3006
50.0148
50.7605
26.7715
26.3295
25.9044
25.4958
25.1033
24.7267
24.3655
24.0196
23.6887
23.3724
23.0708
22.7835
22.5104
22.2514
22.0064
21.7754
21.5582
21.3549
21.1655
20.9901
20.8288
20.6817
20.549
20.4308
20.3276
20.2395
20.167
20.1105
20.0706
20.0477
20.0425
20.0559
20.0886
20.1416
20.2159
20.3119
20.4281
20.5628
20.7154
20.8852
21.0716
21.2742
21.4925
21.726
21.9746
22.2378
22.5154
22.8072
23.1129
23.4325
23.7657
24.1124
24.4725
24.8459
25.2326
25.6323
26.0449
26.4704
26.9084
27.359
27.8218
28.2965
28.7829
29.2805
29.7891
30.3082
30.8372
31.3757
31.9229
32.4784
33.0413
33.6109
34.1865
34.7672
35.3522
35.9407
36.5319
37.1249
37.7191
38.3138
38.9084
39.5023
40.0954
40.6874
41.2782
41.8682
42.4577
43.0474
43.6382
44.2314
44.8285
45.4313
46.0418
46.6627
47.2967
47.947
48.6171
49.3108
50.0323
50.7861
26.7718
26.3298
25.9047
25.4961
25.1036
24.727
24.3658
24.0199
23.6889
23.3727
23.071
22.7837
22.5106
22.2517
22.0067
21.7756
21.5584
21.3552
21.1658
20.9904
20.829
20.6819
20.5492
20.431
20.3278
20.2397
20.1672
20.1107
20.0708
20.0479
20.0428
20.0561
20.0888
20.1417
20.216
20.312
20.4282
20.5629
20.7154
20.8852
21.0716
21.2741
21.4923
21.7258
21.9743
22.2375
22.515
22.8067
23.1123
23.4318
23.7649
24.1115
24.4716
24.8449
25.2314
25.6309
26.0434
26.4687
26.9066
27.3569
27.8194
28.2938
28.7799
29.2771
29.7853
30.3039
30.8323
31.3701
31.9167
32.4714
33.0334
33.6021
34.1767
34.7563
35.3402
35.9275
36.5175
37.1093
37.7022
38.2956
38.889
39.4819
40.074
40.6651
41.2554
41.845
42.4345
43.0245
43.6161
44.2104
44.8092
45.4142
46.0277
46.6522
47.2905
47.9458
48.6217
49.322
50.0509
50.8131
26.7722
26.3301
25.905
25.4964
25.1039
24.7273
24.3661
24.0202
23.6892
23.373
23.0713
22.784
22.5109
22.2519
22.0069
21.7759
21.5587
21.3554
21.166
20.9906
20.8293
20.6822
20.5494
20.4313
20.328
20.2399
20.1675
20.111
20.071
20.0481
20.043
20.0563
20.089
20.1419
20.2162
20.3122
20.4283
20.563
20.7155
20.8852
21.0715
21.274
21.4922
21.7256
21.974
22.2371
22.5145
22.8062
23.1117
23.4311
23.7641
24.1107
24.4706
24.8438
25.2302
25.6296
26.0419
26.467
26.9047
27.3547
27.817
28.2911
28.7768
29.2736
29.7813
30.2994
30.8273
31.3644
31.9103
32.4641
33.0253
33.593
34.1666
34.7451
35.3278
35.9139
36.5026
37.0932
37.6848
38.277
38.8692
39.461
40.0522
40.6425
41.2322
41.8216
42.411
43.0014
43.5938
44.1895
44.7901
45.3975
46.0141
46.6423
47.285
47.9455
48.6273
49.3343
50.0708
50.8413
26.7725
26.3304
25.9053
25.4967
25.1042
24.7275
24.3664
24.0204
23.6895
23.3732
23.0716
22.7843
22.5112
22.2522
22.0072
21.7761
21.5589
21.3556
21.1663
20.9908
20.8295
20.6824
20.5496
20.4315
20.3282
20.2402
20.1677
20.1112
20.0712
20.0483
20.0432
20.0565
20.0892
20.1421
20.2164
20.3123
20.4284
20.5631
20.7156
20.8852
21.0715
21.2739
21.492
21.7254
21.9737
22.2367
22.5141
22.8056
23.1111
23.4304
23.7633
24.1098
24.4696
24.8427
25.2289
25.6282
26.0403
26.4652
26.9027
27.3525
27.8145
28.2883
28.7736
29.27
29.7773
30.2948
30.822
31.3585
31.9036
32.4566
33.0169
33.5837
34.1561
34.7335
35.3151
35.8999
36.4874
37.0766
37.667
38.258
38.849
39.4397
40.0299
40.6195
41.2087
41.7978
42.3874
42.9783
43.5716
44.1686
44.7712
45.3811
46.0009
46.6329
47.2802
47.946
48.6339
49.3478
50.0919
50.8707
26.7728
26.3307
25.9056
25.497
25.1045
24.7278
24.3667
24.0207
23.6897
23.3735
23.0718
22.7845
22.5114
22.2524
22.0074
21.7763
21.5592
21.3559
21.1665
20.9911
20.8297
20.6826
20.5499
20.4317
20.3285
20.2404
20.1679
20.1114
20.0714
20.0485
20.0434
20.0567
20.0894
20.1423
20.2166
20.3125
20.4286
20.5632
20.7156
20.8852
21.0715
21.2738
21.4919
21.7252
21.9734
22.2364
22.5137
22.8051
23.1105
23.4297
23.7625
24.1089
24.4686
24.8415
25.2276
25.6268
26.0388
26.4635
26.9007
27.3503
27.8119
28.2854
28.7703
29.2663
29.773
30.29
30.8166
31.3524
31.8967
32.4489
33.0082
33.574
34.1454
34.7216
35.3019
35.8855
36.4717
37.0596
37.6487
38.2385
38.8283
39.418
40.0073
40.5962
41.1849
41.7738
42.3635
42.955
43.5493
44.1479
44.7525
45.3651
45.9881
46.6241
47.2761
47.9473
48.6414
49.3622
50.114
50.9013
26.7732
26.331
25.9059
25.4972
25.1048
24.7281
24.3669
24.021
23.69
23.3738
23.0721
22.7848
22.5117
22.2527
22.0077
21.7766
21.5594
21.3561
21.1667
20.9913
20.83
20.6829
20.5501
20.432
20.3287
20.2406
20.1681
20.1116
20.0717
20.0488
20.0436
20.057
20.0896
20.1425
20.2167
20.3126
20.4287
20.5633
20.7157
20.8853
21.0714
21.2737
21.4917
21.725
21.9732
22.236
22.5132
22.8046
23.1099
23.429
23.7617
24.108
24.4675
24.8404
25.2264
25.6253
26.0371
26.4616
26.8987
27.348
27.8093
28.2824
28.7669
29.2625
29.7687
30.2851
30.8111
31.3462
31.8897
32.441
32.9993
33.564
34.1343
34.7094
35.2885
35.8708
36.4556
37.0422
37.63
38.2185
38.8072
39.3958
39.9842
40.5725
41.1608
41.7496
42.3395
42.9316
43.527
44.1272
44.734
45.3494
45.9758
46.6159
47.2727
47.9495
48.6498
49.3777
50.1372
50.933
26.7735
26.3313
25.9062
25.4975
25.105
24.7284
24.3672
24.0213
23.6903
23.3741
23.0724
22.785
22.5119
22.2529
22.0079
21.7768
21.5597
21.3564
21.167
20.9916
20.8302
20.6831
20.5503
20.4322
20.3289
20.2409
20.1684
20.1119
20.0719
20.049
20.0439
20.0572
20.0898
20.1427
20.2169
20.3128
20.4288
20.5634
20.7158
20.8853
21.0714
21.2736
21.4915
21.7247
21.9729
22.2356
22.5127
22.804
23.1093
23.4283
23.7609
24.107
24.4665
24.8392
25.225
25.6239
26.0355
26.4598
26.8966
27.3456
27.8066
28.2794
28.7635
29.2586
29.7643
30.28
30.8054
31.3397
31.8824
32.4328
32.9901
33.5538
34.1229
34.6968
35.2746
35.8556
36.4391
37.0244
37.6109
38.1981
38.7857
39.3733
39.9608
40.5484
41.1364
41.7251
42.3154
42.9082
43.5048
44.1067
44.7158
45.3341
45.964
46.6083
47.2701
47.9525
48.6592
49.3941
50.1614
50.9656
26.7738
26.3316
25.9065
25.4978
25.1053
24.7286
24.3675
24.0215
23.6905
23.3743
23.0726
22.7853
22.5122
22.2532
22.0082
21.7771
21.5599
21.3566
21.1672
20.9918
20.8305
20.6833
20.5506
20.4324
20.3292
20.2411
20.1686
20.1121
20.0721
20.0492
20.0441
20.0574
20.09
20.1429
20.2171
20.313
20.429
20.5635
20.7158
20.8853
21.0714
21.2735
21.4914
21.7245
21.9726
22.2352
22.5123
22.8035
23.1086
23.4276
23.7601
24.1061
24.4655
24.838
25.2237
25.6224
26.0338
26.4579
26.8944
27.3432
27.8039
28.2763
28.76
29.2546
29.7597
30.2749
30.7995
31.333
31.8749
32.4243
32.9807
33.5432
34.1112
34.6838
35.2604
35.84
36.4222
37.0061
37.5914
38.1773
38.7637
39.3503
39.9371
40.5241
41.1117
41.7004
42.2911
42.8847
43.4826
44.0864
44.6978
45.3191
45.9527
46.6014
47.2681
47.9562
48.6693
49.4113
50.1864
50.9991
26.774
26.3319
25.9067
25.4981
25.1056
24.7289
24.3677
24.0218
23.6908
23.3746
23.0729
22.7856
22.5124
22.2534
22.0084
21.7773
21.5601
21.3568
21.1675
20.992
20.8307
20.6836
20.5508
20.4327
20.3294
20.2414
20.1689
20.1124
20.0724
20.0495
20.0443
20.0576
20.0903
20.1431
20.2173
20.3131
20.4291
20.5636
20.7159
20.8853
21.0713
21.2735
21.4912
21.7243
21.9723
22.2349
22.5118
22.8029
23.108
23.4268
23.7593
24.1052
24.4644
24.8369
25.2224
25.6209
26.0321
26.456
26.8923
27.3407
27.8011
28.2731
28.7563
29.2505
29.755
30.2695
30.7935
31.3262
31.8672
32.4157
32.971
33.5324
34.0992
34.6706
35.2458
35.8241
36.4049
36.9875
37.5714
38.1561
38.7414
39.327
39.9129
40.4994
41.0867
41.6756
42.2667
42.8612
43.4605
44.0662
44.6801
45.3046
45.9419
46.595
47.2668
47.9607
48.6803
49.4294
50.2123
51.0334
26.7743
26.3322
25.907
25.4983
25.1058
24.7292
24.368
24.022
23.6911
23.3748
23.0731
22.7858
22.5127
22.2537
22.0087
21.7776
21.5604
21.3571
21.1677
20.9923
20.8309
20.6838
20.5511
20.4329
20.3297
20.2416
20.1691
20.1126
20.0726
20.0497
20.0446
20.0579
20.0905
20.1433
20.2175
20.3133
20.4293
20.5637
20.716
20.8853
21.0713
21.2734
21.4911
21.7241
21.972
22.2345
22.5114
22.8024
23.1074
23.4261
23.7584
24.1042
24.4633
24.8357
25.221
25.6193
26.0304
26.4541
26.8901
27.3382
27.7983
28.2698
28.7526
29.2462
29.7502
30.2641
30.7873
31.3192
31.8593
32.4068
32.961
33.5213
34.0869
34.657
35.2308
35.8078
36.3872
36.9685
37.551
38.1345
38.7187
39.3033
39.8885
40.4745
41.0616
41.6506
42.2422
42.8378
43.4385
44.0462
44.6628
45.2904
45.9316
46.5892
47.2662
47.9659
48.692
49.4483
50.239
51.0684
26.7746
26.3325
25.9073
25.4986
25.1061
24.7294
24.3682
24.0223
23.6913
23.3751
23.0734
22.7861
22.5129
22.2539
22.0089
21.7778
21.5606
21.3573
21.1679
20.9925
20.8312
20.6841
20.5513
20.4332
20.3299
20.2418
20.1693
20.1129
20.0729
20.05
20.0448
20.0581
20.0907
20.1436
20.2177
20.3135
20.4294
20.5638
20.716
20.8854
21.0713
21.2733
21.4909
21.7238
21.9717
22.2341
22.5109
22.8019
23.1067
23.4254
23.7576
24.1033
24.4623
24.8345
25.2197
25.6178
26.0287
26.4521
26.8878
27.3357
27.7954
28.2665
28.7488
29.2419
29.7453
30.2585
30.7809
31.312
31.8511
32.3976
32.9508
33.5099
34.0743
34.6431
35.2156
35.7912
36.3692
36.9491
37.5303
38.1126
38.6956
39.2793
39.8638
40.4493
41.0363
41.6254
42.2177
42.8143
43.4167
44.0265
44.6458
45.2767
45.9218
46.584
47.2662
47.9718
48.7044
49.4679
50.2663
51.1041
27.2343
26.7748
26.3327
25.9075
25.4988
25.1063
24.7296
24.3685
24.0225
23.6916
23.3753
23.0736
22.7863
22.5132
22.2542
22.0092
21.7781
21.5609
21.3576
21.1682
20.9928
20.8314
20.6843
20.5516
20.4334
20.3302
20.2421
20.1696
20.1131
20.0731
20.0502
20.0451
20.0583
20.0909
20.1438
20.2179
20.3137
20.4296
20.564
20.7161
20.8854
21.0713
21.2732
21.4908
21.7236
21.9714
22.2338
22.5105
22.8013
23.1061
23.4247
23.7568
24.1024
24.4612
24.8333
25.2183
25.6163
26.027
26.4501
26.8856
27.3331
27.7924
28.2632
28.745
29.2375
29.7403
30.2527
30.7744
31.3046
31.8428
32.3883
32.9404
33.4983
34.0613
34.6288
35.2
35.7742
36.3508
36.9293
37.5092
38.0902
38.6722
39.255
39.8388
40.4238
41.0107
41.6002
42.1932
42.791
43.395
44.0071
44.6291
45.2634
45.9126
46.5794
47.2669
47.9784
48.7176
49.4882
50.2943
51.1403
27.2346
26.7751
26.3329
25.9077
25.4991
25.1066
24.7299
24.3687
24.0228
23.6918
23.3756
23.0739
22.7865
22.5134
22.2544
22.0094
21.7783
21.5611
21.3578
21.1684
20.993
20.8317
20.6846
20.5518
20.4337
20.3304
20.2424
20.1699
20.1134
20.0734
20.0505
20.0453
20.0586
20.0912
20.144
20.2181
20.3139
20.4298
20.5641
20.7162
20.8855
21.0713
21.2731
21.4907
21.7234
21.9711
22.2334
22.5101
22.8008
23.1055
23.424
23.756
24.1014
24.4602
24.8321
25.217
25.6148
26.0252
26.4481
26.8833
27.3305
27.7894
28.2597
28.7411
29.233
29.7351
30.2469
30.7677
31.2971
31.8343
32.3787
32.9296
33.4863
34.0481
34.6143
35.1841
35.7569
36.3322
36.9092
37.4878
38.0676
38.6484
39.2304
39.8135
40.3982
40.9851
41.5749
42.1687
42.7678
43.3735
43.9879
44.6128
45.2506
45.9038
46.5754
47.2682
47.9857
48.7314
49.5091
50.3229
51.177
27.2348
26.7753
26.3332
25.908
25.4993
25.1068
24.7301
24.3689
24.023
23.692
23.3758
23.0741
22.7868
22.5137
22.2547
22.0096
21.7786
21.5614
21.3581
21.1687
20.9933
20.8319
20.6848
20.5521
20.4339
20.3307
20.2426
20.1701
20.1136
20.0737
20.0507
20.0456
20.0589
20.0914
20.1443
20.2184
20.3141
20.4299
20.5643
20.7163
20.8855
21.0713
21.2731
21.4905
21.7232
21.9709
22.2331
22.5096
22.8003
23.1049
23.4233
23.7552
24.1005
24.4592
24.8309
25.2157
25.6132
26.0235
26.4461
26.881
27.3279
27.7864
28.2563
28.7371
29.2284
29.7299
30.2409
30.7609
31.2893
31.8255
32.3688
32.9186
33.474
34.0345
34.5993
35.1679
35.7395
36.3134
36.889
37.4662
38.0447
38.6245
39.2055
39.788
40.3725
40.9594
41.5496
42.1443
42.7447
43.3523
43.969
44.5969
45.2383
45.8957
46.572
47.2702
47.9936
48.7458
49.5306
50.3519
27.235
26.7755
26.3334
25.9082
25.4995
25.107
24.7303
24.3692
24.0232
23.6923
23.376
23.0743
22.787
22.5139
22.2549
22.0099
21.7788
21.5616
21.3583
21.1689
20.9935
20.8322
20.6851
20.5523
20.4342
20.3309
20.2429
20.1704
20.1139
20.0739
20.051
20.0458