/*--------------------------------*- C++ -*----------------------------------*\
  =========                 |
  \\      /  F ield         | OpenFOAM: The Open Source CFD Toolbox
   \\    /   O peration     | Website:  https://openfoam.org
    \\  /    A nd           | Version:  10
     \\/     M anipulation  |
\*---------------------------------------------------------------------------*/
FoamFile
{
    format      ascii;
    class       volScalarField;
    location    "41000";
    object      Co;
}
// * * * * * * * * * * * * * * * * * * * * * * * * * * * * * * * * * * * * * //

dimensions      [0 0 0 0 0 0 0];

internalField   nonuniform List<scalar> 
17922
(
3728.04
3715.99
3703.89
3691.74
3679.54
3667.27
3654.94
3642.53
3630.05
3617.47
3604.8
3592.02
3579.13
3566.12
3552.98
3539.7
3526.27
3512.67
3498.89
3484.93
3470.76
3456.38
3441.76
3426.88
3411.74
3396.3
3380.54
3364.45
3348.14
3331.88
3315.8
3299.87
3284.1
3268.46
3252.94
3237.54
3222.25
3207.05
3191.94
3176.92
3161.96
3147.07
3132.24
3117.46
3102.73
3088.03
3073.37
3058.73
3044.1
3029.49
3014.88
3000.27
2985.64
2971.01
2956.35
2941.67
2926.96
2912.22
2897.53
2882.87
2868.19
2853.48
2838.74
2823.97
2809.17
2794.35
2779.5
2764.64
2749.76
2734.88
2720
2705.13
2690.28
2675.46
2660.67
2645.92
2631.23
2616.6
2602.03
2587.55
2573.14
2558.83
2544.61
2530.49
2516.48
2502.58
2488.78
2475.1
2461.53
2448.07
2434.72
2421.48
2408.35
3620.96
3609.24
3597.49
3585.69
3573.84
3561.92
3549.94
3537.89
3525.76
3513.55
3501.24
3488.83
3476.31
3463.67
3450.91
3438.01
3424.96
3411.75
3398.37
3384.81
3371.05
3357.08
3342.87
3328.43
3313.72
3298.72
3283.42
3267.79
3251.95
3236.16
3220.54
3205.08
3189.75
3174.56
3159.5
3144.54
3129.69
3114.93
3100.26
3085.66
3071.14
3056.69
3042.28
3027.93
3013.63
2999.35
2985.11
2970.9
2956.69
2942.5
2928.32
2914.13
2899.93
2885.72
2871.49
2857.24
2842.95
2828.64
2814.36
2800.13
2785.87
2771.58
2757.27
2742.92
2728.55
2714.16
2699.74
2685.31
2670.86
2656.42
2641.97
2627.53
2613.11
2598.72
2584.36
2570.04
2555.77
2541.56
2527.42
2513.35
2499.35
2485.45
2471.63
2457.91
2444.29
2430.77
2417.36
2404.06
2390.86
2377.77
2364.78
2351.9
2339.12
3516.94
3505.57
3494.15
3482.69
3471.17
3459.6
3447.97
3436.26
3424.48
3412.61
3400.66
3388.6
3376.44
3364.17
3351.77
3339.24
3326.56
3313.73
3300.74
3287.56
3274.2
3260.63
3246.83
3232.8
3218.51
3203.95
3189.09
3173.91
3158.52
3143.19
3128.02
3113
3098.12
3083.37
3068.73
3054.21
3039.79
3025.46
3011.21
2997.04
2982.93
2968.89
2954.91
2940.97
2927.08
2913.22
2899.39
2885.59
2871.8
2858.02
2844.24
2830.46
2816.68
2802.88
2789.06
2775.22
2761.36
2747.46
2733.58
2719.75
2705.9
2692.03
2678.13
2664.2
2650.24
2636.26
2622.26
2608.25
2594.22
2580.19
2566.16
2552.14
2538.14
2524.16
2510.22
2496.31
2482.46
2468.66
2454.92
2441.25
2427.65
2414.14
2400.72
2387.38
2374.15
2361
2347.96
2335.02
2322.19
2309.45
2296.82
2284.29
2271.85
3415.92
3404.87
3393.78
3382.64
3371.46
3360.22
3348.91
3337.54
3326.1
3314.57
3302.96
3291.25
3279.44
3267.52
3255.48
3243.3
3230.99
3218.53
3205.91
3193.11
3180.13
3166.95
3153.55
3139.92
3126.05
3111.9
3097.47
3082.72
3067.78
3052.89
3038.15
3023.57
3009.12
2994.79
2980.58
2966.47
2952.47
2938.55
2924.71
2910.95
2897.26
2883.62
2870.04
2856.51
2843.02
2829.56
2816.13
2802.73
2789.34
2775.96
2762.58
2749.2
2735.81
2722.42
2709
2695.56
2682.1
2668.61
2655.12
2641.67
2628.22
2614.75
2601.25
2587.72
2574.17
2560.59
2547
2533.39
2519.77
2506.14
2492.52
2478.91
2465.31
2451.73
2438.19
2424.68
2411.23
2397.82
2384.47
2371.2
2357.99
2344.86
2331.81
2318.85
2305.98
2293.21
2280.53
2267.94
2255.46
2243.07
2230.78
2218.58
2206.48
3317.8
3307.06
3296.29
3285.47
3274.61
3263.69
3252.71
3241.67
3230.55
3219.35
3208.07
3196.7
3185.23
3173.65
3161.95
3150.12
3138.17
3126.06
3113.8
3101.37
3088.77
3075.96
3062.95
3049.71
3036.23
3022.5
3008.48
2994.16
2979.64
2965.18
2950.87
2936.71
2922.67
2908.76
2894.96
2881.26
2867.66
2854.14
2840.7
2827.34
2814.04
2800.8
2787.62
2774.47
2761.37
2748.3
2735.26
2722.25
2709.24
2696.25
2683.26
2670.27
2657.27
2644.26
2631.24
2618.19
2605.12
2592.02
2578.91
2565.83
2552.77
2539.68
2526.57
2513.43
2500.27
2487.08
2473.88
2460.66
2447.44
2434.2
2420.97
2407.75
2394.55
2381.36
2368.21
2355.09
2342.02
2329
2316.03
2303.13
2290.3
2277.54
2264.86
2252.26
2239.75
2227.33
2215
2202.76
2190.62
2178.57
2166.61
2154.74
2142.96
3222.49
3212.06
3201.6
3191.09
3180.54
3169.93
3159.27
3148.54
3137.74
3126.87
3115.91
3104.86
3093.72
3082.47
3071.11
3059.62
3048.01
3036.25
3024.34
3012.27
3000.03
2987.59
2974.95
2962.09
2949
2935.66
2922.04
2908.13
2894.04
2879.99
2866.1
2852.34
2838.71
2825.2
2811.79
2798.49
2785.28
2772.16
2759.11
2746.13
2733.22
2720.36
2707.55
2694.79
2682.07
2669.38
2656.72
2644.08
2631.45
2618.83
2606.22
2593.61
2580.99
2568.35
2555.71
2543.04
2530.35
2517.63
2504.88
2492.16
2479.47
2466.76
2454.03
2441.27
2428.48
2415.68
2402.85
2390.02
2377.17
2364.32
2351.47
2338.63
2325.8
2313
2300.22
2287.48
2274.78
2262.13
2249.53
2237
2224.52
2212.12
2199.8
2187.55
2175.39
2163.31
2151.32
2139.42
2127.61
2115.89
2104.25
2092.71
2081.25
3129.92
3119.8
3109.63
3099.43
3089.17
3078.87
3068.51
3058.09
3047.6
3037.04
3026.39
3015.66
3004.84
2993.91
2982.88
2971.72
2960.44
2949.02
2937.45
2925.73
2913.83
2901.75
2889.48
2876.99
2864.28
2851.32
2838.09
2824.58
2810.89
2797.25
2783.76
2770.39
2757.16
2744.03
2731.02
2718.1
2705.27
2692.53
2679.85
2667.25
2654.71
2642.23
2629.79
2617.4
2605.04
2592.72
2580.43
2568.15
2555.89
2543.64
2531.39
2519.14
2506.89
2494.62
2482.34
2470.05
2457.72
2445.38
2433
2420.62
2408.28
2395.93
2383.56
2371.17
2358.75
2346.31
2333.85
2321.39
2308.91
2296.43
2283.95
2271.47
2259.02
2246.58
2234.17
2221.79
2209.45
2197.16
2184.92
2172.74
2160.62
2148.56
2136.58
2124.68
2112.86
2101.11
2089.45
2077.88
2066.39
2054.99
2043.67
2032.43
2021.29
3040.02
3030.18
3020.3
3010.39
3000.43
2990.42
2980.36
2970.24
2960.05
2949.79
2939.45
2929.03
2918.51
2907.9
2897.18
2886.35
2875.39
2864.3
2853.06
2841.67
2830.12
2818.39
2806.46
2794.33
2781.98
2769.4
2756.55
2743.43
2730.14
2716.89
2703.78
2690.8
2677.95
2665.2
2652.56
2640.02
2627.56
2615.18
2602.88
2590.64
2578.46
2566.34
2554.26
2542.23
2530.23
2518.26
2506.32
2494.4
2482.5
2470.6
2458.71
2446.82
2434.92
2423.01
2411.09
2399.15
2387.18
2375.2
2363.18
2351.14
2339.12
2327.12
2315.11
2303.07
2291.01
2278.92
2266.82
2254.71
2242.59
2230.47
2218.35
2206.23
2194.13
2182.05
2169.99
2157.96
2145.97
2134.03
2122.14
2110.3
2098.52
2086.81
2075.16
2063.59
2052.09
2040.67
2029.33
2018.07
2006.9
1995.81
1984.8
1973.87
1963.03
2952.69
2943.13
2933.54
2923.91
2914.24
2904.52
2894.74
2884.91
2875.01
2865.05
2855
2844.88
2834.67
2824.36
2813.95
2803.42
2792.78
2782
2771.09
2760.03
2748.81
2737.41
2725.83
2714.05
2702.06
2689.83
2677.35
2664.61
2651.7
2638.83
2626.1
2613.5
2601.01
2588.64
2576.36
2564.18
2552.08
2540.06
2528.11
2516.23
2504.4
2492.63
2480.9
2469.21
2457.56
2445.94
2434.35
2422.77
2411.21
2399.66
2388.11
2376.57
2365.01
2353.45
2341.88
2330.28
2318.67
2307.03
2295.36
2283.67
2271.97
2260.28
2248.61
2236.92
2225.2
2213.46
2201.71
2189.94
2178.17
2166.39
2154.61
2142.84
2131.09
2119.35
2107.63
2095.95
2084.3
2072.7
2061.14
2049.63
2038.18
2026.8
2015.47
2004.22
1993.04
1981.94
1970.91
1959.97
1949.1
1938.31
1927.6
1916.98
1906.43
2867.87
2858.59
2849.27
2839.92
2830.52
2821.08
2811.58
2802.03
2792.42
2782.74
2772.98
2763.15
2753.23
2743.22
2733.1
2722.88
2712.54
2702.08
2691.48
2680.73
2669.83
2658.76
2647.52
2636.07
2624.42
2612.55
2600.43
2588.06
2575.52
2563.02
2550.65
2538.41
2526.29
2514.27
2502.35
2490.52
2478.77
2467.09
2455.49
2443.95
2432.47
2421.03
2409.64
2398.3
2386.98
2375.7
2364.44
2353.2
2341.98
2330.76
2319.55
2308.33
2297.12
2285.89
2274.65
2263.39
2252.12
2240.82
2229.49
2218.14
2206.76
2195.38
2184.02
2172.65
2161.27
2149.87
2138.45
2127.02
2115.58
2104.14
2092.7
2081.26
2069.84
2058.43
2047.05
2035.7
2024.38
2013.1
2001.87
1990.68
1979.55
1968.49
1957.48
1946.54
1935.67
1924.88
1914.15
1903.51
1892.94
1882.45
1872.03
1861.7
1851.44
2785.49
2776.47
2767.42
2758.34
2749.21
2740.04
2730.81
2721.54
2712.2
2702.79
2693.32
2683.77
2674.13
2664.4
2654.58
2644.65
2634.61
2624.44
2614.15
2603.71
2593.12
2582.37
2571.45
2560.34
2549.02
2537.49
2525.72
2513.7
2501.52
2489.38
2477.37
2465.49
2453.71
2442.04
2430.46
2418.97
2407.56
2396.23
2384.96
2373.75
2362.6
2351.49
2340.44
2329.42
2318.43
2307.47
2296.54
2285.63
2274.73
2263.83
2252.95
2242.06
2231.17
2220.27
2209.35
2198.42
2187.48
2176.51
2165.52
2154.5
2143.45
2132.37
2121.29
2110.23
2099.17
2088.09
2076.99
2065.89
2054.78
2043.66
2032.54
2021.43
2010.33
1999.25
1988.19
1977.16
1966.16
1955.2
1944.28
1933.41
1922.59
1911.83
1901.13
1890.49
1879.93
1869.43
1859
1848.65
1838.37
1828.17
1818.04
1807.99
1798.01
2705.48
2696.72
2687.92
2679.1
2670.23
2661.32
2652.36
2643.35
2634.28
2625.15
2615.94
2606.66
2597.3
2587.86
2578.31
2568.67
2558.91
2549.04
2539.04
2528.91
2518.62
2508.18
2497.57
2486.78
2475.78
2464.58
2453.15
2441.48
2429.65
2417.86
2406.2
2394.66
2383.22
2371.88
2360.64
2349.48
2338.4
2327.39
2316.45
2305.56
2294.73
2283.95
2273.21
2262.51
2251.85
2241.21
2230.59
2219.99
2209.41
2198.83
2188.26
2177.69
2167.11
2156.53
2145.93
2135.32
2124.69
2114.04
2103.37
2092.68
2081.95
2071.2
2060.43
2049.62
2038.84
2028.07
2017.29
2006.5
1995.7
1984.9
1974.1
1963.31
1952.52
1941.75
1931
1920.28
1909.59
1898.93
1888.32
1877.76
1867.24
1856.78
1846.38
1836.04
1825.76
1815.55
1805.42
1795.35
1785.36
1775.44
1765.59
1755.82
1746.12
2627.76
2619.25
2610.71
2602.14
2593.52
2584.87
2576.17
2567.41
2558.6
2549.73
2540.79
2531.78
2522.68
2513.51
2504.24
2494.87
2485.4
2475.81
2466.09
2456.25
2446.26
2436.12
2425.81
2415.33
2404.65
2393.77
2382.67
2371.33
2359.84
2348.39
2337.07
2325.86
2314.75
2303.74
2292.82
2281.99
2271.22
2260.53
2249.91
2239.34
2228.82
2218.35
2207.92
2197.53
2187.17
2176.84
2166.53
2156.24
2145.96
2135.69
2125.43
2115.16
2104.89
2094.61
2084.33
2074.03
2063.71
2053.37
2043.01
2032.63
2022.22
2011.79
2001.33
1990.84
1980.33
1969.8
1959.29
1948.81
1938.32
1927.82
1917.32
1906.83
1896.35
1885.88
1875.44
1865.02
1854.63
1844.27
1833.95
1823.68
1813.46
1803.29
1793.18
1783.12
1773.13
1763.21
1753.35
1743.56
1733.85
1724.2
1714.63
1705.13
1695.7
2552.27
2544.01
2535.71
2527.38
2519.02
2510.61
2502.16
2493.65
2485.1
2476.48
2467.79
2459.04
2450.21
2441.29
2432.29
2423.19
2413.99
2404.67
2395.24
2385.68
2375.97
2366.12
2356.11
2345.93
2335.56
2325
2314.21
2303.2
2292.04
2280.92
2269.92
2259.03
2248.25
2237.56
2226.95
2216.43
2205.98
2195.6
2185.28
2175.01
2164.8
2154.63
2144.51
2134.42
2124.36
2114.32
2104.31
2094.32
2084.34
2074.36
2064.4
2054.43
2044.46
2034.48
2024.49
2014.49
2004.47
1994.44
1984.38
1974.3
1964.2
1954.08
1943.93
1933.75
1923.55
1913.33
1903.09
1892.83
1882.58
1872.36
1862.16
1851.96
1841.78
1831.6
1821.45
1811.32
1801.22
1791.16
1781.13
1771.14
1761.2
1751.32
1741.48
1731.71
1722
1712.35
1702.77
1693.25
1683.81
1674.43
1665.13
1655.89
1646.73
2478.95
2470.92
2462.87
2454.78
2446.65
2438.49
2430.27
2422.01
2413.7
2405.33
2396.9
2388.39
2379.81
2371.15
2362.41
2353.57
2344.63
2335.58
2326.42
2317.13
2307.71
2298.14
2288.42
2278.53
2268.46
2258.19
2247.72
2237.03
2226.19
2215.39
2204.71
2194.13
2183.66
2173.27
2162.97
2152.75
2142.61
2132.52
2122.5
2112.53
2102.62
2092.74
2082.91
2073.11
2063.34
2053.6
2043.88
2034.17
2024.48
2014.8
2005.12
1995.44
1985.76
1976.07
1966.38
1956.67
1946.94
1937.2
1927.44
1917.65
1907.85
1898.02
1888.17
1878.3
1868.4
1858.49
1848.55
1838.6
1828.63
1818.65
1808.66
1798.68
1788.75
1778.87
1769
1759.15
1749.33
1739.55
1729.8
1720.09
1710.43
1700.82
1691.26
1681.76
1672.32
1662.94
1653.62
1644.37
1635.19
1626.08
1617.04
1608.06
1599.16
2407.74
2399.94
2392.12
2384.26
2376.36
2368.43
2360.46
2352.43
2344.36
2336.23
2328.03
2319.77
2311.44
2303.03
2294.54
2285.95
2277.27
2268.48
2259.58
2250.56
2241.4
2232.11
2222.67
2213.06
2203.28
2193.31
2183.14
2172.75
2162.23
2151.74
2141.36
2131.09
2120.92
2110.84
2100.83
2090.91
2081.05
2071.26
2061.53
2051.85
2042.22
2032.63
2023.08
2013.57
2004.08
1994.62
1985.18
1975.76
1966.34
1956.94
1947.54
1938.15
1928.75
1919.34
1909.92
1900.5
1891.06
1881.6
1872.12
1862.63
1853.11
1843.57
1834.01
1824.43
1814.83
1805.21
1795.57
1785.92
1776.25
1766.57
1756.88
1747.19
1737.5
1727.81
1718.13
1708.49
1698.92
1689.41
1679.93
1670.49
1661.1
1651.76
1642.46
1633.23
1624.05
1614.93
1605.87
1596.88
1587.96
1579.11
1570.32
1561.6
1552.95
2368.68
2361.18
2353.66
2346.13
2338.57
2331
2323.39
2315.76
2308.09
2300.39
2292.64
2284.85
2277.01
2269.11
2261.15
2253.13
2245.03
2236.86
2228.61
2220.27
2211.84
2203.3
2194.66
2185.89
2177
2167.98
2158.81
2149.48
2139.98
2130.29
2120.42
2110.33
2100.1
2089.92
2079.84
2069.86
2059.98
2050.19
2040.48
2030.84
2021.27
2011.76
2002.31
1992.91
1983.55
1974.24
1964.97
1955.73
1946.52
1937.33
1928.16
1919.01
1909.88
1900.74
1891.62
1882.49
1873.37
1864.23
1855.09
1845.94
1836.78
1827.6
1818.4
1809.18
1799.94
1790.69
1781.41
1772.11
1762.8
1753.46
1744.11
1734.75
1725.37
1715.98
1706.59
1697.19
1687.79
1678.39
1669.01
1659.63
1650.27
1640.94
1631.62
1622.35
1613.17
1604.09
1595.05
1586.07
1577.15
1568.29
1559.49
1550.75
1542.08
1533.48
1524.94
1516.47
1508.07
2300.63
2293.35
2286.04
2278.73
2271.39
2264.03
2256.65
2249.23
2241.79
2234.3
2226.78
2219.21
2211.59
2203.92
2196.18
2188.39
2180.53
2172.6
2164.58
2156.48
2148.29
2140
2131.6
2123.09
2114.45
2105.69
2096.78
2087.72
2078.49
2069.08
2059.49
2049.69
2039.76
2029.87
2020.08
2010.4
2000.8
1991.29
1981.86
1972.49
1963.2
1953.96
1944.79
1935.66
1926.58
1917.53
1908.53
1899.56
1890.61
1881.69
1872.79
1863.9
1855.03
1846.16
1837.3
1828.44
1819.58
1810.71
1801.84
1792.95
1784.05
1775.14
1766.21
1757.27
1748.3
1739.32
1730.32
1721.3
1712.26
1703.2
1694.13
1685.04
1675.95
1666.84
1657.73
1648.62
1639.51
1630.4
1621.3
1612.21
1603.14
1594.08
1585.05
1576.05
1567.07
1558.13
1549.23
1540.37
1531.61
1522.98
1514.42
1505.93
1497.51
1489.15
1480.86
1472.63
1464.48
2234.54
2227.46
2220.37
2213.26
2206.14
2198.99
2191.82
2184.61
2177.38
2170.11
2162.8
2155.45
2148.05
2140.6
2133.09
2125.52
2117.88
2110.17
2102.39
2094.52
2086.57
2078.51
2070.36
2062.09
2053.7
2045.19
2036.53
2027.73
2018.77
2009.63
2000.32
1990.8
1981.16
1971.55
1962.04
1952.63
1943.31
1934.08
1924.92
1915.82
1906.8
1897.83
1888.92
1880.05
1871.23
1862.45
1853.71
1844.99
1836.31
1827.64
1819
1810.37
1801.75
1793.14
1784.54
1775.94
1767.33
1758.72
1750.11
1741.48
1732.84
1724.19
1715.52
1706.84
1698.14
1689.42
1680.69
1671.94
1663.17
1654.38
1645.58
1636.77
1627.95
1619.11
1610.28
1601.44
1592.61
1583.78
1574.95
1566.14
1557.35
1548.57
1539.82
1531.09
1522.39
1513.73
1505.1
1496.51
1487.95
1479.44
1470.98
1462.56
1454.25
1446.09
1438.04
1430.05
1422.13
2190.91
2184.06
2177.21
2170.34
2163.47
2156.58
2149.68
2142.76
2135.81
2128.85
2121.85
2114.83
2107.76
2100.66
2093.52
2086.33
2079.09
2071.8
2064.45
2057.03
2049.55
2041.98
2034.34
2026.61
2018.79
2010.87
2002.84
1994.69
1986.42
1978.02
1969.47
1960.76
1951.89
1942.84
1933.6
1924.23
1914.9
1905.67
1896.53
1887.48
1878.51
1869.61
1860.78
1852.02
1843.31
1834.65
1826.04
1817.48
1808.95
1800.46
1792
1783.56
1775.15
1766.75
1758.37
1750.01
1741.65
1733.29
1724.94
1716.58
1708.23
1699.86
1691.49
1683.1
1674.7
1666.29
1657.86
1649.42
1640.96
1632.48
1623.99
1615.48
1606.96
1598.42
1589.87
1581.32
1572.76
1564.19
1555.62
1547.05
1538.49
1529.94
1521.4
1512.87
1504.37
1495.88
1487.42
1478.99
1470.6
1462.23
1453.9
1445.61
1437.37
1429.16
1421
1412.88
1404.8
1396.77
1388.8
1381.01
2127.97
2121.32
2114.66
2107.99
2101.31
2094.62
2087.92
2081.2
2074.45
2067.69
2060.89
2054.07
2047.21
2040.31
2033.37
2026.39
2019.36
2012.28
2005.13
1997.93
1990.66
1983.31
1975.89
1968.38
1960.79
1953.09
1945.29
1937.38
1929.34
1921.18
1912.88
1904.42
1895.81
1887.02
1878.04
1868.94
1859.88
1850.91
1842.04
1833.25
1824.54
1815.9
1807.32
1798.81
1790.35
1781.94
1773.58
1765.26
1756.98
1748.74
1740.52
1732.33
1724.16
1716.01
1707.87
1699.74
1691.63
1683.51
1675.4
1667.29
1659.18
1651.06
1642.93
1634.79
1626.63
1618.47
1610.29
1602.09
1593.88
1585.66
1577.42
1569.16
1560.9
1552.62
1544.33
1536.03
1527.72
1519.42
1511.11
1502.8
1494.5
1486.21
1477.94
1469.67
1461.43
1453.21
1445.01
1436.84
1428.7
1420.59
1412.52
1404.49
1396.5
1388.54
1380.63
1372.76
1364.93
1357.15
1349.41
1341.7
2066.83
2060.37
2053.9
2047.43
2040.94
2034.45
2027.93
2021.4
2014.85
2008.28
2001.68
1995.05
1988.39
1981.69
1974.95
1968.17
1961.34
1954.46
1947.52
1940.52
1933.46
1926.33
1919.12
1911.83
1904.45
1896.97
1889.4
1881.71
1873.91
1865.98
1857.91
1849.7
1841.33
1832.8
1824.08
1815.24
1806.44
1797.73
1789.11
1780.58
1772.11
1763.72
1755.39
1747.13
1738.91
1730.75
1722.63
1714.55
1706.51
1698.5
1690.52
1682.57
1674.63
1666.72
1658.82
1650.93
1643.04
1635.17
1627.29
1619.41
1611.53
1603.65
1595.76
1587.86
1579.94
1572.02
1564.08
1556.13
1548.16
1540.18
1532.18
1524.17
1516.15
1508.12
1500.08
1492.04
1483.98
1475.93
1467.87
1459.82
1451.78
1443.74
1435.72
1427.71
1419.72
1411.75
1403.81
1395.89
1388
1380.15
1372.33
1364.54
1356.8
1349.09
1341.42
1333.79
1326.21
1318.66
1311.16
1303.69
2007.45
2001.17
1994.89
1988.6
1982.3
1975.99
1969.67
1963.33
1956.96
1950.58
1944.17
1937.73
1931.26
1924.75
1918.21
1911.62
1904.99
1898.3
1891.57
1884.77
1877.91
1870.98
1863.98
1856.89
1849.73
1842.47
1835.11
1827.64
1820.06
1812.36
1804.53
1796.55
1788.43
1780.13
1771.66
1763.08
1754.53
1746.08
1737.71
1729.41
1721.2
1713.05
1704.96
1696.93
1688.95
1681.02
1673.14
1665.29
1657.48
1649.71
1641.96
1634.23
1626.53
1618.84
1611.17
1603.51
1595.85
1588.2
1580.56
1572.91
1565.26
1557.6
1549.94
1542.27
1534.59
1526.9
1519.19
1511.47
1503.74
1496
1488.24
1480.47
1472.69
1464.9
1457.11
1449.3
1441.5
1433.69
1425.88
1418.07
1410.27
1402.49
1394.71
1386.95
1379.21
1371.48
1363.79
1356.12
1348.47
1340.86
1333.29
1325.74
1318.24
1310.77
1303.34
1295.95
1288.6
1281.28
1274.01
1266.77
1949.77
1943.67
1937.57
1931.47
1925.35
1919.22
1913.08
1906.92
1900.74
1894.54
1888.31
1882.06
1875.77
1869.45
1863.09
1856.7
1850.25
1843.76
1837.22
1830.61
1823.95
1817.22
1810.42
1803.54
1796.58
1789.52
1782.38
1775.13
1767.77
1760.28
1752.68
1744.93
1737.04
1728.98
1720.76
1712.42
1704.12
1695.9
1687.77
1679.72
1671.74
1663.83
1655.97
1648.17
1640.43
1632.73
1625.07
1617.45
1609.87
1602.31
1594.79
1587.28
1579.8
1572.34
1564.89
1557.45
1550.01
1542.59
1535.16
1527.74
1520.31
1512.88
1505.44
1497.99
1490.54
1483.07
1475.59
1468.1
1460.6
1453.09
1445.56
1438.02
1430.48
1422.92
1415.36
1407.79
1400.22
1392.65
1385.08
1377.52
1369.96
1362.41
1354.88
1347.36
1339.85
1332.37
1324.91
1317.48
1310.08
1302.7
1295.36
1288.06
1280.78
1273.55
1266.35
1259.19
1252.06
1244.98
1237.93
1230.91
1893.75
1887.83
1881.9
1875.97
1870.03
1864.08
1858.11
1852.13
1846.13
1840.1
1834.05
1827.98
1821.88
1815.74
1809.56
1803.35
1797.09
1790.78
1784.43
1778.01
1771.54
1765
1758.4
1751.72
1744.95
1738.1
1731.16
1724.12
1716.97
1709.7
1702.31
1694.79
1687.12
1679.3
1671.31
1663.22
1655.15
1647.17
1639.28
1631.46
1623.7
1616.02
1608.39
1600.82
1593.29
1585.81
1578.38
1570.98
1563.61
1556.28
1548.97
1541.68
1534.42
1527.17
1519.93
1512.71
1505.49
1498.28
1491.07
1483.86
1476.65
1469.43
1462.21
1454.98
1447.75
1440.5
1433.24
1425.97
1418.69
1411.4
1404.1
1396.79
1389.47
1382.14
1374.81
1367.47
1360.13
1352.8
1345.46
1338.13
1330.8
1323.48
1316.18
1308.9
1301.63
1294.38
1287.15
1279.95
1272.78
1265.64
1258.53
1251.45
1244.4
1237.39
1230.42
1223.48
1216.58
1209.72
1202.88
1196.09
1839.33
1833.58
1827.83
1822.07
1816.3
1810.52
1804.72
1798.91
1793.08
1787.23
1781.36
1775.46
1769.53
1763.57
1757.57
1751.53
1745.45
1739.33
1733.15
1726.92
1720.64
1714.29
1707.87
1701.38
1694.81
1688.16
1681.42
1674.58
1667.63
1660.57
1653.4
1646.09
1638.64
1631.04
1623.29
1615.42
1607.59
1599.84
1592.17
1584.58
1577.05
1569.58
1562.17
1554.82
1547.51
1540.25
1533.03
1525.84
1518.69
1511.56
1504.47
1497.39
1490.34
1483.3
1476.27
1469.25
1462.25
1455.24
1448.24
1441.24
1434.24
1427.24
1420.22
1413.21
1406.18
1399.15
1392.1
1385.05
1377.99
1370.91
1363.83
1356.74
1349.64
1342.53
1335.42
1328.31
1321.19
1314.08
1306.97
1299.86
1292.76
1285.67
1278.6
1271.54
1264.49
1257.47
1250.47
1243.5
1236.55
1229.63
1222.75
1215.89
1209.07
1202.28
1195.52
1188.8
1182.12
1175.47
1168.85
1162.27
1786.48
1780.89
1775.31
1769.71
1764.11
1758.49
1752.87
1747.22
1741.56
1735.88
1730.17
1724.44
1718.68
1712.89
1707.07
1701.2
1695.3
1689.35
1683.35
1677.3
1671.2
1665.03
1658.79
1652.49
1646.11
1639.65
1633.1
1626.46
1619.71
1612.86
1605.89
1598.79
1591.55
1584.18
1576.64
1569
1561.4
1553.87
1546.42
1539.04
1531.73
1524.48
1517.29
1510.14
1503.04
1495.99
1488.98
1482
1475.05
1468.13
1461.24
1454.37
1447.52
1440.68
1433.86
1427.04
1420.24
1413.44
1406.64
1399.84
1393.05
1386.25
1379.44
1372.63
1365.81
1358.98
1352.15
1345.3
1338.45
1331.58
1324.71
1317.83
1310.95
1304.06
1297.16
1290.26
1283.37
1276.47
1269.58
1262.69
1255.81
1248.94
1242.08
1235.25
1228.42
1221.62
1214.84
1208.09
1201.36
1194.66
1187.99
1181.35
1174.74
1168.17
1161.63
1155.12
1148.65
1142.2
1135.8
1129.42
1735.14
1729.72
1724.29
1718.86
1713.42
1707.96
1702.5
1697.02
1691.52
1686
1680.46
1674.89
1669.3
1663.67
1658.01
1652.32
1646.58
1640.81
1634.98
1629.1
1623.17
1617.18
1611.13
1605.01
1598.81
1592.53
1586.17
1579.72
1573.17
1566.51
1559.74
1552.84
1545.82
1538.65
1531.33
1523.92
1516.53
1509.22
1501.98
1494.82
1487.72
1480.67
1473.68
1466.75
1459.85
1453
1446.19
1439.41
1432.67
1425.95
1419.25
1412.58
1405.93
1399.29
1392.66
1386.04
1379.44
1372.83
1366.23
1359.63
1353.03
1346.43
1339.82
1333.21
1326.59
1319.96
1313.33
1306.69
1300.04
1293.38
1286.71
1280.04
1273.36
1266.68
1259.99
1253.31
1246.62
1239.93
1233.25
1226.58
1219.91
1213.26
1206.62
1199.99
1193.38
1186.8
1180.23
1173.69
1167.18
1160.69
1154.23
1147.8
1141.4
1135.04
1128.7
1122.4
1116.13
1109.9
1103.69
1097.51
1685.28
1680.01
1674.74
1669.47
1664.18
1658.89
1653.58
1648.25
1642.91
1637.55
1632.17
1626.76
1621.33
1615.87
1610.37
1604.84
1599.27
1593.66
1588
1582.29
1576.53
1570.71
1564.83
1558.88
1552.86
1546.77
1540.59
1534.32
1527.96
1521.49
1514.92
1508.22
1501.4
1494.44
1487.33
1480.12
1472.95
1465.85
1458.82
1451.86
1444.96
1438.12
1431.34
1424.6
1417.9
1411.25
1404.63
1398.05
1391.5
1384.97
1378.47
1371.99
1365.53
1359.08
1352.65
1346.22
1339.8
1333.39
1326.98
1320.57
1314.17
1307.75
1301.34
1294.92
1288.5
1282.06
1275.63
1269.18
1262.73
1256.27
1249.8
1243.33
1236.85
1230.37
1223.89
1217.4
1210.92
1204.44
1197.97
1191.5
1185.04
1178.6
1172.16
1165.75
1159.35
1152.97
1146.61
1140.28
1133.97
1127.69
1121.43
1115.21
1109.02
1102.85
1096.72
1090.62
1084.55
1078.52
1072.51
1066.53
1636.85
1631.73
1626.62
1621.49
1616.36
1611.22
1606.06
1600.89
1595.7
1590.49
1585.27
1580.02
1574.74
1569.43
1564.09
1558.72
1553.31
1547.86
1542.37
1536.82
1531.23
1525.57
1519.86
1514.09
1508.24
1502.32
1496.32
1490.23
1484.05
1477.77
1471.38
1464.88
1458.25
1451.49
1444.58
1437.59
1430.62
1423.72
1416.9
1410.14
1403.44
1396.79
1390.2
1383.66
1377.15
1370.69
1364.27
1357.87
1351.51
1345.17
1338.86
1332.56
1326.29
1320.03
1313.78
1307.54
1301.31
1295.08
1288.86
1282.63
1276.41
1270.19
1263.96
1257.73
1251.49
1245.25
1239
1232.75
1226.48
1220.22
1213.94
1207.67
1201.38
1195.1
1188.81
1182.53
1176.24
1169.97
1163.69
1157.43
1151.17
1144.92
1138.69
1132.48
1126.28
1120.1
1113.95
1107.82
1101.71
1095.63
1089.57
1083.55
1077.56
1071.59
1065.66
1059.75
1053.88
1048.04
1042.22
1036.43
1589.81
1584.84
1579.87
1574.9
1569.91
1564.91
1559.91
1554.88
1549.85
1544.79
1539.71
1534.61
1529.49
1524.33
1519.15
1513.93
1508.67
1503.38
1498.04
1492.66
1487.22
1481.73
1476.19
1470.57
1464.9
1459.15
1453.32
1447.4
1441.4
1435.3
1429.1
1422.78
1416.34
1409.78
1403.07
1396.27
1389.5
1382.8
1376.18
1369.61
1363.1
1356.65
1350.25
1343.89
1337.58
1331.3
1325.06
1318.85
1312.67
1306.51
1300.38
1294.27
1288.17
1282.09
1276.02
1269.96
1263.91
1257.86
1251.82
1245.78
1239.74
1233.69
1227.65
1221.6
1215.55
1209.49
1203.42
1197.35
1191.28
1185.2
1179.11
1173.02
1166.93
1160.83
1154.74
1148.65
1142.56
1136.47
1130.39
1124.32
1118.26
1112.21
1106.18
1100.16
1094.16
1088.18
1082.22
1076.28
1070.37
1064.48
1058.63
1052.8
1046.99
1041.22
1035.48
1029.77
1024.08
1018.43
1012.8
1007.2
1544.12
1539.3
1534.47
1529.64
1524.79
1519.94
1515.08
1510.2
1505.31
1500.4
1495.46
1490.51
1485.53
1480.53
1475.49
1470.42
1465.32
1460.18
1454.99
1449.76
1444.48
1439.15
1433.76
1428.31
1422.8
1417.21
1411.55
1405.81
1399.98
1394.05
1388.02
1381.89
1375.64
1369.26
1362.75
1356.15
1349.57
1343.06
1336.62
1330.25
1323.93
1317.66
1311.44
1305.27
1299.13
1293.04
1286.97
1280.94
1274.94
1268.96
1263.01
1257.07
1251.15
1245.24
1239.35
1233.46
1227.59
1221.71
1215.85
1209.98
1204.11
1198.25
1192.38
1186.5
1180.63
1174.75
1168.86
1162.97
1157.07
1151.17
1145.27
1139.36
1133.45
1127.55
1121.64
1115.73
1109.83
1103.93
1098.04
1092.16
1086.29
1080.43
1074.59
1068.76
1062.95
1057.16
1051.39
1045.64
1039.92
1034.23
1028.56
1022.92
1017.31
1011.72
1006.17
1000.64
995.14
989.669
984.225
978.807
1499.74
1495.06
1490.37
1485.67
1480.97
1476.26
1471.54
1466.8
1462.05
1457.28
1452.49
1447.68
1442.84
1437.98
1433.09
1428.17
1423.21
1418.21
1413.18
1408.1
1402.97
1397.79
1392.56
1387.26
1381.91
1376.48
1370.98
1365.4
1359.74
1353.99
1348.13
1342.17
1336.1
1329.91
1323.58
1317.17
1310.78
1304.46
1298.21
1292.01
1285.87
1279.79
1273.75
1267.75
1261.79
1255.87
1249.98
1244.12
1238.29
1232.49
1226.7
1220.94
1215.18
1209.45
1203.72
1198.01
1192.3
1186.6
1180.9
1175.2
1169.51
1163.81
1158.11
1152.41
1146.71
1141
1135.29
1129.57
1123.85
1118.12
1112.4
1106.67
1100.93
1095.2
1089.48
1083.75
1078.03
1072.32
1066.61
1060.91
1055.23
1049.55
1043.89
1038.25
1032.63
1027.02
1021.44
1015.88
1010.34
1004.83
999.348
993.891
988.461
983.058
977.685
972.339
967.02
961.729
956.464
951.225
1456.64
1452.09
1447.54
1442.98
1438.41
1433.83
1429.25
1424.64
1420.03
1415.4
1410.74
1406.07
1401.37
1396.65
1391.9
1387.12
1382.31
1377.45
1372.56
1367.63
1362.65
1357.62
1352.54
1347.39
1342.19
1336.92
1331.58
1326.16
1320.66
1315.07
1309.39
1303.6
1297.7
1291.68
1285.54
1279.31
1273.11
1266.97
1260.89
1254.88
1248.91
1243
1237.13
1231.31
1225.52
1219.77
1214.05
1208.36
1202.7
1197.06
1191.44
1185.84
1180.25
1174.68
1169.12
1163.57
1158.03
1152.49
1146.95
1141.42
1135.89
1130.36
1124.83
1119.29
1113.75
1108.21
1102.67
1097.12
1091.57
1086.01
1080.46
1074.9
1069.34
1063.78
1058.23
1052.68
1047.14
1041.6
1036.07
1030.55
1025.05
1019.55
1014.08
1008.61
1003.17
997.745
992.342
986.961
981.604
976.273
970.967
965.688
960.436
955.211
950.014
944.844
939.702
934.585
929.495
924.43
1414.77
1410.35
1405.93
1401.5
1397.07
1392.62
1388.17
1383.7
1379.22
1374.72
1370.2
1365.66
1361.1
1356.51
1351.9
1347.25
1342.58
1337.87
1333.11
1328.32
1323.49
1318.6
1313.66
1308.67
1303.61
1298.5
1293.31
1288.05
1282.7
1277.27
1271.75
1266.13
1260.4
1254.56
1248.59
1242.54
1236.51
1230.55
1224.65
1218.8
1213.01
1207.27
1201.57
1195.91
1190.29
1184.7
1179.15
1173.62
1168.12
1162.64
1157.18
1151.74
1146.32
1140.91
1135.51
1130.11
1124.73
1119.35
1113.98
1108.61
1103.24
1097.86
1092.49
1087.12
1081.74
1076.36
1070.98
1065.6
1060.21
1054.82
1049.43
1044.03
1038.64
1033.25
1027.87
1022.49
1017.12
1011.76
1006.4
1001.06
995.724
990.405
985.101
979.814
974.545
969.296
964.067
958.862
953.679
948.522
943.39
938.284
933.205
928.153
923.128
918.129
913.158
908.212
903.292
898.396
1378.4
1374.11
1369.82
1365.52
1361.22
1356.92
1352.6
1348.27
1343.93
1339.58
1335.21
1330.82
1326.41
1321.98
1317.52
1313.04
1308.53
1303.99
1299.41
1294.8
1290.14
1285.45
1280.7
1275.91
1271.05
1266.15
1261.17
1256.14
1251.02
1245.83
1240.56
1235.2
1229.74
1224.17
1218.5
1212.7
1206.82
1200.97
1195.18
1189.45
1183.77
1178.14
1172.56
1167.03
1161.53
1156.07
1150.64
1145.25
1139.88
1134.53
1129.21
1123.91
1118.63
1113.36
1108.1
1102.85
1097.62
1092.39
1087.16
1081.95
1076.73
1071.51
1066.3
1061.08
1055.86
1050.65
1045.42
1040.2
1034.97
1029.74
1024.51
1019.28
1014.05
1008.82
1003.59
998.369
993.157
987.952
982.756
977.57
972.395
967.232
962.082
956.948
951.83
946.731
941.652
936.593
931.557
926.544
921.555
916.592
911.655
906.743
901.859
897.001
892.169
887.364
882.584
877.829
873.099
1338.78
1334.61
1330.45
1326.28
1322.1
1317.91
1313.72
1309.52
1305.3
1301.07
1296.83
1292.57
1288.29
1283.98
1279.66
1275.3
1270.92
1266.51
1262.07
1257.58
1253.06
1248.5
1243.89
1239.23
1234.52
1229.75
1224.92
1220.03
1215.06
1210.02
1204.9
1199.69
1194.39
1188.98
1183.47
1177.84
1172.13
1166.45
1160.82
1155.25
1149.74
1144.27
1138.85
1133.47
1128.13
1122.83
1117.56
1112.32
1107.1
1101.91
1096.74
1091.59
1086.45
1081.34
1076.23
1071.14
1066.05
1060.97
1055.9
1050.83
1045.76
1040.7
1035.63
1030.57
1025.5
1020.43
1015.37
1010.29
1005.22
1000.15
995.069
989.991
984.914
979.838
974.767
969.705
964.653
959.612
954.579
949.556
944.545
939.546
934.56
929.59
924.637
919.703
914.788
909.894
905.022
900.173
895.349
890.549
885.775
881.027
876.305
871.609
866.939
862.296
857.677
853.084
848.514
1300.3
1296.25
1292.2
1288.15
1284.1
1280.03
1275.96
1271.88
1267.79
1263.68
1259.56
1255.42
1251.26
1247.08
1242.88
1238.65
1234.39
1230.11
1225.79
1221.44
1217.04
1212.61
1208.14
1203.61
1199.04
1194.4
1189.71
1184.96
1180.14
1175.24
1170.27
1165.21
1160.05
1154.8
1149.45
1143.98
1138.44
1132.91
1127.45
1122.04
1116.68
1111.37
1106.11
1100.88
1095.69
1090.54
1085.42
1080.33
1075.26
1070.22
1065.2
1060.19
1055.2
1050.23
1045.27
1040.32
1035.38
1030.45
1025.52
1020.6
1015.68
1010.76
1005.84
1000.92
996.004
991.084
986.163
981.241
976.316
971.39
966.463
961.535
956.607
951.681
946.762
941.853
936.957
932.073
927.199
922.335
917.482
912.641
907.815
903.005
898.211
893.436
888.68
883.945
879.232
874.543
869.877
865.236
860.62
856.03
851.466
846.928
842.416
837.929
833.467
829.03
1262.92
1258.99
1255.06
1251.13
1247.19
1243.24
1239.29
1235.32
1231.34
1227.35
1223.35
1219.33
1215.29
1211.23
1207.15
1203.04
1198.91
1194.75
1190.55
1186.33
1182.06
1177.76
1173.41
1169.01
1164.57
1160.07
1155.51
1150.9
1146.21
1141.46
1136.63
1131.71
1126.71
1121.61
1116.41
1111.1
1105.71
1100.34
1095.03
1089.78