/*--------------------------------*- C++ -*----------------------------------*\
  =========                 |
  \\      /  F ield         | OpenFOAM: The Open Source CFD Toolbox
   \\    /   O peration     | Website:  https://openfoam.org
    \\  /    A nd           | Version:  10
     \\/     M anipulation  |
\*---------------------------------------------------------------------------*/
FoamFile
{
    format      ascii;
    class       volScalarField;
    location    "41000";
    object      k;
}
// * * * * * * * * * * * * * * * * * * * * * * * * * * * * * * * * * * * * * //

dimensions      [0 2 -2 0 0 0 0];

internalField   nonuniform List<scalar> 
17922
(
0.0855189
0.0854894
0.0854644
0.085444
0.0854285
0.0854178
0.0854122
0.0854117
0.0854166
0.085427
0.0854429
0.0854646
0.0854923
0.0855259
0.0855658
0.0856121
0.0856649
0.0857244
0.0857908
0.0858643
0.085945
0.0860331
0.0861289
0.0862325
0.0863442
0.086464
0.0865923
0.0867293
0.0868738
0.0870233
0.087176
0.0873317
0.0874902
0.0876513
0.0878149
0.0879811
0.0881498
0.088321
0.088495
0.0886718
0.0888515
0.0890345
0.0892208
0.0894107
0.0896043
0.0898019
0.0900038
0.0902099
0.0904205
0.0906357
0.0908556
0.0910802
0.0913094
0.0915433
0.0917817
0.0920246
0.0922717
0.0925228
0.0927778
0.0930362
0.0932979
0.0935625
0.0938296
0.0940987
0.0943694
0.0946414
0.094914
0.0951867
0.095459
0.0957303
0.0960002
0.096268
0.0965332
0.0967954
0.0970542
0.0973092
0.0975601
0.0978067
0.0980488
0.0982864
0.0985194
0.0987479
0.0989721
0.0991921
0.0994083
0.0996208
0.09983
0.100036
0.10024
0.100441
0.100641
0.100839
0.101036
0.0855206
0.0854911
0.0854661
0.0854457
0.0854301
0.0854195
0.0854139
0.0854134
0.0854183
0.0854287
0.0854446
0.0854663
0.0854939
0.0855276
0.0855675
0.0856137
0.0856665
0.085726
0.0857924
0.0858659
0.0859466
0.0860347
0.0861305
0.0862341
0.0863457
0.0864655
0.0865938
0.0867308
0.0868753
0.0870247
0.0871774
0.0873331
0.0874916
0.0876527
0.0878163
0.0879825
0.0881512
0.0883224
0.0884964
0.0886732
0.088853
0.089036
0.0892223
0.0894123
0.089606
0.0898037
0.0900055
0.0902117
0.0904224
0.0906377
0.0908576
0.0910822
0.0913114
0.0915453
0.0917837
0.0920266
0.0922736
0.0925247
0.0927796
0.0930379
0.0932995
0.0935638
0.0938306
0.0940995
0.0943699
0.0946414
0.0949135
0.0951856
0.0954572
0.0957278
0.0959968
0.0962637
0.096528
0.0967892
0.0970469
0.0973007
0.0975505
0.0977958
0.0980367
0.0982729
0.0985046
0.0987318
0.0989547
0.0991733
0.099388
0.099599
0.0998066
0.100011
0.100213
0.100413
0.10061
0.100806
0.101001
0.0855222
0.0854927
0.0854677
0.0854473
0.0854318
0.0854211
0.0854155
0.0854151
0.0854199
0.0854303
0.0854462
0.0854679
0.0854955
0.0855292
0.0855691
0.0856153
0.0856681
0.0857276
0.085794
0.0858674
0.0859481
0.0860362
0.086132
0.0862356
0.0863472
0.086467
0.0865953
0.0867322
0.0868767
0.0870262
0.0871789
0.0873345
0.087493
0.0876541
0.0878177
0.0879839
0.0881526
0.0883239
0.0884979
0.0886747
0.0888546
0.0890376
0.089224
0.0894139
0.0896077
0.0898055
0.0900074
0.0902136
0.0904244
0.0906397
0.0908596
0.0910842
0.0913135
0.0915474
0.0917859
0.0920287
0.0922757
0.0925267
0.0927815
0.0930397
0.0933011
0.0935653
0.0938318
0.0941004
0.0943704
0.0946414
0.094913
0.0951845
0.0954555
0.0957253
0.0959935
0.0962595
0.0965227
0.0967829
0.0970395
0.0972922
0.0975407
0.0977848
0.0980244
0.0982594
0.0984898
0.0987156
0.098937
0.0991542
0.0993674
0.0995769
0.0997829
0.0999858
0.100186
0.100383
0.100579
0.100772
0.100964
0.0855238
0.0854943
0.0854693
0.085449
0.0854334
0.0854227
0.0854171
0.0854167
0.0854216
0.0854319
0.0854479
0.0854696
0.0854972
0.0855308
0.0855707
0.0856169
0.0856697
0.0857292
0.0857955
0.085869
0.0859496
0.0860377
0.0861335
0.0862371
0.0863487
0.0864685
0.0865968
0.0867337
0.0868782
0.0870276
0.0871803
0.087336
0.0874944
0.0876555
0.0878192
0.0879853
0.0881541
0.0883254
0.0884994
0.0886763
0.0888561
0.0890392
0.0892256
0.0894157
0.0896095
0.0898073
0.0900093
0.0902156
0.0904264
0.0906418
0.0908617
0.0910864
0.0913157
0.0915496
0.0917881
0.0920308
0.0922778
0.0925288
0.0927835
0.0930416
0.0933028
0.0935668
0.0938331
0.0941013
0.0943709
0.0946415
0.0949125
0.0951834
0.0954537
0.0957227
0.09599
0.0962551
0.0965174
0.0967764
0.0970319
0.0972834
0.0975307
0.0977736
0.0980119
0.0982456
0.0984746
0.0986991
0.0989191
0.0991348
0.0993465
0.0995543
0.0997587
0.0999598
0.100158
0.100353
0.100547
0.100738
0.100927
0.0855254
0.0854959
0.0854709
0.0854506
0.085435
0.0854243
0.0854187
0.0854183
0.0854232
0.0854335
0.0854495
0.0854712
0.0854988
0.0855324
0.0855723
0.0856185
0.0856712
0.0857307
0.0857971
0.0858705
0.0859512
0.0860393
0.086135
0.0862385
0.0863501
0.08647
0.0865982
0.0867351
0.0868796
0.087029
0.0871817
0.0873374
0.0874959
0.087657
0.0878206
0.0879868
0.0881555
0.0883269
0.0885009
0.0886778
0.0888577
0.0890408
0.0892273
0.0894174
0.0896113
0.0898092
0.0900113
0.0902176
0.0904285
0.0906439
0.0908639
0.0910886
0.091318
0.0915519
0.0917903
0.0920331
0.0922801
0.0925309
0.0927855
0.0930435
0.0933046
0.0935683
0.0938343
0.0941022
0.0943714
0.0946415
0.094912
0.0951823
0.0954518
0.0957201
0.0959865
0.0962506
0.0965119
0.0967698
0.0970242
0.0972745
0.0975206
0.0977622
0.0979992
0.0982315
0.0984592
0.0986822
0.0989008
0.099115
0.0993251
0.0995313
0.0997339
0.0999332
0.100129
0.100323
0.100514
0.100702
0.100889
0.085527
0.0854975
0.0854725
0.0854522
0.0854366
0.085426
0.0854203
0.0854199
0.0854248
0.0854351
0.0854511
0.0854728
0.0855003
0.085534
0.0855738
0.08562
0.0856728
0.0857323
0.0857986
0.085872
0.0859527
0.0860408
0.0861365
0.08624
0.0863516
0.0864714
0.0865997
0.0867366
0.0868811
0.0870305
0.0871832
0.0873389
0.0874973
0.0876584
0.0878221
0.0879883
0.088157
0.0883284
0.0885025
0.0886794
0.0888594
0.0890425
0.0892291
0.0894192
0.0896132
0.0898112
0.0900133
0.0902197
0.0904307
0.0906461
0.0908662
0.091091
0.0913203
0.0915543
0.0917927
0.0920355
0.0922824
0.0925332
0.0927877
0.0930455
0.0933064
0.0935699
0.0938356
0.0941032
0.094372
0.0946416
0.0949115
0.0951811
0.0954499
0.0957173
0.0959829
0.096246
0.0965062
0.0967631
0.0970163
0.0972654
0.0975103
0.0977506
0.0979863
0.0982173
0.0984435
0.0986651
0.0988822
0.0990949
0.0993033
0.0995078
0.0997086
0.0999059
0.1001
0.100291
0.100479
0.100665
0.100849
0.0855285
0.0854991
0.0854741
0.0854538
0.0854382
0.0854276
0.0854219
0.0854215
0.0854264
0.0854367
0.0854527
0.0854743
0.0855019
0.0855355
0.0855754
0.0856216
0.0856744
0.0857338
0.0858001
0.0858735
0.0859542
0.0860423
0.086138
0.0862415
0.0863531
0.0864729
0.0866011
0.086738
0.0868825
0.0870319
0.0871846
0.0873403
0.0874988
0.0876599
0.0878235
0.0879897
0.0881585
0.0883299
0.088504
0.088681
0.088861
0.0890442
0.0892309
0.0894211
0.0896151
0.0898132
0.0900154
0.0902219
0.0904329
0.0906484
0.0908686
0.0910934
0.0913228
0.0915568
0.0917952
0.0920379
0.0922848
0.0925355
0.0927899
0.0930476
0.0933083
0.0935716
0.093837
0.0941041
0.0943725
0.0946416
0.0949109
0.0951799
0.0954479
0.0957145
0.0959791
0.0962413
0.0965005
0.0967562
0.0970083
0.0972562
0.0974998
0.0977388
0.0979731
0.0982027
0.0984276
0.0986477
0.0988632
0.0990743
0.0992811
0.0994838
0.0996827
0.0998779
0.10007
0.100259
0.100444
0.100627
0.100807
0.0855301
0.0855007
0.0854757
0.0854554
0.0854398
0.0854291
0.0854235
0.0854231
0.085428
0.0854383
0.0854542
0.0854759
0.0855035
0.0855371
0.085577
0.0856232
0.0856759
0.0857353
0.0858017
0.0858751
0.0859557
0.0860438
0.0861395
0.086243
0.0863546
0.0864744
0.0866026
0.0867395
0.086884
0.0870334
0.0871861
0.0873418
0.0875002
0.0876613
0.087825
0.0879912
0.08816
0.0883315
0.0885056
0.0886827
0.0888627
0.089046
0.0892327
0.089423
0.0896171
0.0898152
0.0900175
0.0902241
0.0904352
0.0906508
0.090871
0.0910959
0.0913253
0.0915593
0.0917977
0.0920404
0.0922873
0.0925379
0.0927922
0.0930498
0.0933102
0.0935733
0.0938384
0.0941051
0.0943731
0.0946416
0.0949103
0.0951786
0.0954459
0.0957116
0.0959753
0.0962365
0.0964946
0.0967492
0.0970001
0.0972468
0.0974891
0.0977268
0.0979597
0.0981879
0.0984113
0.0986299
0.0988439
0.0990533
0.0992583
0.0994592
0.099656
0.0998492
0.100039
0.100225
0.100408
0.100588
0.100765
0.0855317
0.0855023
0.0854773
0.085457
0.0854414
0.0854307
0.0854251
0.0854247
0.0854296
0.0854399
0.0854558
0.0854775
0.0855051
0.0855387
0.0855785
0.0856247
0.0856774
0.0857369
0.0858032
0.0858766
0.0859572
0.0860453
0.086141
0.0862445
0.086356
0.0864758
0.0866041
0.086741
0.0868854
0.0870348
0.0871875
0.0873432
0.0875017
0.0876628
0.0878265
0.0879928
0.0881616
0.088333
0.0885072
0.0886843
0.0888645
0.0890478
0.0892346
0.089425
0.0896192
0.0898174
0.0900197
0.0902264
0.0904376
0.0906533
0.0908735
0.0910984
0.0913279
0.0915619
0.0918004
0.0920431
0.0922898
0.0925404
0.0927946
0.093052
0.0933123
0.093575
0.0938398
0.0941062
0.0943736
0.0946417
0.0949097
0.0951773
0.0954438
0.0957086
0.0959714
0.0962315
0.0964886
0.0967421
0.0969917
0.0972372
0.0974781
0.0977145
0.0979461
0.0981728
0.0983947
0.0986118
0.0988241
0.0990318
0.099235
0.0994339
0.0996286
0.0998195
0.100007
0.10019
0.10037
0.100547
0.10072
0.0855333
0.0855039
0.0854789
0.0854586
0.085443
0.0854323
0.0854267
0.0854263
0.0854311
0.0854415
0.0854574
0.0854791
0.0855066
0.0855402
0.0855801
0.0856262
0.085679
0.0857384
0.0858047
0.0858781
0.0859587
0.0860468
0.0861424
0.086246
0.0863575
0.0864773
0.0866055
0.0867424
0.0868869
0.0870363
0.087189
0.0873447
0.0875032
0.0876643
0.087828
0.0879943
0.0881631
0.0883346
0.0885089
0.088686
0.0888662
0.0890496
0.0892365
0.089427
0.0896213
0.0898196
0.090022
0.0902288
0.09044
0.0906558
0.0908762
0.0911011
0.0913306
0.0915647
0.0918031
0.0920458
0.0922925
0.092543
0.0927971
0.0930543
0.0933143
0.0935768
0.0938413
0.0941072
0.0943742
0.0946417
0.0949091
0.0951759
0.0954416
0.0957056
0.0959674
0.0962265
0.0964824
0.0967348
0.0969832
0.0972274
0.097467
0.097702
0.0979322
0.0981574
0.0983777
0.0985932
0.0988038
0.0990097
0.099211
0.0994078
0.0996004
0.0997888
0.0999733
0.100154
0.100331
0.100504
0.100674
0.0855349
0.0855055
0.0854805
0.0854602
0.0854446
0.0854339
0.0854283
0.0854279
0.0854327
0.0854431
0.085459
0.0854806
0.0855082
0.0855418
0.0855816
0.0856278
0.0856805
0.0857399
0.0858062
0.0858796
0.0859602
0.0860482
0.0861439
0.0862474
0.086359
0.0864788
0.086607
0.0867439
0.0868884
0.0870378
0.0871905
0.0873462
0.0875047
0.0876658
0.0878295
0.0879958
0.0881647
0.0883363
0.0885106
0.0886878
0.088868
0.0890515
0.0892385
0.089429
0.0896234
0.0898218
0.0900244
0.0902312
0.0904426
0.0906584
0.0908789
0.0911039
0.0913334
0.0915675
0.091806
0.0920486
0.0922953
0.0925457
0.0927996
0.0930567
0.0933165
0.0935787
0.0938428
0.0941083
0.0943748
0.0946417
0.0949084
0.0951745
0.0954394
0.0957025
0.0959633
0.0962213
0.0964761
0.0967273
0.0969745
0.0972174
0.0974557
0.0976893
0.0979179
0.0981417
0.0983604
0.0985742
0.098783
0.098987
0.0991863
0.099381
0.0995712
0.0997571
0.0999388
0.100116
0.10029
0.100459
0.100625
0.0855365
0.0855071
0.0854821
0.0854618
0.0854462
0.0854355
0.0854299
0.0854295
0.0854343
0.0854446
0.0854605
0.0854822
0.0855098
0.0855434
0.0855832
0.0856293
0.085682
0.0857414
0.0858077
0.0858811
0.0859617
0.0860497
0.0861454
0.0862489
0.0863604
0.0864802
0.0866085
0.0867453
0.0868898
0.0870392
0.0871919
0.0873476
0.0875062
0.0876673
0.0878311
0.0879974
0.0881663
0.0883379
0.0885122
0.0886895
0.0888699
0.0890534
0.0892405
0.0894311
0.0896256
0.0898241
0.0900268
0.0902338
0.0904452
0.0906611
0.0908816
0.0911067
0.0913364
0.0915705
0.0918089
0.0920515
0.0922982
0.0925485
0.0928023
0.0930591
0.0933187
0.0935806
0.0938443
0.0941094
0.0943754
0.0946417
0.0949078
0.0951731
0.0954371
0.0956993
0.0959591
0.0962161
0.0964697
0.0967197
0.0969656
0.0972072
0.0974441
0.0976762
0.0979034
0.0981256
0.0983426
0.0985546
0.0987616
0.0989637
0.0991608
0.0993532
0.0995409
0.0997241
0.0999029
0.100077
0.100247
0.100413
0.100574
0.0855381
0.0855087
0.0854837
0.0854634
0.0854478
0.0854371
0.0854315
0.0854311
0.0854359
0.0854462
0.0854621
0.0854838
0.0855113
0.0855449
0.0855847
0.0856309
0.0856836
0.085743
0.0858093
0.0858826
0.0859632
0.0860512
0.0861469
0.0862504
0.0863619
0.0864817
0.0866099
0.0867468
0.0868913
0.0870407
0.0871934
0.0873491
0.0875076
0.0876688
0.0878326
0.087999
0.0881679
0.0883396
0.088514
0.0886913
0.0888717
0.0890554
0.0892425
0.0894333
0.0896279
0.0898265
0.0900293
0.0902364
0.0904479
0.0906639
0.0908845
0.0911097
0.0913394
0.0915735
0.091812
0.0920546
0.0923011
0.0925514
0.092805
0.0930617
0.093321
0.0935826
0.093846
0.0941106
0.094376
0.0946417
0.0949071
0.0951716
0.0954348
0.095696
0.0959548
0.0962107
0.0964632
0.0967119
0.0969566
0.0971968
0.0974323
0.0976629
0.0978885
0.098109
0.0983244
0.0985346
0.0987396
0.0989395
0.0991344
0.0993244
0.0995095
0.0996898
0.0998654
0.100036
0.100203
0.100364
0.100521
0.0855398
0.0855103
0.0854853
0.085465
0.0854494
0.0854387
0.0854331
0.0854327
0.0854375
0.0854478
0.0854637
0.0854853
0.0855129
0.0855465
0.0855863
0.0856324
0.0856851
0.0857445
0.0858108
0.0858841
0.0859647
0.0860527
0.0861484
0.0862519
0.0863634
0.0864832
0.0866114
0.0867483
0.0868928
0.0870422
0.0871949
0.0873506
0.0875092
0.0876704
0.0878342
0.0880006
0.0881696
0.0883412
0.0885157
0.0886931
0.0888736
0.0890574
0.0892446
0.0894355
0.0896302
0.0898289
0.0900318
0.0902391
0.0904507
0.0906668
0.0908875
0.0911128
0.0913425
0.0915767
0.0918152
0.0920577
0.0923043
0.0925544
0.0928079
0.0930644
0.0933234
0.0935847
0.0938476
0.0941118
0.0943767
0.0946417
0.0949064
0.0951701
0.0954324
0.0956927
0.0959504
0.0962052
0.0964565
0.096704
0.0969473
0.0971861
0.0974202
0.0976493
0.0978733
0.0980921
0.0983056
0.0985139
0.0987168
0.0989146
0.0991071
0.0992945
0.0994767
0.099654
0.0998262
0.0999935
0.100156
0.100313
0.100465
0.0855414
0.0855119
0.0854869
0.0854666
0.085451
0.0854404
0.0854347
0.0854343
0.0854391
0.0854494
0.0854653
0.0854869
0.0855145
0.085548
0.0855878
0.085634
0.0856866
0.085746
0.0858123
0.0858856
0.0859662
0.0860542
0.0861499
0.0862533
0.0863649
0.0864846
0.0866129
0.0867497
0.0868942
0.0870437
0.0871964
0.0873521
0.0875107
0.0876719
0.0878357
0.0880022
0.0881712
0.088343
0.0885175
0.088695
0.0888756
0.0890595
0.0892468
0.0894378
0.0896326
0.0898315
0.0900345
0.0902418
0.0904536
0.0906698
0.0908906
0.091116
0.0913458
0.09158
0.0918185
0.092061
0.0923075
0.0925575
0.0928109
0.0930671
0.0933259
0.0935869
0.0938494
0.0941131
0.0943774
0.0946418
0.0949057
0.0951686
0.09543
0.0956893
0.095946
0.0961996
0.0964497
0.0966959
0.0969378
0.0971752
0.0974077
0.0976353
0.0978576
0.0980746
0.0982862
0.0984925
0.0986933
0.0988886
0.0990786
0.0992632
0.0994425
0.0996165
0.0997852
0.0999485
0.100106
0.100259
0.100406
0.0855431
0.0855136
0.0854886
0.0854682
0.0854527
0.085442
0.0854364
0.0854359
0.0854407
0.085451
0.0854669
0.0854885
0.085516
0.0855496
0.0855894
0.0856355
0.0856882
0.0857475
0.0858138
0.0858871
0.0859677
0.0860557
0.0861513
0.0862548
0.0863663
0.0864861
0.0866143
0.0867512
0.0868957
0.0870451
0.0871979
0.0873536
0.0875122
0.0876735
0.0878373
0.0880038
0.0881729
0.0883447
0.0885193
0.0886969
0.0888776
0.0890616
0.089249
0.0894401
0.0896351
0.0898341
0.0900372
0.0902447
0.0904566
0.090673
0.0908939
0.0911193
0.0913492
0.0915834
0.0918219
0.0920645
0.0923109
0.0925608
0.092814
0.09307
0.0933285
0.0935891
0.0938512
0.0941144
0.0943781
0.0946418
0.094905
0.0951671
0.0954275
0.0956858
0.0959414
0.0961939
0.0964427
0.0966876
0.0969281
0.097164
0.097395
0.0976208
0.0978414
0.0980565
0.0982662
0.0984703
0.0986688
0.0988616
0.0990489
0.0992306
0.0994067
0.0995772
0.099742
0.0999011
0.100054
0.100202
0.100343
0.0857034
0.0856579
0.0856163
0.0855785
0.0855447
0.0855152
0.0854902
0.0854699
0.0854543
0.0854436
0.085438
0.0854375
0.0854423
0.0854526
0.0854685
0.0854901
0.0855176
0.0855512
0.0855909
0.085637
0.0856897
0.0857491
0.0858153
0.0858886
0.0859692
0.0860572
0.0861528
0.0862563
0.0863678
0.0864876
0.0866158
0.0867527
0.0868972
0.0870466
0.0871994
0.0873551
0.0875137
0.087675
0.0878389
0.0880054
0.0881746
0.0883465
0.0885212
0.0886988
0.0888796
0.0890637
0.0892513
0.0894426
0.0896377
0.0898368
0.0900401
0.0902477
0.0904597
0.0906762
0.0908972
0.0911227
0.0913527
0.091587
0.0918255
0.092068
0.0923144
0.0925642
0.0928172
0.093073
0.0933313
0.0935915
0.0938531
0.0941158
0.0943789
0.0946419
0.0949043
0.0951656
0.095425
0.0956823
0.0959368
0.096188
0.0964356
0.0966791
0.0969182
0.0971525
0.0973819
0.097606
0.0978247
0.0980379
0.0982454
0.0984472
0.0986432
0.0988334
0.0990178
0.0991964
0.099369
0.0995358
0.0996965
0.0998512
0.0999998
0.100142
0.100278
0.0857051
0.0856596
0.0856179
0.0855801
0.0855464
0.0855169
0.0854919
0.0854716
0.085456
0.0854453
0.0854396
0.0854391
0.085444
0.0854542
0.0854701
0.0854917
0.0855192
0.0855527
0.0855925
0.0856386
0.0856913
0.0857506
0.0858168
0.0858902
0.0859707
0.0860587
0.0861543
0.0862578
0.0863693
0.0864891
0.0866173
0.0867542
0.0868987
0.0870481
0.0872009
0.0873567
0.0875153
0.0876766
0.0878405
0.0880071
0.0881763
0.0883483
0.0885231
0.0887008
0.0888817
0.0890659
0.0892537
0.089445
0.0896403
0.0898396
0.090043
0.0902508
0.090463
0.0906796
0.0909007
0.0911263
0.0913564
0.0915907
0.0918293
0.0920718
0.092318
0.0925677
0.0928206
0.0930762
0.0933341
0.0935939
0.0938552
0.0941173
0.0943798
0.0946421
0.0949037
0.095164
0.0954225
0.0956787
0.095932
0.096182
0.0964283
0.0966704
0.0969079
0.0971407
0.0973683
0.0975906
0.0978074
0.0980184
0.0982237
0.0984231
0.0986165
0.0988039
0.0989852
0.0991604
0.0993294
0.0994922
0.0996486
0.0997985
0.0999419
0.100078
0.100208
0.0857068
0.0856613
0.0856195
0.0855817
0.085548
0.0855186
0.0854936
0.0854732
0.0854576
0.0854469
0.0854413
0.0854408
0.0854456
0.0854559
0.0854717
0.0854933
0.0855208
0.0855543
0.0855941
0.0856402
0.0856928
0.0857522
0.0858184
0.0858917
0.0859722
0.0860602
0.0861558
0.0862593
0.0863708
0.0864905
0.0866188
0.0867557
0.0869002
0.0870496
0.0872024
0.0873582
0.0875168
0.0876782
0.0878422
0.0880088
0.0881781
0.0883501
0.088525
0.0887029
0.0888839
0.0890682
0.0892561
0.0894476
0.089643
0.0898425
0.0900461
0.090254
0.0904663
0.0906831
0.0909044
0.0911301
0.0913602
0.0915946
0.0918332
0.0920757
0.0923219
0.0925715
0.0928241
0.0930795
0.0933371
0.0935965
0.0938573
0.0941188
0.0943807
0.0946423
0.094903
0.0951625
0.09542
0.095675
0.0959272
0.0961759
0.0964208
0.0966614
0.0968974
0.0971284
0.0973543
0.0975746
0.0977893
0.0979982
0.0982011
0.0983979
0.0985885
0.0987729
0.0989509
0.0991225
0.0992876
0.0994461
0.0995979
0.0997428
0.0998807
0.100011
0.100135
0.0858666
0.0858105
0.0857578
0.0857085
0.0856629
0.0856212
0.0855834
0.0855497
0.0855202
0.0854953
0.0854749
0.0854593
0.0854486
0.0854429
0.0854424
0.0854472
0.0854575
0.0854733
0.0854949
0.0855224
0.0855559
0.0855956
0.0856417
0.0856944
0.0857537
0.0858199
0.0858932
0.0859737
0.0860617
0.0861573
0.0862608
0.0863723
0.086492
0.0866203
0.0867571
0.0869017
0.0870511
0.0872039
0.0873597
0.0875184
0.0876798
0.0878438
0.0880105
0.0881799
0.088352
0.088527
0.088705
0.0888861
0.0890706
0.0892586
0.0894503
0.0896459
0.0898455
0.0900493
0.0902574
0.0904699
0.0906868
0.0909082
0.091134
0.0913642
0.0915987
0.0918373
0.0920798
0.0923259
0.0925754
0.0928278
0.0930829
0.0933402
0.0935992
0.0938595
0.0941205
0.0943817
0.0946425
0.0949024
0.0951609
0.0954174
0.0956713
0.0959222
0.0961696
0.096413
0.0966521
0.0968865
0.0971158
0.0973397
0.097558
0.0977706
0.0979771
0.0981774
0.0983715
0.0985591
0.0987402
0.0989147
0.0990824
0.0992434
0.0993973
0.0995441
0.0996837
0.0998158
0.0999402
0.100057
0.0858685
0.0858123
0.0857595
0.0857102
0.0856646
0.0856229
0.085585
0.0855513
0.0855219
0.085497
0.0854766
0.085461
0.0854503
0.0854446
0.0854441
0.0854489
0.0854591
0.085475
0.0854965
0.085524
0.0855575
0.0855972
0.0856433
0.0856959
0.0857553
0.0858215
0.0858947
0.0859753
0.0860632
0.0861588
0.0862623
0.0863738
0.0864935
0.0866217
0.0867586
0.0869032
0.0870526
0.0872055
0.0873613
0.08752
0.0876814
0.0878455
0.0880123
0.0881817
0.0883539
0.088529
0.0887071
0.0888884
0.089073
0.0892612
0.0894531
0.0896488
0.0898486
0.0900526
0.0902609
0.0904735
0.0906906
0.0909122
0.0911381
0.0913684
0.091603
0.0918416
0.092084
0.0923301
0.0925794
0.0928317
0.0930866
0.0933435
0.0936021
0.0938619
0.0941223
0.0943828
0.0946428
0.0949019
0.0951594
0.0954147
0.0956675
0.0959171
0.0961631
0.0964051
0.0966425
0.0968752
0.0971026
0.0973245
0.0975407
0.0977509
0.0979549
0.0981525
0.0983436
0.0985281
0.0987057
0.0988764
0.09904
0.0991965
0.0993456
0.0994872
0.0996211
0.099747
0.0998647
0.099974
0.0858703
0.085814
0.0857612
0.0857119
0.0856663
0.0856245
0.0855867
0.085553
0.0855236
0.0854987
0.0854783
0.0854627
0.085452
0.0854463
0.0854458
0.0854506
0.0854608
0.0854766
0.0854982
0.0855256
0.0855591
0.0855988
0.0856449
0.0856975
0.0857568
0.085823
0.0858963
0.0859768
0.0860647
0.0861603
0.0862638
0.0863753
0.086495
0.0866233
0.0867602
0.0869047
0.0870542
0.087207
0.0873629
0.0875216
0.0876831
0.0878473
0.0880141
0.0881836
0.0883559
0.0885311
0.0887093
0.0888908
0.0890756
0.0892639
0.089456
0.0896519
0.0898519
0.0900561
0.0902645
0.0904774
0.0906947
0.0909164
0.0911424
0.0913729
0.0916075
0.0918461
0.0920886
0.0923345
0.0925838
0.0928358
0.0930904
0.093347
0.0936052
0.0938644
0.0941242
0.094384
0.0946432
0.0949014
0.0951578
0.0954121
0.0956636
0.0959119
0.0961565
0.0963968
0.0966326
0.0968634
0.0970889
0.0973087
0.0975226
0.0977303
0.0979316
0.0981263
0.0983142
0.0984953
0.0986692
0.0988358
0.0989951
0.0991468
0.0992907
0.0994267
0.0995546
0.099674
0.0997847
0.0998865
0.0858721
0.0858158
0.0857629
0.0857136
0.085668
0.0856262
0.0855884
0.0855547
0.0855253
0.0855004
0.08548
0.0854644
0.0854537
0.085448
0.0854475
0.0854523
0.0854625
0.0854783
0.0854998
0.0855273
0.0855608
0.0856005
0.0856465
0.0856991
0.0857584
0.0858246
0.0858978
0.0859783
0.0860663
0.0861619
0.0862653
0.0863768
0.0864965
0.0866248
0.0867617
0.0869062
0.0870557
0.0872086
0.0873645
0.0875233
0.0876848
0.087849
0.0880159
0.0881855
0.0883579
0.0885333
0.0887116
0.0888932
0.0890782
0.0892667
0.089459
0.0896551
0.0898553
0.0900597
0.0902684
0.0904814
0.0906989
0.0909207
0.091147
0.0913775
0.0916122
0.0918509
0.0920933
0.0923392
0.0925883
0.0928402
0.0930945
0.0933507
0.0936084
0.0938671
0.0941263
0.0943853
0.0946437
0.0949009
0.0951563
0.0954094
0.0956596
0.0959065
0.0961495
0.0963883
0.0966223
0.0968511
0.0970745
0.097292
0.0975035
0.0977085
0.097907
0.0980986
0.0982831
0.0984605
0.0986304
0.0987928
0.0989473
0.099094
0.0992324
0.0993625
0.099484
0.0995965
0.0996999
0.0997938
0.0858739
0.0858175
0.0857646
0.0857153
0.0856697
0.0856279
0.0855901
0.0855565
0.0855271
0.0855021
0.0854818
0.0854662
0.0854554
0.0854497
0.0854492
0.0854539
0.0854642
0.08548
0.0855015
0.0855289
0.0855624
0.0856021
0.0856481
0.0857007
0.08576
0.0858262
0.0858994
0.0859799
0.0860678
0.0861634
0.0862668
0.0863783
0.0864981
0.0866263
0.0867632
0.0869078
0.0870573
0.0872102
0.0873661
0.0875249
0.0876865
0.0878508
0.0880178
0.0881875
0.08836
0.0885355
0.088714
0.0888958
0.0890809
0.0892697
0.0894621
0.0896585
0.0898589
0.0900635
0.0902724
0.0904857
0.0907033
0.0909254
0.0911518
0.0913824
0.0916172
0.0918559
0.0920983
0.0923441
0.0925931
0.0928448
0.0930988
0.0933546
0.0936119
0.09387
0.0941285
0.0943868
0.0946443
0.0949005
0.0951548
0.0954066
0.0956555
0.0959009
0.0961424
0.0963793
0.0966114
0.0968382
0.0970594
0.0972745
0.0974833
0.0976856
0.0978809
0.0980692
0.0982502
0.0984236
0.0985892
0.098747
0.0988966
0.0990378
0.0991704
0.0992942
0.0994089
0.0995143
0.0996099
0.0996955
0.0858757
0.0858193
0.0857664
0.0857171
0.0856714
0.0856297
0.0855919
0.0855582
0.0855288
0.0855039
0.0854835
0.0854679
0.0854572
0.0854515
0.0854509
0.0854557
0.0854659
0.0854816
0.0855032
0.0855306
0.085564
0.0856037
0.0856497
0.0857023
0.0857616
0.0858277
0.085901
0.0859815
0.0860694
0.086165
0.0862684
0.0863799
0.0864996
0.0866278
0.0867648
0.0869093
0.0870589
0.0872118
0.0873678
0.0875266
0.0876883
0.0878526
0.0880197
0.0881895
0.0883622
0.0885378
0.0887165
0.0888985
0.0890838
0.0892727
0.0894654
0.089662
0.0898627
0.0900675
0.0902767
0.0904902
0.090708
0.0909302
0.0911568
0.0913876
0.0916224
0.0918612
0.0921036
0.0923494
0.0925982
0.0928496
0.0931033
0.0933588
0.0936155
0.0938731
0.0941309
0.0943883
0.0946449
0.0949001
0.0951532
0.0954038
0.0956513
0.0958952
0.0961349
0.09637
0.0966001
0.0968247
0.0970435
0.097256
0.0974621
0.0976612
0.0978533
0.098038
0.0982151
0.0983843
0.0985454
0.0986982
0.0988425
0.098978
0.0991045
0.0992216
0.0993292
0.099427
0.0995145
0.0995914
0.0858775
0.0858211
0.0857681
0.0857188
0.0856732
0.0856314
0.0855936
0.0855599
0.0855306
0.0855056
0.0854853
0.0854697
0.0854589
0.0854532
0.0854526
0.0854574
0.0854676
0.0854833
0.0855049
0.0855323
0.0855657
0.0856054
0.0856514
0.0857039
0.0857632
0.0858293
0.0859026
0.085983
0.0860709
0.0861665
0.0862699
0.0863814
0.0865012
0.0866294
0.0867663
0.0869109
0.0870605
0.0872134
0.0873694
0.0875284
0.0876901
0.0878545
0.0880217
0.0881916
0.0883645
0.0885402
0.0887191
0.0889012
0.0890868
0.089276
0.0894689
0.0896658
0.0898667
0.0900718
0.0902812
0.0904949
0.090713
0.0909354
0.0911621
0.091393
0.091628
0.0918668
0.0921092
0.0923549
0.0926035
0.0928547
0.0931081
0.0933632
0.0936194
0.0938764
0.0941334
0.0943901
0.0946457
0.0948998
0.0951517
0.0954009
0.0956469
0.0958891
0.096127
0.0963602
0.0965881
0.0968104
0.0970266
0.0972364
0.0974395
0.0976354
0.0978239
0.0980048
0.0981777
0.0983424
0.0984987
0.0986463
0.0987849
0.0989143
0.0990343
0.0991445
0.0992446
0.0993343
0.0994133
0.0994812
0.0858793
0.0858228
0.0857699
0.0857205
0.0856749
0.0856331
0.0855953
0.0855617
0.0855323
0.0855074
0.085487
0.0854714
0.0854607
0.0854549
0.0854544
0.0854591
0.0854693
0.0854851
0.0855066
0.0855339
0.0855674
0.085607
0.085653
0.0857056
0.0857648
0.085831
0.0859042
0.0859846
0.0860725
0.0861681
0.0862715
0.086383
0.0865027
0.086631
0.0867679
0.0869125
0.0870621
0.0872151
0.0873711
0.0875301
0.0876919
0.0878565
0.0880238
0.0881938
0.0883668
0.0885427
0.0887218
0.0889042
0.08909
0.0892794
0.0894726
0.0896697
0.0898709
0.0900762
0.0902859
0.0904999
0.0907182
0.0909408
0.0911678
0.0913988
0.0916339
0.0918727
0.0921151
0.0923607
0.0926092
0.0928602
0.0931132
0.0933679
0.0936236
0.0938799
0.0941362
0.0943919
0.0946466
0.0948995
0.0951501
0.0953979
0.0956423
0.0958828
0.0961188
0.0963498
0.0965755
0.0967953
0.0970088
0.0972156
0.0974154
0.0976079
0.0977926
0.0979694
0.0981379
0.0982978
0.0984489
0.0985909
0.0987236
0.0988466
0.0989596
0.0990624
0.0991547
0.0992361
0.0993062
0.0993647
0.0858811
0.0858246
0.0857716
0.0857223
0.0856766
0.0856349
0.0855971
0.0855634
0.0855341
0.0855092
0.0854888
0.0854732
0.0854624
0.0854567
0.0854561
0.0854609
0.085471
0.0854868
0.0855083
0.0855357
0.0855691
0.0856087
0.0856547
0.0857072
0.0857665
0.0858326
0.0859058
0.0859862
0.0860741
0.0861697
0.0862731
0.0863846
0.0865043
0.0866326
0.0867695
0.0869141
0.0870638
0.0872168
0.0873729
0.087532
0.0876938
0.0878585
0.0880259
0.0881961
0.0883692
0.0885454
0.0887247
0.0889072
0.0890933
0.089283
0.0894764
0.0896738
0.0898753
0.090081
0.0902909
0.0905052
0.0907237
0.0909466
0.0911737
0.0914049
0.0916401
0.091879
0.0921214
0.0923669
0.0926153
0.092866
0.0931187
0.0933729
0.0936281
0.0938837
0.0941392
0.094394
0.0946475
0.0948992
0.0951485
0.0953948
0.0956375
0.0958761
0.0961101
0.0963389
0.0965621
0.0967792
0.0969898
0.0971934
0.0973898
0.0975785
0.0977592
0.0979316
0.0980954
0.0982502
0.0983958
0.0985319
0.0986582
0.0987744
0.0988802
0.0989753
0.0990594
0.099132
0.0991929
0.0992416
0.0858828
0.0858263
0.0857734
0.085724
0.0856784
0.0856366
0.0855988
0.0855652
0.0855359
0.0855109
0.0854906
0.085475
0.0854642
0.0854585
0.0854579
0.0854626
0.0854728
0.0854885
0.08551
0.0855374
0.0855708
0.0856104
0.0856564
0.0857089
0.0857681
0.0858342
0.0859074
0.0859878
0.0860757
0.0861713
0.0862747
0.0863862
0.0865059
0.0866342
0.0867711
0.0869158
0.0870655
0.0872185
0.0873747
0.0875339
0.0876958
0.0878606
0.0880281
0.0881985
0.0883718
0.0885482
0.0887277
0.0889105
0.0890968
0.0892868
0.0894805
0.0896782
0.08988
0.090086
0.0902962
0.0905108
0.0907296
0.0909527
0.0911801
0.0914115
0.0916467
0.0918857
0.0921281
0.0923735
0.0926217
0.0928722
0.0931245
0.0933782
0.0936328
0.0938877
0.0941424
0.0943962
0.0946486
0.094899
0.0951469
0.0953915
0.0956324
0.0958691
0.0961008
0.0963272
0.0965478
0.096762
0.0969695
0.0971698
0.0973625
0.0975472
0.0977235
0.0978913
0.09805
0.0981994
0.0983391
0.098469
0.0985886
0.0986976
0.0987958
0.0988828
0.0989583
0.0990218
0.0990731
0.0991117
0.0858846
0.0858281
0.0857751
0.0857257
0.0856801
0.0856384
0.0856006
0.085567
0.0855376
0.0855127
0.0854924
0.0854768
0.085466
0.0854603
0.0854597
0.0854644
0.0854746
0.0854903
0.0855118
0.0855391
0.0855725
0.0856121
0.0856581
0.0857106
0.0857698
0.0858359
0.0859091
0.0859895
0.0860774
0.0861729
0.0862763
0.0863878
0.0865076
0.0866358
0.0867728
0.0869175
0.0870672
0.0872203
0.0873766
0.0875358
0.0876979
0.0878628
0.0880305
0.088201
0.0883745
0.0885511
0.0887308
0.0889139
0.0891005
0.0892908
0.0894849
0.0896829
0.089885
0.0900913
0.0903019
0.0905167
0.0907359
0.0909592
0.0911868
0.0914184
0.0916538
0.0918928
0.0921352
0.0923805
0.0926285
0.0928787
0.0931307
0.0933839
0.0936379
0.093892
0.0941458
0.0943986
0.0946498
0.0948989
0.0951452
0.0953881
0.0956271
0.0958616
0.096091
0.0963148
0.0965325
0.0967437
0.0969478
0.0971445
0.0973332
0.0975136
0.0976854
0.0978481
0.0980014
0.0981451
0.0982787
0.0984019
0.0985144
0.098616
0.0987062
0.0987847
0.0988513
0.0989054
0.0989467
0.0989749
0.0858864
0.0858298
0.0857768
0.0857275
0.0856819
0.0856401
0.0856024
0.0855687
0.0855394
0.0855145
0.0854942
0.0854786
0.0854678
0.0854621
0.0854615
0.0854662
0.0854763
0.0854921
0.0855135
0.0855409
0.0855742
0.0856138
0.0856598
0.0857123
0.0857715
0.0858376
0.0859107
0.0859912
0.086079
0.0861746
0.086278
0.0863895
0.0865092
0.0866375
0.0867745
0.0869192
0.087069
0.0872222
0.0873785
0.0875378
0.0877
0.0878651
0.0880329
0.0882037
0.0883774
0.0885542
0.0887342
0.0889176
0.0891045
0.0892951
0.0894895
0.0896879
0.0898903
0.090097
0.0903079
0.0905231
0.0907425
0.0909662
0.091194
0.0914257
0.0916613
0.0919004
0.0921427
0.092388
0.0926358
0.0928857
0.0931373
0.09339
0.0936433
0.0938967
0.0941495
0.0944012
0.0946511
0.0948987
0.0951433
0.0953844
0.0956213
0.0958535
0.0960804
0.0963015
0.0965162
0.0967241
0.0969246
0.0971173
0.0973018
0.0974777
0.0976445
0.097802
0.0979496
0.0980871
0.0982142