/*--------------------------------*- C++ -*----------------------------------*\
  =========                 |
  \\      /  F ield         | OpenFOAM: The Open Source CFD Toolbox
   \\    /   O peration     | Website:  https://openfoam.org
    \\  /    A nd           | Version:  10
     \\/     M anipulation  |
\*---------------------------------------------------------------------------*/
FoamFile
{
    format      ascii;
    class       volScalarField;
    location    "3000";
    object      k;
}
// * * * * * * * * * * * * * * * * * * * * * * * * * * * * * * * * * * * * * //

dimensions      [0 2 -2 0 0 0 0];

internalField   nonuniform List<scalar> 
17808
(
0.0636329
0.0703646
0.0638579
0.0608249
0.0588877
0.0573389
0.0559629
0.0546806
0.053461
0.0522886
0.0511522
0.0500423
0.0489518
0.0478754
0.0468102
0.0457548
0.0447094
0.0436749
0.042653
0.0416456
0.0406547
0.0396825
0.0387308
0.0378013
0.0368954
0.0360143
0.0351587
0.0343291
0.0335256
0.0327482
0.0319963
0.0312694
0.0305664
0.0298862
0.0292277
0.0285898
0.027971
0.0273705
0.0267873
0.0262207
0.0256699
0.0251345
0.024614
0.0241076
0.0236147
0.0231345
0.0226661
0.0222086
0.0217612
0.0213231
0.0208937
0.0204725
0.020059
0.0196527
0.0192532
0.01886
0.0184728
0.0180914
0.0177157
0.0173454
0.0169803
0.0166205
0.0162656
0.0159156
0.0155703
0.0152298
0.0148939
0.0145625
0.0142356
0.0139132
0.0135951
0.0132813
0.0129719
0.0126668
0.0123659
0.0120692
0.0117767
0.0114884
0.0112043
0.0109244
0.0106486
0.0103768
0.0101092
0.00984569
0.00958623
0.00933081
0.00907944
0.00883208
0.00858872
0.00834933
0.00811389
0.00788242
0.063648
0.0703562
0.0638302
0.0608195
0.0588895
0.0573423
0.0559656
0.0546843
0.0534645
0.0522899
0.0511502
0.0500369
0.0489434
0.0478646
0.0467974
0.0457405
0.044694
0.0436588
0.0426363
0.0416286
0.0406376
0.0396654
0.0387138
0.0377846
0.036879
0.0359983
0.0351431
0.034314
0.0335111
0.0327342
0.0319829
0.0312565
0.030554
0.0298744
0.0292165
0.028579
0.0279608
0.0273608
0.026778
0.0262118
0.0256614
0.0251264
0.0246061
0.0240999
0.0236072
0.0231271
0.0226588
0.0222014
0.0217541
0.0213161
0.0208868
0.0204657
0.0200522
0.019646
0.0192466
0.0188536
0.0184665
0.0180852
0.0177094
0.0173391
0.0169741
0.0166141
0.0162591
0.015909
0.0155637
0.0152231
0.014887
0.0145555
0.0142285
0.0139059
0.0135877
0.0132739
0.0129643
0.012659
0.012358
0.0120612
0.0117686
0.0114802
0.011196
0.0109159
0.01064
0.0103681
0.0101004
0.00983677
0.0095772
0.0093217
0.00907023
0.0088228
0.00857936
0.00833991
0.00810442
0.00787288
0.0636789
0.070339
0.0637977
0.060791
0.0588654
0.0573223
0.0559491
0.0546708
0.053456
0.0522837
0.0511438
0.0500289
0.0489333
0.0478526
0.046784
0.045726
0.0446787
0.043643
0.0426202
0.0416124
0.0406214
0.0396494
0.038698
0.0377691
0.0368639
0.0359836
0.0351289
0.0343003
0.033498
0.0327216
0.0319709
0.031245
0.0305431
0.029864
0.0292065
0.0285695
0.0279517
0.0273521
0.0267698
0.026204
0.025654
0.0251192
0.0245992
0.0240932
0.0236006
0.0231206
0.0226524
0.022195
0.0217478
0.0213099
0.0208807
0.0204596
0.0200462
0.0196401
0.0192408
0.0188479
0.0184609
0.0180796
0.0177039
0.0173336
0.0169685
0.0166085
0.0162534
0.0159032
0.0155578
0.0152171
0.0148809
0.0145493
0.0142222
0.0138995
0.0135811
0.0132671
0.0129575
0.0126521
0.0123509
0.012054
0.0117613
0.0114728
0.0111884
0.0109083
0.0106322
0.0103603
0.0100924
0.0098287
0.00956904
0.00931345
0.0090619
0.00881439
0.0085709
0.00833139
0.00809585
0.0078643
0.0637035
0.0703321
0.063779
0.0607647
0.0588399
0.0572995
0.0559293
0.0546535
0.0534414
0.0522723
0.0511339
0.0500186
0.0489217
0.0478394
0.0467695
0.0457106
0.0446627
0.0436266
0.0426037
0.0415959
0.0406051
0.0396334
0.0386824
0.0377539
0.0368492
0.0359694
0.0351152
0.0342872
0.0334854
0.0327097
0.0319595
0.0312342
0.0305328
0.0298542
0.0291972
0.0285607
0.0279434
0.0273442
0.0267623
0.0261969
0.0256472
0.0251127
0.0245929
0.0240872
0.0235947
0.0231148
0.0226466
0.0221893
0.0217421
0.0213042
0.0208751
0.0204541
0.0200408
0.0196347
0.0192355
0.0188427
0.0184558
0.0180746
0.0176989
0.0173286
0.0169634
0.0166034
0.0162483
0.015898
0.0155525
0.0152116
0.0148754
0.0145436
0.0142164
0.0138936
0.0135751
0.013261
0.0129512
0.0126457
0.0123444
0.0120474
0.0117546
0.011466
0.0111815
0.0109012
0.0106251
0.010353
0.0100851
0.00982127
0.00956152
0.00930585
0.00905423
0.00880666
0.0085631
0.00832355
0.00808797
0.0078564
0.0637244
0.0703326
0.0637669
0.0607414
0.0588157
0.0572767
0.0559086
0.0546348
0.0534244
0.0522579
0.0511213
0.0500066
0.048909
0.0478255
0.0467544
0.0456946
0.0446461
0.0436097
0.0425867
0.0415791
0.0405886
0.0396171
0.0386666
0.0377386
0.0368345
0.0359553
0.0351017
0.0342744
0.0334732
0.0326981
0.0319485
0.0312238
0.0305229
0.0298449
0.0291885
0.0285524
0.0279356
0.0273369
0.0267554
0.0261903
0.025641
0.0251068
0.0245873
0.0240817
0.0235893
0.0231095
0.0226414
0.0221841
0.0217369
0.0212991
0.02087
0.0204491
0.0200358
0.0196298
0.0192307
0.018838
0.0184512
0.01807
0.0176944
0.017324
0.0169589
0.0165988
0.0162436
0.0158933
0.0155477
0.0152067
0.0148704
0.0145385
0.0142112
0.0138882
0.0135697
0.0132554
0.0129455
0.0126399
0.0123385
0.0120414
0.0117485
0.0114597
0.0111752
0.0108948
0.0106185
0.0103464
0.0100784
0.00981447
0.00955465
0.0092989
0.00904721
0.00879957
0.00855597
0.00831637
0.00808076
0.00784916
0.0637434
0.0703385
0.0637589
0.0607216
0.0587928
0.0572537
0.055887
0.0546148
0.0534055
0.0522411
0.0511065
0.0499929
0.0488952
0.0478109
0.0467387
0.0456781
0.0446291
0.0435924
0.0425695
0.0415619
0.0405718
0.0396008
0.0386508
0.0377233
0.0368198
0.0359413
0.0350884
0.0342617
0.0334613
0.0326868
0.0319379
0.0312138
0.0305136
0.0298361
0.0291802
0.0285446
0.0279283
0.02733
0.026749
0.0261843
0.0256353
0.0251015
0.0245821
0.0240767
0.0235845
0.0231047
0.0226366
0.0221794
0.0217323
0.0212945
0.0208655
0.0204446
0.0200314
0.0196255
0.0192264
0.0188337
0.018447
0.0180659
0.0176903
0.01732
0.0169548
0.0165947
0.0162395
0.015889
0.0155434
0.0152023
0.0148659
0.0145339
0.0142065
0.0138834
0.0135648
0.0132504
0.0129404
0.0126347
0.0123332
0.012036
0.0117429
0.0114541
0.0111695
0.010889
0.0106126
0.0103404
0.0100723
0.0098083
0.0095484
0.00929258
0.00904084
0.00879314
0.00854949
0.00830985
0.00807421
0.0078426
0.0637595
0.0703489
0.0637552
0.0607065
0.0587729
0.0572325
0.0558662
0.0545948
0.0533861
0.0522232
0.0510903
0.049978
0.0488806
0.0477958
0.0467229
0.0456615
0.044612
0.043575
0.0425521
0.0415447
0.0405549
0.0395844
0.0386349
0.0377081
0.0368052
0.0359274
0.0350753
0.0342493
0.0334496
0.0326758
0.0319276
0.0312042
0.0305046
0.0298277
0.0291723
0.0285373
0.0279215
0.0273237
0.0267431
0.0261788
0.0256301
0.0250966
0.0245775
0.0240722
0.0235801
0.0231004
0.0226324
0.0221752
0.0217281
0.0212904
0.0208614
0.0204406
0.0200274
0.0196216
0.0192226
0.01883
0.0184433
0.0180623
0.0176867
0.0173164
0.0169512
0.0165911
0.0162358
0.0158853
0.0155396
0.0151985
0.0148619
0.0145299
0.0142023
0.0138792
0.0135604
0.013246
0.0129359
0.01263
0.0123285
0.0120311
0.011738
0.0114491
0.0111643
0.0108837
0.0106073
0.010335
0.0100668
0.00980277
0.0095428
0.00928692
0.00903511
0.00878737
0.00854367
0.008304
0.00806833
0.0078367
0.0637726
0.0703629
0.0637557
0.0606962
0.0587571
0.0572143
0.0558474
0.0545761
0.0533675
0.0522053
0.0510736
0.0499624
0.0488656
0.0477807
0.0467071
0.0456451
0.044595
0.0435578
0.0425348
0.0415277
0.0405381
0.0395681
0.0386192
0.037693
0.0367908
0.0359137
0.0350623
0.0342371
0.0334381
0.0326651
0.0319176
0.0311949
0.0304959
0.0298197
0.0291649
0.0285304
0.0279151
0.0273178
0.0267376
0.0261737
0.0256254
0.0250922
0.0245733
0.0240682
0.0235762
0.0230966
0.0226286
0.0221715
0.0217244
0.0212867
0.0208578
0.020437
0.0200239
0.0196182
0.0192192
0.0188267
0.0184401
0.0180591
0.0176836
0.0173133
0.0169481
0.0165879
0.0162326
0.0158821
0.0155363
0.0151951
0.0148585
0.0145264
0.0141987
0.0138755
0.0135566
0.0132421
0.0129319
0.012626
0.0123243
0.0120269
0.0117337
0.0114446
0.0111598
0.0108791
0.0106026
0.0103303
0.010062
0.00979787
0.00953784
0.0092819
0.00903004
0.00878226
0.00853852
0.00829882
0.00806313
0.00783149
0.063783
0.0703798
0.0637599
0.0606903
0.0587453
0.0571993
0.055831
0.0545589
0.0533498
0.0521878
0.0510568
0.0499466
0.0488504
0.0477655
0.0466916
0.045629
0.0445784
0.0435409
0.0425179
0.0415109
0.0405217
0.039552
0.0386037
0.0376781
0.0367767
0.0359003
0.0350497
0.0342252
0.033427
0.0326548
0.031908
0.031186
0.0304877
0.029812
0.0291578
0.0285239
0.0279091
0.0273123
0.0267325
0.0261691
0.0256212
0.0250882
0.0245696
0.0240646
0.0235728
0.0230933
0.0226253
0.0221682
0.0217212
0.0212835
0.0208546
0.0204339
0.0200209
0.0196152
0.0192164
0.0188239
0.0184373
0.0180564
0.0176809
0.0173106
0.0169454
0.0165852
0.0162299
0.0158793
0.0155335
0.0151922
0.0148556
0.0145234
0.0141956
0.0138723
0.0135534
0.0132388
0.0129285
0.0126225
0.0123207
0.0120232
0.0117299
0.0114408
0.0111559
0.0108752
0.0105986
0.0103261
0.0100578
0.00979361
0.00953352
0.00927753
0.00902563
0.0087778
0.00853403
0.0082943
0.0080586
0.00782695
0.0637912
0.0703991
0.0637674
0.0606884
0.0587374
0.0571877
0.0558171
0.0545436
0.0533336
0.0521712
0.0510405
0.049931
0.0488353
0.0477506
0.0466764
0.0456133
0.0445623
0.0435246
0.0425014
0.0414945
0.0405056
0.0395364
0.0385886
0.0376636
0.0367629
0.0358872
0.0350373
0.0342137
0.0334162
0.0326447
0.0318987
0.0311774
0.0304797
0.0298047
0.0291512
0.0285178
0.0279035
0.0273072
0.0267279
0.0261648
0.0256173
0.0250846
0.0245662
0.0240615
0.0235698
0.0230903
0.0226225
0.0221654
0.0217184
0.0212808
0.0208519
0.0204313
0.0200184
0.0196128
0.019214
0.0188216
0.018435
0.0180541
0.0176786
0.0173084
0.0169432
0.016583
0.0162277
0.0158771
0.0155312
0.0151899
0.0148531
0.0145209
0.0141931
0.0138697
0.0135507
0.013236
0.0129256
0.0126195
0.0123177
0.0120201
0.0117267
0.0114376
0.0111526
0.0108718
0.0105951
0.0103226
0.0100543
0.00979
0.00952986
0.00927382
0.00902187
0.00877401
0.00853021
0.00829046
0.00805474
0.00782309
0.0637974
0.0704205
0.0637778
0.0606901
0.0587332
0.0571794
0.055806
0.0545305
0.0533191
0.0521558
0.051025
0.0499158
0.0488206
0.0477361
0.0466617
0.0455983
0.0445468
0.0435088
0.0424856
0.0414788
0.0404901
0.0395213
0.038574
0.0376496
0.0367495
0.0358745
0.0350254
0.0342025
0.0334058
0.0326351
0.0318898
0.0311692
0.0304722
0.0297979
0.0291449
0.0285121
0.0278983
0.0273025
0.0267237
0.0261611
0.0256139
0.0250815
0.0245634
0.0240588
0.0235672
0.0230878
0.02262
0.022163
0.021716
0.0212784
0.0208497
0.0204291
0.0200163
0.0196108
0.0192121
0.0188197
0.0184332
0.0180523
0.0176768
0.0173066
0.0169414
0.0165812
0.0162259
0.0158753
0.0155294
0.015188
0.0148512
0.0145189
0.0141911
0.0138676
0.0135485
0.0132338
0.0129233
0.0126172
0.0123153
0.0120176
0.0117242
0.011435
0.0111499
0.010869
0.0105923
0.0103198
0.0100513
0.00978703
0.00952684
0.00927076
0.00901877
0.00877087
0.00852704
0.00828727
0.00805155
0.0078199
0.0638018
0.0704439
0.0637911
0.0606951
0.0587326
0.0571744
0.0557977
0.0545197
0.0533065
0.052142
0.0510107
0.0499015
0.0488065
0.0477221
0.0466476
0.0455838
0.0445321
0.0434937
0.0424704
0.0414637
0.0404752
0.0395068
0.0385599
0.0376361
0.0367366
0.0358624
0.035014
0.0341918
0.0333959
0.0326259
0.0318814
0.0311614
0.0304652
0.0297914
0.029139
0.0285068
0.0278936
0.0272982
0.0267199
0.0261577
0.0256109
0.0250788
0.0245609
0.0240565
0.023565
0.0230858
0.022618
0.022161
0.0217141
0.0212766
0.0208479
0.0204274
0.0200148
0.0196094
0.0192107
0.0188183
0.0184317
0.0180509
0.0176754
0.0173052
0.0169401
0.0165799
0.0162246
0.015874
0.015528
0.0151866
0.0148498
0.0145175
0.0141896
0.0138661
0.0135469
0.0132321
0.0129216
0.0126154
0.0123134
0.0120157
0.0117222
0.0114329
0.0111478
0.0108669
0.0105901
0.0103175
0.0100491
0.0097847
0.00952447
0.00926834
0.00901631
0.00876838
0.00852452
0.00828473
0.00804901
0.00781737
0.0638046
0.0704691
0.0638068
0.0607031
0.0587351
0.0571725
0.0557921
0.0545113
0.0532959
0.0521299
0.0509977
0.0498882
0.0487932
0.0477088
0.0466342
0.0455702
0.0445181
0.0434795
0.042456
0.0414493
0.040461
0.0394929
0.0385465
0.0376233
0.0367244
0.0358508
0.0350031
0.0341817
0.0333865
0.0326172
0.0318734
0.0311542
0.0304585
0.0297854
0.0291336
0.028502
0.0278892
0.0272944
0.0267165
0.0261547
0.0256083
0.0250765
0.0245589
0.0240547
0.0235633
0.0230841
0.0226164
0.0221594
0.0217125
0.0212751
0.0208465
0.0204262
0.0200137
0.0196084
0.0192097
0.0188173
0.0184307
0.0180499
0.0176745
0.0173043
0.0169392
0.016579
0.0162237
0.0158731
0.0155271
0.0151857
0.0148489
0.0145165
0.0141886
0.013865
0.0135459
0.013231
0.0129204
0.0126142
0.0123122
0.0120144
0.0117209
0.0114315
0.0111464
0.0108654
0.0105886
0.0103159
0.0100474
0.00978301
0.00952273
0.00926656
0.00901449
0.0087665
0.00852261
0.00828281
0.00804709
0.0078155
0.063806
0.0704961
0.063825
0.0607139
0.0587406
0.0571734
0.0557893
0.0545053
0.0532876
0.0521198
0.0509864
0.0498763
0.048781
0.0476965
0.0466217
0.0455574
0.044505
0.0434661
0.0424425
0.0414358
0.0404477
0.0394799
0.0385339
0.0376111
0.0367128
0.0358399
0.0349929
0.0341721
0.0333776
0.0326091
0.0318659
0.0311474
0.0304524
0.0297799
0.0291287
0.0284976
0.0278854
0.0272911
0.0267136
0.0261522
0.0256061
0.0250747
0.0245572
0.0240532
0.0235619
0.0230828
0.0226151
0.0221582
0.0217114
0.0212741
0.0208456
0.0204255
0.0200131
0.0196078
0.0192091
0.0188167
0.0184302
0.0180493
0.0176739
0.0173038
0.0169387
0.0165786
0.0162232
0.0158727
0.0155267
0.0151853
0.0148485
0.0145161
0.0141881
0.0138645
0.0135453
0.0132304
0.0129198
0.0126135
0.0123115
0.0120137
0.0117201
0.0114307
0.0111455
0.0108645
0.0105877
0.010315
0.0100464
0.00978194
0.00952161
0.00926539
0.00901325
0.00876521
0.00852126
0.00828145
0.00804576
0.00781423
0.0638061
0.0705247
0.0638454
0.0607272
0.0587488
0.0571771
0.055789
0.0545018
0.0532816
0.0521116
0.0509768
0.0498658
0.04877
0.0476852
0.0466102
0.0455456
0.0444928
0.0434537
0.0424299
0.0414232
0.0404352
0.0394677
0.038522
0.0375998
0.036702
0.0358297
0.0349833
0.0341632
0.0333694
0.0326016
0.0318591
0.0311412
0.0304468
0.0297749
0.0291243
0.0284937
0.027882
0.0272882
0.0267112
0.0261502
0.0256044
0.0250732
0.024556
0.0240522
0.023561
0.0230819
0.0226143
0.0221575
0.0217107
0.0212735
0.0208452
0.0204252
0.0200129
0.0196077
0.019209
0.0188165
0.01843
0.0180492
0.0176738
0.0173037
0.0169387
0.0165785
0.0162232
0.0158727
0.0155267
0.0151854
0.0148485
0.0145161
0.0141882
0.0138646
0.0135453
0.0132304
0.0129198
0.0126135
0.0123114
0.0120135
0.0117199
0.0114305
0.0111453
0.0108642
0.0105873
0.0103146
0.010046
0.00978149
0.0095211
0.0092648
0.00901257
0.00876441
0.00852035
0.00828054
0.00804493
0.00781353
0.0638052
0.070555
0.063868
0.0607429
0.0587596
0.0571834
0.0557913
0.0545007
0.0532778
0.0521057
0.0509692
0.049857
0.0487605
0.0476752
0.0465998
0.0455348
0.0444817
0.0434423
0.0424183
0.0414115
0.0404237
0.0394563
0.0385111
0.0375893
0.036692
0.0358202
0.0349744
0.034155
0.0333618
0.0325946
0.0318528
0.0311355
0.0304418
0.0297705
0.0291204
0.0284903
0.0278791
0.0272857
0.0267092
0.0261486
0.0256031
0.0250723
0.0245553
0.0240515
0.0235605
0.0230815
0.0226139
0.0221571
0.0217105
0.0212734
0.0208453
0.0204255
0.0200132
0.0196079
0.0192092
0.0188168
0.0184303
0.0180495
0.0176742
0.0173041
0.016939
0.016579
0.0162237
0.0158731
0.0155272
0.0151859
0.0148491
0.0145167
0.0141887
0.0138651
0.0135459
0.0132309
0.0129203
0.0126139
0.0123118
0.012014
0.0117203
0.0114309
0.0111456
0.0108646
0.0105876
0.0103149
0.0100462
0.00978163
0.00952116
0.00926475
0.00901237
0.00876398
0.0085196
0.00827988
0.00804444
0.00781332
0.0638032
0.0705867
0.0638927
0.0607609
0.0587727
0.0571921
0.055796
0.054502
0.0532764
0.052102
0.0509637
0.0498501
0.0487526
0.0476666
0.0465907
0.0455253
0.0444718
0.043432
0.0424078
0.041401
0.0404132
0.039446
0.0385011
0.0375796
0.0366828
0.0358116
0.0349664
0.0341475
0.033355
0.0325884
0.0318472
0.0311305
0.0304374
0.0297666
0.029117
0.0284875
0.0278768
0.0272839
0.0267077
0.0261475
0.0256024
0.0250717
0.0245549
0.0240513
0.0235604
0.0230814
0.0226139
0.0221572
0.0217107
0.0212738
0.0208459
0.0204262
0.0200139
0.0196086
0.0192099
0.0188175
0.018431
0.0180502
0.0176749
0.0173048
0.0169398
0.0165798
0.0162246
0.0158741
0.0155282
0.0151869
0.0148501
0.0145177
0.0141897
0.0138662
0.0135469
0.013232
0.0129213
0.012615
0.0123129
0.012015
0.0117213
0.0114319
0.0111466
0.0108655
0.0105885
0.0103157
0.010047
0.00978235
0.00952177
0.00926522
0.00901264
0.00876382
0.0638003
0.0706199
0.0639192
0.0607811
0.0587881
0.0572031
0.0558031
0.0545057
0.0532774
0.0521006
0.0509603
0.0498451
0.0487464
0.0476596
0.046583
0.0455171
0.0444631
0.043423
0.0423986
0.0413916
0.0404037
0.0394367
0.038492
0.037571
0.0366746
0.0358038
0.0349592
0.0341409
0.0333489
0.0325829
0.0318423
0.0311262
0.0304336
0.0297634
0.0291143
0.0284853
0.027875
0.0272825
0.0267068
0.0261469
0.0256021
0.0250717
0.0245551
0.0240516
0.0235607
0.0230818
0.0226144
0.0221578
0.0217114
0.0212748
0.020847
0.0204273
0.0200151
0.0196098
0.0192111
0.0188186
0.0184322
0.0180514
0.0176761
0.017306
0.0169411
0.0165811
0.0162259
0.0158754
0.0155296
0.0151883
0.0148515
0.0145192
0.0141913
0.0138677
0.0135485
0.0132336
0.0129229
0.0126166
0.0123145
0.0120166
0.0117229
0.0114334
0.0111481
0.010867
0.01059
0.0103171
0.0100484
0.00978361
0.00952289
0.00926619
0.00901353
0.00876481
0.0637966
0.0706542
0.0639475
0.0608033
0.0588056
0.0572164
0.0558125
0.0545118
0.0532807
0.0521015
0.0509591
0.0498422
0.0487421
0.0476543
0.0465769
0.0455103
0.0444559
0.0434153
0.0423905
0.0413833
0.0403955
0.0394286
0.0384841
0.0375633
0.0366673
0.035797
0.0349529
0.0341351
0.0333437
0.0325783
0.0318382
0.0311226
0.0304305
0.0297608
0.0291122
0.0284836
0.0278738
0.0272817
0.0267064
0.0261468
0.0256023
0.0250721
0.0245556
0.0240523
0.0235615
0.0230826
0.0226152
0.0221588
0.0217126
0.0212762
0.0208486
0.0204289
0.0200166
0.0196113
0.0192126
0.0188202
0.0184337
0.018053
0.0176777
0.0173077
0.0169428
0.0165828
0.0162277
0.0158772
0.0155315
0.0151902
0.0148535
0.0145212
0.0141933
0.0138698
0.0135506
0.0132357
0.0129251
0.0126187
0.0123166
0.0120187
0.0117251
0.0114356
0.0111503
0.0108691
0.0105921
0.0103192
0.0100503
0.00978537
0.0095244
0.0092674
0.00901485
0.00876643
0.063792
0.0706898
0.0639775
0.0608274
0.0588253
0.0572319
0.0558242
0.0545202
0.0532864
0.0521048
0.0509603
0.0498415
0.0487399
0.0476508
0.0465725
0.0455051
0.0444501
0.043409
0.0423839
0.0413764
0.0403885
0.0394216
0.0384773
0.0375568
0.0366611
0.0357912
0.0349475
0.0341302
0.0333393
0.0325744
0.0318348
0.0311197
0.0304281
0.0297589
0.0291108
0.0284826
0.0278733
0.0272816
0.0267065
0.0261473
0.025603
0.025073
0.0245567
0.0240534
0.0235627
0.0230839
0.0226166
0.0221603
0.0217144
0.0212782
0.0208506
0.020431
0.0200187
0.0196133
0.0192146
0.0188222
0.0184357
0.018055
0.0176797
0.0173098
0.0169449
0.016585
0.0162299
0.0158795
0.0155338
0.0151926
0.0148559
0.0145237
0.0141958
0.0138723
0.0135532
0.0132383
0.0129277
0.0126214
0.0123193
0.0120215
0.0117278
0.0114383
0.011153
0.0108718
0.0105948
0.0103218
0.0100527
0.00978761
0.00952616
0.0637868
0.0707263
0.064009
0.0608533
0.0588469
0.0572495
0.0558381
0.0545308
0.0532944
0.0521105
0.0509638
0.0498431
0.0487398
0.0476494
0.0465699
0.0455017
0.0444459
0.0434043
0.0423787
0.0413709
0.0403828
0.0394159
0.0384717
0.0375514
0.036656
0.0357865
0.0349432
0.0341263
0.0333359
0.0325714
0.0318323
0.0311177
0.0304266
0.0297578
0.0291101
0.0284823
0.0278733
0.027282
0.0267073
0.0261483
0.0256043
0.0250745
0.0245583
0.024055
0.0235643
0.0230856
0.0226185
0.0221624
0.0217168
0.0212807
0.0208531
0.0204334
0.0200211
0.0196158
0.0192171
0.0188247
0.0184382
0.0180575
0.0176822
0.0173123
0.0169475
0.0165876
0.0162325
0.0158822
0.0155366
0.0151954
0.0148588
0.0145266
0.0141988
0.0138754
0.0135563
0.0132415
0.0129309
0.0126246
0.0123226
0.0120247
0.0117311
0.0114416
0.0111563
0.0108751
0.010598
0.010325
0.0100559
0.00979067
0.00952925
0.0637809
0.0707638
0.0640419
0.060881
0.0588705
0.0572692
0.0558543
0.0545439
0.0533049
0.0521185
0.0509698
0.0498471
0.048742
0.04765
0.0465694
0.0455001
0.0444435
0.0434012
0.042375
0.0413669
0.0403786
0.0394116
0.0384674
0.0375472
0.0366521
0.0357829
0.0349399
0.0341235
0.0333334
0.0325694
0.0318307
0.0311165
0.0304258
0.0297574
0.0291101
0.0284828
0.0278741
0.0272831
0.0267087
0.02615
0.0256061
0.0250765
0.0245603
0.0240571
0.0235664
0.0230878
0.0226208
0.022165
0.0217197
0.0212837
0.0208561
0.0204364
0.0200241
0.0196188
0.01922
0.0188276
0.0184411
0.0180604
0.0176852
0.0173153
0.0169505
0.0165907
0.0162357
0.0158854
0.0155398
0.0151987
0.0148622
0.0145301
0.0142023
0.0138789
0.0135599
0.0132451
0.0129346
0.0126284
0.0123264
0.0120286
0.011735
0.0114455
0.0111602
0.0108791
0.010602
0.0103289
0.0100597
0.00979452
0.00953317
0.0637743
0.070802
0.0640761
0.0609103
0.0588959
0.057291
0.0558726
0.0545592
0.0533177
0.0521291
0.0509782
0.0498534
0.0487465
0.0476529
0.0465709
0.0455005
0.0444429
0.0433998
0.0423731
0.0413645
0.0403758
0.0394087
0.0384645
0.0375444
0.0366495
0.0357804
0.0349378
0.0341217
0.033332
0.0325683
0.03183
0.0311162
0.0304259
0.0297579
0.0291109
0.0284839
0.0278756
0.0272849
0.0267107
0.0261522
0.0256086
0.025079
0.0245629
0.0240597
0.0235691
0.0230906
0.0226238
0.0221682
0.0217231
0.0212872
0.0208596
0.0204399
0.0200275
0.0196222
0.0192234
0.018831
0.0184445
0.0180638
0.0176886
0.0173187
0.016954
0.0165942
0.0162393
0.0158891
0.0155435
0.0152025
0.014866
0.014534
0.0142063
0.013883
0.013564
0.0132493
0.0129389
0.0126327
0.0123308
0.012033
0.0117394
0.01145
0.0111648
0.0108836
0.0106065
0.0103334
0.0100643
0.00979907
0.00953779
0.0637671
0.0708409
0.0641115
0.0609412
0.0589232
0.0573148
0.0558932
0.0545769
0.053333
0.0521421
0.050989
0.0498622
0.0487535
0.0476581
0.0465746
0.0455029
0.0444443
0.0434003
0.0423729
0.0413638
0.0403747
0.0394074
0.038463
0.0375429
0.0366481
0.0357793
0.0349369
0.0341211
0.0333317
0.0325684
0.0318304
0.0311169
0.0304269
0.0297592
0.0291126
0.0284859
0.0278778
0.0272874
0.0267135
0.0261551
0.0256116
0.025082
0.0245659
0.0240628
0.0235722
0.0230939
0.0226274
0.0221721
0.0217271
0.0212912
0.0208636
0.0204439
0.0200315
0.0196261
0.0192273
0.0188349
0.0184484
0.0180677
0.0176925
0.0173226
0.0169579
0.0165982
0.0162433
0.0158932
0.0155477
0.0152068
0.0148704
0.0145384
0.0142108
0.0138876
0.0135687
0.013254
0.0129437
0.0126376
0.0123357
0.012038
0.0117445
0.0114551
0.0111699
0.0108887
0.0106116
0.0103386
0.0100695
0.00980431
0.00954309
0.0637593
0.0708803
0.064148
0.0609735
0.0589523
0.0573406
0.055916
0.0545969
0.0533506
0.0521576
0.0510024
0.0498736
0.0487629
0.0476658
0.0465806
0.0455076
0.0444478
0.0434029
0.0423746
0.0413649
0.0403754
0.0394077
0.0384631
0.037543
0.0366482
0.0357795
0.0349373
0.0341217
0.0333325
0.0325695
0.0318318
0.0311186
0.0304289
0.0297614
0.0291151
0.0284887
0.0278809
0.0272906
0.0267169
0.0261587
0.0256152
0.0250857
0.0245696
0.0240665
0.023576
0.0230978
0.0226315
0.0221766
0.0217317
0.0212958
0.0208682
0.0204484
0.020036
0.0196305
0.0192317
0.0188393
0.0184528
0.0180721
0.0176969
0.017327
0.0169624
0.0166027
0.0162478
0.0158978
0.0155524
0.0152115
0.0148752
0.0145433
0.0142158
0.0138926
0.0135738
0.0132593
0.012949
0.012643
0.0123411
0.0120435
0.01175
0.0114607
0.0111756
0.0108945
0.0106174
0.0103444
0.0100753
0.00981019
0.00954904
0.0637509
0.0709201
0.0641855
0.0610073
0.0589831
0.0573685
0.0559409
0.0546193
0.0533708
0.0521756
0.0510184
0.0498875
0.0487748
0.0476759
0.0465891
0.0455146
0.0444536
0.0434076
0.0423784
0.0413679
0.0403778
0.0394097
0.0384649
0.0375446
0.0366498
0.0357811
0.034939
0.0341236
0.0333346
0.0325718
0.0318343
0.0311213
0.0304319
0.0297647
0.0291186
0.0284923
0.0278847
0.0272947
0.0267211
0.0261629
0.0256194
0.0250899
0.0245738
0.0240707
0.0235803
0.0231023
0.0226364
0.0221817
0.0217369
0.0213009
0.0208733
0.0204534
0.020041
0.0196355
0.0192367
0.0188442
0.0184577
0.018077
0.0177018
0.017332
0.0169673
0.0166076
0.0162529
0.0159029
0.0155575
0.0152168
0.0148805
0.0145487
0.0142213
0.0138982
0.0135795
0.013265
0.0129548
0.0126489
0.0123471
0.0120496
0.0117562
0.011467
0.0111818
0.0109008
0.0106238
0.0103508
0.0100818
0.00981671
0.00955562
0.063742
0.0709601
0.0642238
0.0610425
0.0590156
0.0573982
0.0559681
0.054644
0.0533934
0.0521962
0.051037
0.0499041
0.0487894
0.0476886
0.0466
0.045524
0.0444616
0.0434145
0.0423843
0.041373
0.0403823
0.0394136
0.0384685
0.0375479
0.036653
0.0357843
0.0349422
0.0341268
0.033338
0.0325753
0.031838
0.0311252
0.0304359
0.0297689
0.029123
0.0284969
0.0278895
0.0272995
0.026726
0.0261679
0.0256244
0.0250948
0.0245786
0.0240755
0.0235853
0.0231076
0.022642
0.0221874
0.0217426
0.0213067
0.0208789
0.020459
0.0200465
0.019641
0.0192421
0.0188496
0.0184631
0.0180824
0.0177072
0.0173374
0.0169727
0.0166131
0.0162584
0.0159084
0.0155632
0.0152225
0.0148863
0.0145546
0.0142273
0.0139043
0.0135857
0.0132713
0.0129612
0.0126553
0.0123537
0.0120562
0.0117629
0.0114737
0.0111887
0.0109077
0.0106308
0.0103578
0.0100889
0.00982385
0.00956283
0.0637325
0.0710004
0.0642627
0.0610788
0.0590497
0.05743
0.0559974
0.0546711
0.0534185
0.0522194
0.0510583
0.0499234
0.0488067
0.0477039
0.0466136
0.0455359
0.0444721
0.0434237
0.0423925
0.0413803
0.0403888
0.0394195
0.0384739
0.0375531
0.0366579
0.0357891
0.0349469
0.0341316
0.0333428
0.0325802
0.031843
0.0311303
0.0304411
0.0297742
0.0291284
0.0285024
0.0278951
0.0273052
0.0267317
0.0261736
0.02563
0.0251003
0.0245841
0.024081
0.023591
0.0231135
0.0226483
0.0221938
0.021749
0.021313
0.0208852
0.0204653
0.0200527
0.0196471
0.0192482
0.0188556
0.018469
0.0180883
0.0177131
0.0173433
0.0169787
0.0166191
0.0162644
0.0159145
0.0155693
0.0152287
0.0148926
0.014561
0.0142338
0.0139109
0.0135924
0.0132781
0.0129681
0.0126623
0.0123608
0.0120634
0.0117702
0.0114811
0.0111961
0.0109152
0.0106383
0.0103654
0.0100965
0.00983159
0.00957064
0.0637226
0.0710408
0.0643024
0.0611162
0.0590854
0.0574636
0.0560289
0.0547005
0.0534461
0.0522452
0.0510823
0.0499455
0.0488268
0.047722
0.0466299
0.0455505
0.0444851
0.0434354
0.042403
0.0413898
0.0403975
0.0394275
0.0384814
0.0375601
0.0366646
0.0357956
0.0349533
0.0341379
0.0333491
0.0325865
0.0318493
0.0311366
0.0304475
0.0297807
0.0291349
0.028509
0.0279017
0.0273118
0.0267382
0.02618
0.0256363
0.0251065
0.0245903
0.0240873
0.0235974
0.0231203
0.0226553
0.0222009
0.021756
0.0213199
0.0208921
0.0204721
0.0200594
0.0196538
0.0192548
0.0188621
0.0184756
0.0180948
0.0177196
0.0173498
0.0169852
0.0166256
0.016271
0.0159212
0.015576
0.0152355
0.0148995
0.0145679
0.0142408
0.013918
0.0135996
0.0132854
0.0129755
0.0126699
0.0123684
0.0120711
0.011778
0.011489
0.0112041
0.0109232
0.0106464
0.0103736
0.0101048
0.00983992
0.00957904
0.0637121
0.0710812
0.0643427
0.0611549
0.0591226
0.0574991
0.0560625
0.0547323
0.0534762
0.0522736
0.051109
0.0499703
0.0488497
0.047743
0.0466489
0.0455678
0.0445008
0.0434496
0.042416
0.0414017
0.0404084
0.0394377
0.0384909
0.0375691
0.0366733
0.0358039
0.0349614
0.0341458
0.0333569
0.0325942
0.031857
0.0311443
0.0304552
0.0297883
0.0291426
0.0285166
0.0279093
0.0273193
0.0267457
0.0261873
0.0256434
0.0251135
0.0245972
0.0240942
0.0236046
0.0231278
0.022663
0.0222087
0.0217637
0.0213275
0.0208996
0.0204795
0.0200668
0.0196611
0.019262
0.0188693
0.0184827
0.0181018
0.0177266
0.0173568
0.0169922
0.0166327
0.0162781
0.0159283
0.0155832
0.0152427
0.0149068
0.0145753
0.0142483
0.0139256
0.0136073
0.0132933
0.0129835
0.0126779
0.0123766
0.0120794
0.0117863
0.0114974
0.0112126
0.0109318
0.0106551
0.0103824
0.0101136
0.00984883
0.00958802
0.0637012
0.0711216
0.0643836
0.0611946
0.0591613
0.0575364
0.0560983
0.0547664
0.0535089
0.0523047
0.0511385
0.049998
0.0488755
0.0477669
0.0466709
0.045588
0.0445193
0.0434666
0.0424316
0.0414161
0.0404218
0.0394503
0.0385027
0.0375803
0.036684
0.0358142
0.0349714
0.0341555
0.0333664
0.0326036
0.0318662
0.0311534
0.0304642
0.0297972
0.0291514
0.0285254
0.027918
0.0273279
0.026754
0.0261954
0.0256513
0.0251212
0.0246048
0.024102
0.0236126
0.0231362
0.0226715
0.0222172
0.0217721
0.0213358
0.0209078
0.0204876
0.0200748
0.019669
0.0192698
0.018877
0.0184904
0.0181095
0.0177342
0.0173644
0.0169998
0.0166403
0.0162857
0.015936
0.0155909
0.0152505
0.0149147
0.0145833
0.0142564
0.0139338
0.0136156
0.0133016
0.0129919
0.0126865
0.0123852
0.0120881
0.0117952
0.0115064
0.0112217
0.010941
0.0106644
0.0103917
0.010123
0.0098583
0.00959757
0.0636898
0.071162
0.064425
0.0612354
0.0592015
0.0575756
0.0561361
0.0548029
0.0535441
0.0523385
0.0511707
0.0500286
0.0489042
0.0477937
0.0466958
0.0456111
0.0445407
0.0434863
0.0424499
0.0414332
0.0404378
0.0394652
0.0385169
0.0375938
0.0366968
0.0358265
0.0349833
0.0341671
0.0333777
0.0326146
0.031877
0.031164
0.0304746
0.0298075
0.0291615
0.0285354
0.0279277
0.0273374
0.0267633
0.0262044
0.02566
0.0251298
0.0246133
0.0241107
0.0236216
0.0231454
0.0226809
0.0222264
0.0217812
0.0213449
0.0209167
0.0204964
0.0200834
0.0196775
0.0192783
0.0188854
0.0184987
0.0181177
0.0177424
0.0173726
0.017008
0.0166484
0.0162939
0.0159442
0.0155992
0.0152588
0.0149231
0.0145918
0.0142649
0.0139425
0.0136243
0.0133105
0.0130009
0.0126956
0.0123944
0.0120974
0.0118046
0.0115159
0.0112313
0.0109507
0.0106741
0.0104016
0.010133
0.00986832
0.00960767
0.0636779
0.0712022
0.0644669
0.0612771
0.0592431
0.0576166
0.0561761
0.0548418
0.0535818
0.052375
0.0512058
0.0500621
0.048936
0.0478236
0.0467238
0.0456372
0.044565
0.0435091
0.0424711
0.041453
0.0404564
0.0394828
0.0385335
0.0376096
0.0367119
0.0358411
0.0349973
0.0341806
0.0333908
0.0326274
0.0318895
0.0311762
0.0304865
0.0298192
0.029173
0.0285466
0.0279387
0.027348
0.0267735
0.0262143
0.0256697
0.0251392
0.0246228
0.0241202
0.0236314
0.0231556
0.022691
0.0222364
0.0217911
0.0213546
0.0209263
0.0205059
0.0200928
0.0196868
0.0192874
0.0188944
0.0185076
0.0181266
0.0177513
0.0173813
0.0170167
0.0166572
0.0163026
0.0159529
0.015608
0.0152677
0.014932
0.0146008
0.014274
0.0139516
0.0136336
0.0133199
0.0130104
0.0127052
0.0124041
0.0121073
0.0118145
0.0115259
0.0112414
0.0109609
0.0106844
0.010412
0.0101434
0.00987887
0.00961829
0.0636656
0.0712423
0.0645093
0.0613199
0.0592862
0.0576593
0.0562183
0.054883
0.0536221
0.0524142
0.0512438
0.0500986
0.0489708
0.0478566
0.046755
0.0456665
0.0445925
0.0435348
0.0424953
0.0414757
0.0404778
0.039503