/*--------------------------------*- C++ -*----------------------------------*\
  =========                 |
  \\      /  F ield         | OpenFOAM: The Open Source CFD Toolbox
   \\    /   O peration     | Website:  https://openfoam.org
    \\  /    A nd           | Version:  10
     \\/     M anipulation  |
\*---------------------------------------------------------------------------*/
FoamFile
{
    format      ascii;
    class       volScalarField;
    location    "3000";
    object      omega;
}
// * * * * * * * * * * * * * * * * * * * * * * * * * * * * * * * * * * * * * //

dimensions      [0 0 -1 0 0 0 0];

internalField   nonuniform List<scalar> 
17808
(
9099.9
3736.18
2142.12
1477.42
1119.26
897.005
746.132
637.198
554.888
490.493
438.677
395.987
360.107
329.443
302.867
279.564
258.932
240.517
223.97
209.018
195.446
183.079
171.774
161.411
151.892
143.13
135.051
127.591
120.693
114.305
108.382
102.881
97.7653
92.9996
88.5527
84.3964
80.5057
76.8587
73.4361
70.2212
67.1994
64.3577
61.6837
59.1657
56.7925
54.5528
52.4361
50.4326
48.5334
46.7305
45.017
43.3866
41.8337
40.3532
38.9401
37.59
36.2989
35.0634
33.8805
32.7471
31.6605
30.6181
29.6176
28.6568
27.7335
26.846
25.9925
25.1712
24.3807
23.6196
22.8864
22.18
21.4992
20.8428
20.2098
19.5994
19.0104
18.4421
17.8936
17.3642
16.8531
16.3596
15.8832
15.4232
14.9791
14.5502
14.1362
13.7366
13.3508
12.9785
12.6192
12.2724
9100.95
3735.1
2142.29
1478.03
1119.9
897.568
746.595
637.61
555.276
490.823
438.931
396.174
360.244
329.543
302.94
279.616
258.969
240.542
223.985
209.027
195.449
183.077
171.769
161.404
151.882
143.119
135.04
127.579
120.681
114.294
108.371
102.871
97.7561
92.9913
88.5452
84.3899
80.5003
76.8543
73.4327
70.2187
67.1978
64.3568
61.6832
59.1656
56.7924
54.5528
52.4361
50.4326
48.5335
46.7308
45.0175
43.3873
41.8346
40.3543
38.9417
37.5919
36.3011
35.0658
33.8829
32.7496
31.6629
30.6205
29.6198
28.6589
27.7355
26.8478
25.9941
25.1727
24.382
23.6207
22.8873
22.1807
21.4997
20.8431
20.2099
19.5992
19.01
18.4415
17.8928
17.3632
16.8519
16.3582
15.8816
15.4214
14.9771
14.5481
14.134
13.7343
13.3484
12.9761
12.6167
12.2699
9103.14
3734.45
2142.33
1478.18
1120.08
897.765
746.778
637.758
555.448
491.026
439.11
396.31
360.342
329.612
302.988
279.649
258.991
240.556
223.993
209.03
195.448
183.073
171.762
161.396
151.873
143.109
135.03
127.57
120.672
114.285
108.363
102.864
97.7494
92.9853
88.5402
84.3858
80.497
76.852
73.4313
70.2183
67.1982
64.3577
61.6845
59.1671
56.7939
54.5542
52.4375
50.434
48.5349
46.7322
45.019
43.389
41.8365
40.3564
38.944
37.5946
36.3041
35.069
33.8862
32.7528
31.6661
30.6235
29.6228
28.6617
27.7382
26.8503
25.9964
25.1748
24.3839
23.6224
22.8888
22.182
21.5007
20.8439
20.2106
19.5996
19.0102
18.4415
17.8926
17.3627
16.8512
16.3574
15.8805
15.4202
14.9757
14.5466
14.1323
13.7325
13.3466
12.9741
12.6147
12.2679
9104.88
3734.07
2142.35
1478.2
1120.14
897.849
746.865
637.831
555.523
491.132
439.23
396.408
360.41
329.655
303.013
279.663
258.997
240.556
223.99
209.023
195.44
183.064
171.752
161.384
151.862
143.098
135.018
127.559
120.662
114.276
108.355
102.856
97.7432
92.9801
88.5359
84.3825
80.4947
76.8506
73.4309
70.2188
67.1994
64.3595
61.6868
59.1695
56.7964
54.5566
52.4397
50.4362
48.5371
46.7345
45.0213
43.3914
41.839
40.3591
38.947
37.5979
36.3076
35.0727
33.89
32.7566
31.6698
30.6272
29.6263
28.6651
27.7414
26.8534
25.9993
25.1774
24.3864
23.6246
22.8908
22.1838
21.5023
20.8453
20.2117
19.6005
19.0109
18.4419
17.8928
17.3627
16.8509
16.3569
15.8799
15.4193
14.9747
14.5454
14.131
13.7311
13.3451
12.9726
12.6132
12.2663
9106.35
3733.66
2142.19
1478.07
1120.08
897.833
746.873
637.845
555.537
491.174
439.3
396.475
360.455
329.679
303.022
279.662
258.989
240.544
223.975
209.008
195.424
183.047
171.735
161.369
151.846
143.083
135.005
127.546
120.651
114.266
108.346
102.849
97.7369
92.975
88.5319
84.3796
80.4929
76.8499
73.4312
70.22
67.2014
64.3621
61.6897
59.1726
56.7996
54.5597
52.4427
50.4391
48.5399
46.7373
45.0243
43.3944
41.8422
40.3625
38.9505
37.6017
36.3117
35.0769
33.8943
32.7609
31.6741
30.6314
29.6304
28.669
27.7451
26.8569
26.0026
25.1806
24.3893
23.6273
22.8933
22.186
21.5043
20.8471
20.2132
19.6018
19.012
18.4427
17.8934
17.3631
16.8511
16.3568
15.8796
15.4189
14.9741
14.5446
14.1301
13.7301
13.344
12.9714
12.6119
12.265
9107.68
3733.42
2141.98
1477.88
1119.95
897.754
746.825
637.81
555.504
491.166
439.327
396.512
360.482
329.689
303.017
279.648
258.97
240.522
223.952
208.984
195.4
183.025
171.714
161.348
151.827
143.066
134.989
127.532
120.638
114.255
108.336
102.841
97.7303
92.9697
88.5279
84.3768
80.4914
76.8495
73.4319
70.2217
67.2039
64.3653
61.6933
59.1764
56.8034
54.5634
52.4464
50.4426
48.5434
46.7408
45.0278
43.3981
41.846
40.3664
38.9546
37.606
36.3162
35.0816
33.8991
32.7657
31.6789
30.6361
29.635
28.6734
27.7494
26.861
26.0065
25.1842
24.3927
23.6305
22.8963
22.1887
21.5068
20.8493
20.2152
19.6036
19.0135
18.444
17.8944
17.3639
16.8517
16.3572
15.8798
15.4188
14.9738
14.5443
14.1296
13.7294
13.3433
12.9706
12.6111
12.2642
9108.8
3733.4
2141.82
1477.71
1119.82
897.653
746.752
637.751
555.446
491.128
439.323
396.526
360.492
329.687
303.003
279.625
258.942
240.492
223.921
208.954
195.371
182.997
171.688
161.324
151.805
143.045
134.97
127.516
120.623
114.242
108.326
102.832
97.7232
92.9641
88.5238
84.3741
80.4899
76.8493
73.4329
70.2237
67.2069
64.3689
61.6974
59.1807
56.8078
54.5678
52.4506
50.4467
48.5475
46.7449
45.0319
43.4023
41.8503
40.3709
38.9593
37.6109
36.3213
35.0868
33.9043
32.771
31.6842
30.6413
29.64
28.6783
27.7541
26.8655
26.0108
25.1883
24.3966
23.6341
22.8997
22.1919
21.5097
20.852
20.2177
19.6058
19.0154
18.4457
17.8959
17.3651
16.8527
16.358
15.8803
15.4192
14.974
14.5443
14.1295
13.7292
13.343
12.9703
12.6107
12.2637
9109.71
3733.58
2141.72
1477.57
1119.69
897.551
746.669
637.679
555.376
491.074
439.298
396.52
360.49
329.677
302.982
279.596
258.907
240.455
223.884
208.918
195.337
182.964
171.657
161.296
151.779
143.022
134.95
127.497
120.607
114.228
108.314
102.823
97.7154
92.9581
88.5194
84.3712
80.4885
76.8492
73.4341
70.226
67.2101
64.3729
61.7019
59.1855
56.8126
54.5726
52.4553
50.4514
48.552
46.7494
45.0365
43.407
41.8552
40.376
38.9646
37.6163
36.3268
35.0925
33.9101
32.7768
31.6899
30.6469
29.6456
28.6837
27.7593
26.8705
26.0156
25.1929
24.401
23.6383
22.9036
22.1956
21.5132
20.8552
20.2206
19.6085
19.0178
18.4479
17.8978
17.3668
16.8541
16.3592
15.8813
15.42
14.9746
14.5447
14.1298
13.7294
13.3431
12.9703
12.6107
12.2636
9110.43
3733.94
2141.68
1477.47
1119.58
897.453
746.584
637.6
555.3
491.009
439.257
396.5
360.478
329.66
302.957
279.562
258.869
240.415
223.844
208.878
195.298
182.928
171.624
161.265
151.751
142.996
134.927
127.477
120.59
114.213
108.302
102.812
97.7071
92.9517
88.5147
84.3682
80.487
76.8492
73.4354
70.2286
67.2137
64.3772
61.7068
59.1907
56.8179
54.5779
52.4605
50.4564
48.557
46.7545
45.0416
43.4122
41.8606
40.3816
38.9704
37.6223
36.3329
35.0986
33.9163
32.783
31.6961
30.653
29.6516
28.6896
27.765
26.8761
26.0209
25.198
24.4058
23.6429
22.9079
22.1997
21.517
20.8588
20.2239
19.6116
19.0207
18.4505
17.9001
17.3689
16.856
16.3608
15.8827
15.4212
14.9757
14.5456
14.1305
13.73
13.3435
12.9707
12.611
12.2639
9110.99
3734.46
2141.7
1477.41
1119.5
897.368
746.502
637.521
555.221
490.94
439.207
396.468
360.455
329.637
302.928
279.526
258.828
240.371
223.799
208.835
195.257
182.89
171.587
161.231
151.72
142.969
134.902
127.455
120.571
114.197
108.288
102.801
97.6982
92.9448
88.5098
84.365
80.4855
76.8492
73.4368
70.2313
67.2174
64.3818
61.7119
59.1962
56.8236
54.5835
52.4661
50.4619
48.5625
46.7599
45.0472
43.4179
41.8665
40.3878
38.9768
37.6288
36.3394
35.1052
33.9229
32.7896
31.7027
30.6596
29.6581
28.6959
27.7712
26.882
26.0267
25.2036
24.4111
23.648
22.9128
22.2043
21.5213
20.8628
20.2278
19.6151
19.024
18.4535
17.9029
17.3714
16.8582
16.3628
15.8846
15.4228
14.9771
14.5469
14.1317
13.731
13.3444
12.9715
12.6118
12.2646
9111.4
3735.08
2141.8
1477.38
1119.44
897.298
746.428
637.445
555.145
490.869
439.15
396.428
360.425
329.609
302.895
279.488
258.785
240.325
223.753
208.79
195.214
182.849
171.549
161.196
151.688
142.94
134.876
127.433
120.551
114.18
108.274
102.789
97.6887
92.9375
88.5045
84.3616
80.4839
76.8492
73.4383
70.2341
67.2214
64.3866
61.7174
59.202
56.8295
54.5895
52.472
50.4678
48.5683
46.7658
45.0532
43.4241
41.873
40.3946
38.9838
37.6358
36.3464
35.1122
33.93
32.7967
31.7097
30.6666
29.665
28.7027
27.7778
26.8885
26.0329
25.2096
24.4169
23.6535
22.9181
22.2093
21.5261
20.8674
20.232
19.6191
19.0277
18.457
17.9061
17.3743
16.861
16.3653
15.8868
15.4249
14.979
14.5486
14.1332
13.7324
13.3457
12.9727
12.6129
12.2657
9111.69
3735.79
2141.98
1477.4
1119.42
897.247
746.365
637.376
555.074
490.801
439.091
396.383
360.389
329.576
302.86
279.448
258.74
240.278
223.706
208.743
195.169
182.806
171.509
161.159
151.654
142.909
134.849
127.409
120.53
114.163
108.259
102.777
97.6789
92.93
88.499
84.3581
80.4821
76.8492
73.4399
70.237
67.2255
64.3916
61.723
59.2081
56.8358
54.5958
52.4782
50.474
48.5745
46.772
45.0596
43.4308
41.8801
40.4019
38.9912
37.6432
36.3539
35.1197
33.9375
32.8042
31.7172
30.674
29.6723
28.7099
27.7848
26.8953
26.0396
25.216
24.4231
23.6595
22.9238
22.2148
21.5313
20.8723
20.2367
19.6235
19.0319
18.4609
17.9097
17.3777
16.8641
16.3682
15.8895
15.4273
14.9812
14.5507
14.1352
13.7342
13.3474
12.9743
12.6144
12.2672
9111.86
3736.57
2142.22
1477.47
1119.42
897.215
746.315
637.315
555.01
490.738
439.033
396.334
360.349
329.54
302.823
279.407
258.696
240.231
223.657
208.695
195.123
182.762
171.469
161.121
151.62
142.878
134.821
127.384
120.509
114.144
108.243
102.764
97.6687
92.9221
88.4933
84.3544
80.4804
76.8492
73.4415
70.24
67.2297
64.3968
61.7289
59.2143
56.8422
54.6023
52.4847
50.4804
48.581
46.7786
45.0664
43.438
41.8877
40.4098
38.9992
37.6511
36.3618
35.1276
33.9453
32.8121
31.7251
30.6818
29.68
28.7175
27.7923
26.9026
26.0467
25.2229
24.4298
23.6659
22.93
22.2207
21.537
20.8777
20.2418
19.6284
19.0365
18.4652
17.9138
17.3815
16.8677
16.3715
15.8926
15.4302
14.9839
14.5532
14.1375
13.7365
13.3495
12.9763
12.6163
12.2691
9111.93
3737.4
2142.5
1477.59
1119.45
897.203
746.279
637.264
554.955
490.68
438.977
396.284
360.307
329.501
302.784
279.365
258.651
240.184
223.609
208.647
195.076
182.718
171.427
161.083
151.585
142.846
134.793
127.359
120.487
114.125
108.228
102.751
97.6582
92.9141
88.4875
84.3507
80.4786
76.8493
73.4432
70.2432
67.2341
64.4021
61.7349
59.2208
56.8489
54.609
52.4914
50.4871
48.5877
46.7856
45.0737
43.4458
41.896
40.4182
39.0075
37.6594
36.3701
35.1359
33.9536
32.8203
31.7333
30.69
29.6881
28.7255
27.8002
26.9103
26.0542
25.2302
24.4369
23.6728
22.9366
22.2271
21.5431
20.8836
20.2474
19.6337
19.0415
18.47
17.9183
17.3858
16.8716
16.3753
15.8961
15.4335
14.987
14.5561
14.1403
13.7391
13.352
12.9787
12.6186
12.2713
9111.91
3738.28
2142.84
1477.73
1119.51
897.213
746.258
637.226
554.909
490.631
438.925
396.235
360.263
329.461
302.744
279.324
258.606
240.136
223.561
208.599
195.03
182.674
171.385
161.044
151.549
142.814
134.764
127.333
120.465
114.106
108.212
102.738
97.6477
92.9059
88.4817
84.347
80.4769
76.8494
73.445
70.2465
67.2386
64.4077
61.7411
59.2275
56.8558
54.616
52.4984
50.4941
48.5948
46.793
45.0816
43.4543
41.9047
40.427
39.0162
37.6681
36.3787
35.1446
33.9623
32.829
31.7419
30.6985
29.6966
28.7338
27.8084
26.9184
26.0621
25.238
24.4444
23.6801
22.9437
22.2339
21.5497
20.8898
20.2534
19.6394
19.047
18.4752
17.9232
17.3904
16.8761
16.3795
15.9001
15.4373
14.9906
14.5594
14.1434
13.7421
13.3549
12.9814
12.6212
12.2738
9111.81
3739.2
2143.21
1477.91
1119.6
897.247
746.253
637.2
554.875
490.59
438.88
396.189
360.22
329.42
302.704
279.282
258.562
240.09
223.513
208.551
194.983
182.629
171.343
161.005
151.514
142.782
134.735
127.308
120.443
114.087
108.195
102.725
97.637
92.8978
88.4759
84.3434
80.4753
76.8497
73.447
70.25
67.2434
64.4134
61.7475
59.2343
56.8628
54.6231
52.5055
50.5013
48.6023
46.8009
45.0901
43.4634
41.914
40.4362
39.0254
37.6772
36.3878
35.1536
33.9713
32.838
31.7509
30.7075
29.7054
28.7426
27.817
26.9269
26.0704
25.2461
24.4523
23.6878
22.9511
22.2411
21.5566
20.8965
20.2598
19.6456
19.0529
18.4808
17.9286
17.3955
16.8809
16.3841
15.9044
15.4414
14.9945
14.5631
14.1469
13.7453
13.3579
12.9843
12.6241
12.2766
9111.64
3740.15
2143.62
1478.13
1119.72
897.303
746.268
637.188
554.853
490.56
438.841
396.148
360.179
329.38
302.664
279.24
258.518
240.044
223.466
208.504
194.937
182.585
171.302
160.967
151.478
142.749
134.706
127.282
120.42
114.068
108.179
102.711
97.6264
92.8897
88.4701
84.3398
80.4738
76.8501
73.4491
70.2536
67.2483
64.4192
61.7541
59.2412
56.87
54.6303
52.5128
50.5087
48.6101
46.8093
45.0993
43.4729
41.9235
40.4458
39.0349
37.6867
36.3973
35.1631
33.9808
32.8474
31.7602
30.7167
29.7146
28.7517
27.826
26.9357
26.0791
25.2546
24.4606
23.6958
22.959
22.2487
21.564
20.9036
20.2667
19.6522
19.0592
18.4868
17.9344
17.401
16.8862
16.3891
15.9092
15.4459
14.9988
14.5672
14.1508
13.7489
9111.4
3741.13
2144.07
1478.37
1119.86
897.378
746.3
637.193
554.843
490.541
438.812
396.112
360.141
329.342
302.625
279.2
258.476
240
223.42
208.459
194.892
182.542
171.261
160.928
151.443
142.717
134.677
127.257
120.398
114.049
108.163
102.698
97.616
92.8818
88.4646
84.3364
80.4725
76.8507
73.4515
70.2575
67.2533
64.4253
61.7608
59.2483
56.8772
54.6376
52.5202
50.5165
48.6184
46.8184
45.1091
43.4829
41.9335
40.4557
39.0448
37.6966
36.4071
35.1729
33.9905
32.8571
31.7699
30.7264
29.7242
28.7611
27.8354
26.9449
26.0882
25.2634
24.4693
23.7043
22.9672
22.2567
21.5717
20.9111
20.2739
19.6591
19.0659
18.4933
17.9405
17.407
16.8918
16.3945
15.9144
15.4509
15.0035
14.5717
14.155
13.753
9111.1
3742.13
2144.54
1478.63
1120.02
897.47
746.348
637.214
554.849
490.534
438.792
396.083
360.107
329.306
302.588
279.161
258.435
239.957
223.376
208.414
194.848
182.499
171.221
160.891
151.408
142.686
134.649
127.232
120.376
114.03
108.148
102.685
97.6058
92.8741
88.4592
84.3333
80.4715
76.8516
73.454
70.2615
67.2586
64.4315
61.7676
59.2555
56.8846
54.6451
52.5279
50.5246
48.6272
46.8282
45.1194
43.4933
41.9438
40.466
39.0551
37.7068
36.4173
35.183
34.0006
32.8672
31.7799
30.7363
29.734
28.7709
27.845
26.9545
26.0976
25.2727
24.4783
23.7131
22.9758
22.2651
21.5799
20.919
20.2816
19.6665
19.073
18.5001
17.9471
17.4133
16.8979
16.4003
15.9199
15.4562
15.0085
14.5764
14.1596
13.7575
9110.74
3743.14
2145.04
1478.92
1120.2
897.581
746.412
637.249
554.869
490.541
438.783
396.063
360.08
329.275
302.554
279.125
258.396
239.916
223.334
208.371
194.806
182.458
171.182
160.854
151.374
142.655
134.621
127.207
120.355
114.012
108.132
102.673
97.5958
92.8666
88.4541
84.3305
80.4707
76.8527
73.4569
70.2658
67.2641
64.4379
61.7745
59.2627
56.892
54.6526
52.5358
50.5331
48.6367
46.8386
45.1302
43.504
41.9546
40.4767
39.0657
37.7174
36.4279
35.1935
34.0111
32.8776
31.7903
30.7466
29.7443
28.7811
27.8551
26.9644
26.1073
25.2822
24.4877
23.7223
22.9848
22.2739
21.5884
20.9273
20.2896
19.6743
19.0805
18.5074
17.9541
17.42
16.9044
16.4065
15.9259
15.4618
15.0138
9110.33
3744.17
2145.55
1479.23
1120.4
897.708
746.492
637.298
554.902
490.56
438.787
396.053
360.06
329.248
302.523
279.091
258.36
239.878
223.294
208.33
194.765
182.419
171.144
160.819
151.342
142.625
134.594
127.184
120.334
113.994
108.117
102.661
97.5863
92.8596
88.4494
84.3279
80.4702
76.8541
73.46
70.2704
67.2698
64.4443
61.7815
59.27
56.8994
54.6603
52.544
50.5423
48.647
46.8496
45.1412
43.5151
41.9656
40.4877
39.0767
37.7284
36.4388
35.2044
34.0219
32.8884
31.801
30.7572
29.7548
28.7915
27.8654
26.9746
26.1174
25.2922
24.4975
23.7319
22.9941
22.283
21.5973
20.9359
20.298
19.6824
19.0884
18.515
17.9615
17.4271
16.9112
16.4132
15.9323
15.468
15.0197
9109.87
3745.19
2146.09
1479.56
1120.61
897.853
746.587
637.361
554.948
490.591
438.802
396.054
360.049
329.228
302.498
279.062
258.327
239.842
223.256
208.292
194.727
182.381
171.107
160.785
151.31
142.596
134.569
127.161
120.314
113.977
108.103
102.649
97.5773
92.853
88.4451
84.3258
80.4701
76.8559
73.4634
70.2752
67.2756
64.4509
61.7885
59.2772
56.9069
54.6682
52.5526
50.5519
48.6579
46.861
45.1527
43.5266
41.9771
40.4992
39.0881
37.7397
36.4501
35.2156
34.0331
32.8994
31.812
30.7682
29.7657
28.8023
27.8761
26.9851
26.1278
25.3024
24.5075
23.7418
23.0038
22.2924
21.6065
20.9449
20.3067
19.6909
19.0966
18.523
17.9693
17.4347
16.9185
16.4202
15.9391
15.4746
15.0261
9109.37
3746.22
2146.64
1479.91
1120.85
898.014
746.698
637.44
555.008
490.636
438.829
396.065
360.047
329.217
302.479
279.037
258.298
239.81
223.222
208.256
194.69
182.345
171.073
160.752
151.28
142.569
134.544
127.139
120.295
113.961
108.09
102.638
97.5688
92.8469
88.4413
84.3241
80.4704
76.858
73.4671
70.2802
67.2816
64.4576
61.7956
59.2845
56.9144
54.6763
52.5617
50.5623
48.6693
46.8729
45.1646
43.5385
41.989
40.511
39.0998
37.7514
36.4617
35.2271
34.0445
32.9109
31.8233
30.7794
29.7768
28.8134
27.887
26.996
26.1385
25.3129
24.5179
23.752
23.0138
22.3022
21.6161
20.9543
20.3158
19.6998
19.1053
18.5314
17.9774
17.4426
16.9262
16.4276
15.9463
15.4815
15.0328
9108.82
3747.24
2147.2
1480.27
1121.1
898.191
746.824
637.532
555.081
490.693
438.868
396.086
360.054
329.213
302.467
279.018
258.274
239.782
223.191
208.223
194.657
182.312
171.041
160.722
151.251
142.543
134.52
127.118
120.277
113.946
108.077
102.628
97.561
92.8414
88.438
84.323
80.4712
76.8605
73.4711
70.2854
67.2878
64.4643
61.8026
59.2918
56.9221
54.6848
52.5714
50.5735
48.6813
46.885
45.1768
43.5507
42.0012
40.5231
39.1119
37.7634
36.4736
35.239
34.0563
32.9226
31.835
30.791
29.7883
28.8247
27.8983
27.0071
26.1495
25.3238
24.5286
23.7625
23.0241
22.3123
21.626
20.964
20.3253
19.709
19.1143
18.5402
17.9859
17.4509
16.9342
16.4354
15.9538
15.4888
15.0399
9108.22
3748.25
2147.77
1480.65
1121.37
898.383
746.965
637.639
555.168
490.763
438.919
396.119
360.071
329.218
302.462
279.006
258.255
239.759
223.164
208.194
194.626
182.281
171.011
160.693
151.225
142.518
134.498
127.099
120.26
113.931
108.065
102.619
97.554
92.8367
88.4354
84.3223
80.4725
76.8635
73.4755
70.2909
67.294
64.4709
61.8095
59.2991
56.93
54.6936
52.5816
50.5852
48.6938
46.8976
45.1894
43.5633
42.0137
40.5356
39.1244
37.7758
36.4859
35.2512
34.0685
32.9346
31.8469
30.8029
29.8001
28.8364
27.9098
27.0185
26.1607
25.3349
24.5396
23.7733
23.0347
22.3228
21.6362
20.974
20.3351
19.7186
19.1236
18.5493
17.9948
17.4595
16.9426
16.4436
15.9617
15.4965
15.0473
9107.59
3749.25
2148.34
1481.04
1121.65
898.589
747.12
637.76
555.269
490.845
438.982
396.163
360.099
329.232
302.465
279
258.243
239.741
223.142
208.169
194.6
182.254
170.984
160.667
151.2
142.496
134.478
127.081
120.245
113.918
108.054
102.61
97.5479
92.8326
88.4335
84.3223
80.4743
76.8668
73.4802
70.2965
67.3003
64.4776
61.8165
59.3064
56.9381
54.703
52.5925
50.5975
48.7067
46.9106
45.2025
43.5763
42.0267
40.5485
39.1372
37.7885
36.4985
35.2638
34.0809
32.947
31.8592
30.815
29.8121
28.8483
27.9216
27.0302
26.1723
25.3463
24.5508
23.7844
23.0457
22.3335
21.6467
20.9843
20.3452
19.7285
19.1333
18.5587
18.004
17.4685
16.9514
16.4521
15.97
15.5045
15.0551
9106.91
3750.24
2148.91
1481.43
1121.94
898.81
747.29
637.896
555.383
490.941
439.058
396.22
360.137
329.255
302.476
279.002
258.237
239.729
223.126
208.149
194.578
182.23
170.96
160.644
151.178
142.476
134.46
127.065
120.231
113.907
108.045
102.603
97.5427
92.8295
88.4323
84.323
80.4766
76.8707
73.4851
70.3023
67.3066
64.4842
61.8234
59.3139
56.9465
54.7129
52.6043
50.6104
48.7199
46.9239
45.2158
43.5897
42.04
40.5618
39.1504
37.8016
36.5115
35.2766
34.0936
32.9596
31.8717
30.8274
29.8244
28.8605
27.9337
27.0422
26.1841
25.358
24.5624
23.7957
23.0568
22.3445
21.6575
20.9949
20.3556
19.7387
19.1432
18.5685
18.0135
17.4778
16.9604
16.4609
15.9785
15.5128
15.0632
9106.2
3751.21
2149.49
1481.84
1122.24
899.044
747.474
638.045
555.51
491.05
439.147
396.288
360.187
329.289
302.496
279.011
258.238
239.724
223.115
208.135
194.56
182.211
170.94
160.624
151.159
142.458
134.444
127.05
120.219
113.897
108.037
102.597
97.5386
92.8274
88.432
84.3244
80.4796
76.875
73.4904
70.3083
67.3129
64.4908
61.8303
59.3215
56.9553
54.7235
52.6167
50.6238
48.7335
46.9376
45.2296
43.6034
42.0537
40.5754
39.1639
37.815
36.5248
35.2898
34.1067
32.9725
31.8845
30.8401
29.837
28.873
27.9461
27.0544
26.1962
25.37
24.5741
23.8074
23.0683
22.3558
21.6686
21.0058
20.3663
19.7492
19.1535
18.5785
18.0234
17.4873
16.9698
16.47
15.9874
15.5214
15.0715
9105.45
3752.17
2150.05
1482.25
1122.56
899.29
747.671
638.208
555.651
491.172
439.249
396.369
360.249
329.334
302.526
279.03
258.247
239.725
223.111
208.126
194.548
182.197
170.924
160.608
151.144
142.443
134.43
127.039
120.209
113.888
108.03
102.592
97.5357
92.8263
88.4326
84.3267
80.4832
76.8797
73.496
70.3144
67.3193
64.4974
61.8373
59.3293
56.9646
54.7347
52.6297
50.6377
48.7475
46.9517
45.2437
43.6175
42.0677
40.5893
39.1777
37.8287
36.5384
35.3032
34.12
32.9858
31.8976
30.8531
29.8499
28.8857
27.9587
27.0669
26.2085
25.3822
24.5862
23.8192
23.08
22.3673
21.68
21.017
20.3773
19.7599
19.164
18.5888
18.0334
17.4972
16.9794
16.4794
15.9965
15.5303
15.0801
9104.66
3753.1
2150.62
1482.66
1122.88
899.548
747.881
638.385
555.805
491.307
439.363
396.463
360.323
329.389
302.567
279.057
258.264
239.734
223.113
208.123
194.541
182.188
170.914
160.596
151.132
142.432
134.42
127.029
120.201
113.882
108.026
102.589
97.5342
92.8264
88.4342
84.3297
80.4875
76.8849
73.5019
70.3206
67.3256
64.504
61.8444
59.3375
56.9746
54.7467
52.6433
50.652
48.762
46.9662
45.2582
43.632
42.0821
40.6036
39.1919
37.8427
36.5523
35.317
34.1337
32.9993
31.911
30.8663
29.863
28.8987
27.9715
27.0795
26.2211
25.3946
24.5984
23.8313
23.0919
22.3791
21.6916
21.0284
20.3884
19.7709
19.1748
18.5994
18.0438
17.5073
16.9893
16.489
16.0059
15.5394
15.089
9103.84
3754
2151.17
1483.08
1123.21
899.816
748.103
638.574
555.971
491.454
439.49
396.569
360.408
329.457
302.618
279.095
258.29
239.75
223.122
208.126
194.541
182.184
170.908
160.589
151.124
142.424
134.412
127.022
120.195
113.878
108.023
102.588
97.5342
92.8278
88.437
84.3337
80.4925
76.8907
73.508
70.3269
67.332
64.5105
61.8516
59.3461
56.9852
54.7596
52.6576
50.6665
48.7767
46.9811
45.2731
43.6468
42.0969
40.6183
39.2064
37.8571
36.5665
35.3311
34.1476
33.013
31.9246
30.8798
29.8763
28.9119
27.9846
27.0925
26.2339
25.4072
24.6109
23.8436
23.1041
22.391
21.7034
21.04
20.3999
19.7821
19.1858
18.6102
18.0544
17.5177
16.9994
16.4989
16.0155
15.5488
15.0981
9102.98
3754.89
2151.72
1483.49
1123.55
900.093
748.337
638.775
556.15
491.614
439.629
396.687
360.507
329.536
302.68
279.142
258.326
239.776
223.139
208.137
194.546
182.186
170.907
160.586
151.12
142.42
134.408
127.019
120.192
113.876
108.022
102.588
97.5358
92.8306
88.441
84.3387
80.4983
76.8969
73.5144
70.3333
67.3384
64.5172
61.8591
59.3552
56.9965
54.7732
52.6723
50.6815
48.7919
46.9963
45.2883
43.662
42.112
40.6333
39.2213
37.8718
36.581
35.3454
34.1618
33.027
31.9385
30.8935
29.8899
28.9253
27.9978
27.1056
26.2468
25.42
24.6236
23.8561
23.1164
22.4032
21.7153
21.0518
20.4115
19.7936
19.1971
18.6212
18.0652
17.5282
17.0097
16.5089
16.0253
15.5584
15.1074
9102.09
3755.75
2152.27
1483.91
1123.89
900.38
748.581
638.988
556.341
491.786
439.781
396.819
360.618
329.628
302.754
279.201
258.371
239.81
223.164
208.155
194.558
182.194
170.912
160.589
151.122
142.42
134.408
127.019
120.193
113.877
108.023
102.59
97.5392
92.835
88.4463
84.3447
80.5048
76.9036
73.5211
70.3398
67.3448
64.524
61.867
59.3649
57.0086
54.7875
52.6877
50.6971
48.8075
47.012
45.304
43.6776
42.1275
40.6486
39.2364
37.8868
36.5958
35.3601
34.1762
33.0413
31.9526
30.9075
29.9036
28.9389
28.0113
27.1189
26.26
25.433
24.6364
23.8688
23.1289
22.4156
21.7275
21.0638
20.4233
19.8052
19.2085
18.6324
18.0762
17.539
17.0202
16.5192
16.0354
15.5681
15.117
9101.17
3756.59
2152.8
1484.33
1124.24
900.674
748.836
639.213
556.544
491.97
439.945
396.962
360.741
329.731
302.84
279.271
258.427
239.854
223.199
208.181
194.578
182.208
170.923
160.597
151.128
142.425
134.413
127.023
120.196
113.88
108.028
102.595
97.5446
92.8411
88.453
84.3519
80.5121
76.9109
73.5281
70.3464
67.3513
64.531
61.8754
59.3755
57.0218
54.8024
52.7033
50.7129
48.8235
47.028
45.3199
43.6935
42.1432
40.6642
39.2519
37.902
36.6109
35.3749
34.1909
33.0558
31.9669
30.9216
29.9176
28.9527
28.0249
27.1323
26.2733
25.4461
24.6494
23.8816
23.1416
22.428
21.7398
21.0759
20.4353
19.8169
19.2201
18.6438
18.0873
17.5499
17.0309
16.5297
16.0456
15.5781
15.1266
9100.21
3757.4
2153.32
1484.74
1124.59
900.976
749.1
639.448
556.758
492.165
440.122
397.119
360.877
329.848
302.938
279.352
258.494
239.909
223.243
208.216
194.606
182.231
170.941
160.612
151.14
142.436
134.422
127.031
120.204
113.888
108.035
102.602
97.5522
92.849
88.4612
84.3602
80.5203
76.9187
73.5354
70.3532
67.358
64.5383
61.8843
59.3869
57.0359
54.8181
52.7193
50.7292
48.8398
47.0444
45.3363
43.7097
42.1593
40.6801
39.2676
37.9176
36.6262
35.3901
34.2058
33.0705
31.9814
30.9359
29.9317
28.9666
28.0387
27.146
26.2867
25.4594
24.6625
23.8946
23.1544
22.4407
21.7523
21.0882
20.4474
19.8288
19.2318
18.6553
18.0986
17.561
17.0418
16.5403
16.0559
15.5882
15.1364
9099.23
3758.19
2153.82
1485.15
1124.94
901.284
749.373
639.694
556.984
492.372
440.31
397.287
361.026
329.977
303.049
279.445
258.572
239.974
223.296
208.261
194.643
182.261
170.966
160.633
151.158
142.451
134.435
127.043
120.215
113.898
108.045
102.612
97.5621
92.8589
88.471
84.3698
80.5295
76.9271
73.5429
70.3602
67.365
64.5461
61.894
59.3993
57.051
54.8345
52.7359
50.7459
48.8566
47.0611
45.353
43.7263
42.1757
40.6963
39.2836
37.9334
36.6418
35.4054
34.2209
33.0854
31.9961
30.9504
29.946
28.9807
28.0526
27.1597
26.3003
25.4728
24.6757
23.9077
23.1673
22.4534
21.7649
21.1006
20.4596
19.8409
19.2436
18.6669
18.11
17.5722
17.0528
16.551
16.0664
15.5983
9098.21
3758.95
2154.32
1485.56
1125.29
901.598
749.655
639.95
557.219
492.59
440.51
397.468
361.187
330.119
303.172
279.551
258.662
240.05
223.361
208.315
194.688
182.299
170.998
160.661
151.182
142.472
134.454
127.06
120.231
113.913
108.058
102.625
97.5746
92.871
88.4826
84.3808
80.5395
76.9361
73.5509
70.3674
67.3723
64.5546
61.9046
59.4126
57.0668
54.8514
52.753
50.7631
48.8738
47.0783
45.37
43.7432
42.1924
40.7128
39.2999
37.9494
36.6576
35.421
34.2362
33.1005
32.0109
30.965
29.9604
28.995
28.0666
27.1735
26.314
25.4863
24.6891
23.9208
23.1803
22.4662
21.7775
21.1131
20.4719
19.853
19.2555
18.6787
18.1216
17.5835
17.0639
16.5619
16.077
15.6086
9097.16
3759.69
2154.8
1485.96
1125.65
901.917
749.943
640.214
557.465
492.819
440.721
397.661
361.361
330.273
303.308
279.67
258.764
240.138
223.436
208.379
194.743
182.347
171.039
160.696
151.213
142.5
134.479
127.083
120.251
113.931
108.076
102.642
97.5899
92.8854
88.4961
84.3931
80.5505
76.9457
73.5593
70.375
67.3801
64.5638
61.9164
59.4275
57.0835
54.8687
52.7705
50.7806
48.8914
47.0958
45.3874
43.7604
42.2094
40.7296
39.3164
37.9657
36.6736
35.4367
34.2517
33.1157
32.0259
30.9798
29.975
29.0093
28.0807
27.1875
26.3277
25.4999
24.7025
23.934
23.1933
22.4791
21.7902
21.1256
20.4842
19.8652
19.2675
18.6905
18.1332
17.5949
17.075
16.5728
16.0876
15.619
9096.09
3760.41
2155.27
1486.36
1126
902.239
750.239
640.487
557.719
493.058
440.943
397.866
361.547
330.44
303.456
279.801
258.879
240.238
223.523
208.454
194.809
182.403
171.089
160.74
151.252
142.534
134.51
127.11
120.276
113.954
108.097
102.661
97.6081
92.9022
88.5115
84.4069
80.5626
76.9561
73.5681
70.3832
67.3886
64.5739
61.9294
59.4436
57.1011
54.8865
52.7885
50.7986
48.9094
47.1136
45.4051
43.7779
42.2267
40.7466
39.3331
37.9821
36.6898
35.4526
34.2673
33.1311
32.041
30.9946
29.9896
29.0237
28.0949
27.2014
26.3415
25.5135
24.7159
23.9473
23.2064
22.492
21.803
21.1382
20.4966
19.8774
19.2796
18.7023
18.1448
17.6064
17.0862
16.5838
16.0984
15.6294
9094.99
3761.11
2155.73
1486.75
1126.36
902.565
750.54
640.768
557.983
493.306
441.176
398.082
361.745
330.62
303.618
279.945
259.007
240.35
223.621
208.541
194.885
182.47
171.147
160.792
151.298
142.575
134.547
127.144
120.307
113.982
108.122
102.684
97.6293
92.9216
88.529
84.4223
80.5758
76.9671
73.5776
70.3919
67.3979
64.5852
61.9436
59.4606
57.1196
54.905
52.807
50.8171
48.9277
47.1318
45.4231
43.7957
42.2442
40.7638
39.3501
37.9987
36.7061
35.4686
34.2831
33.1465
32.0562
31.0095
30.0042
29.0381
28.1091
27.2154
26.3553
25.5271
24.7293
23.9605
23.2195
22.5049
21.8157
21.1507
20.509
19.8896
19.2916
18.7142
18.1565
17.6178
17.0975
16.5948
16.1091
15.6399
9093.86
3761.79
2156.17
1487.13
1126.71
902.893
750.847
641.056
558.255
493.563
441.419
398.309
361.955
330.813
303.793
280.102
259.147
240.475
223.732
208.639
194.972
182.547
171.216
160.853
151.352
142.624
134.59
127.183
120.342
114.015
108.152
102.711
97.6539
92.9437
88.5485
84.4392
80.5901
76.979
73.5878
70.4015
67.4084
64.598
61.9594
59.4788
57.1386
54.924
52.826
50.836
48.9465
47.1504
45.4414
43.8137
42.2619
40.7812
39.3671
38.0155
36.7225
35.4847
34.2989
33.162
32.0714
31.0245
30.0189
29.0525
28.1233
27.2294
26.3691
25.5407
24.7427
23.9738
23.2325
22.5178
21.8284
21.1633
20.5214
19.9018
19.3036
18.726
18.1681
17.6292
17.1087
16.6057
16.1198
15.6504
9092.72
3762.45
2156.6
1487.51
1127.06
903.222
751.158
641.351
558.535
493.83
441.671
398.547
362.177
331.018
303.98
280.272
259.301
240.613
223.856
208.75
195.07
182.635
171.294
160.923
151.415
142.68
134.641
127.229
120.384
114.052
108.186
102.742
97.6818
92.9686
88.5703
84.4578
80.6056
76.9919
73.5988
70.412
67.4201
64.6124
61.9771
59.4981
57.158
54.9435
52.8454
50.8553
48.9655
47.1692
45.4599
43.8319
42.2798
40.7988
39.3843
38.0323
36.739
35.5009
34.3147
33.1775
32.0866
31.0394
30.0336
29.0669
28.1375
27.2434
26.3828
25.5542
24.756
23.9869
23.2455
22.5306
21.841
21.1757
20.5337
19.9139
19.3156
18.7377
18.1797
17.6406
17.1198
16.6166
16.1305
15.6608
9091.55
3763.09
2157.02
1487.88
1127.41
903.554
751.473
641.651
558.821
494.104
441.933
398.795
362.411
331.235
304.18
280.455
259.467
240.764
223.992
208.872
195.18
182.734
171.383
161.003
151.487
142.745
134.699
127.282
120.431
114.095
108.225
102.777
97.7131
92.9963
88.5943
84.4781
80.6224
77.0058
73.6108
70.4238