/*--------------------------------*- C++ -*----------------------------------*\
  =========                 |
  \\      /  F ield         | OpenFOAM: The Open Source CFD Toolbox
   \\    /   O peration     | Website:  https://openfoam.org
    \\  /    A nd           | Version:  10
     \\/     M anipulation  |
\*---------------------------------------------------------------------------*/
FoamFile
{
    format      ascii;
    class       volVectorField;
    location    "3000";
    object      Urel;
}
// * * * * * * * * * * * * * * * * * * * * * * * * * * * * * * * * * * * * * //

dimensions      [0 1 -1 0 0 0 0];

internalField   nonuniform List<vector> 
17808
(
(1.69587 -1.80758 -3.55609e-17)
(1.3713 -1.52111 -3.96206e-18)
(1.25446 -1.36843 2.56293e-17)
(1.1627 -1.27514 2.69301e-17)
(1.09543 -1.20093 -6.2452e-18)
(1.0405 -1.14106 -4.32517e-17)
(0.994271 -1.09058 2.15544e-17)
(0.954245 -1.04683 -2.27949e-17)
(0.918815 -1.00807 3.84403e-17)
(0.886913 -0.973159 -2.46882e-20)
(0.857801 -0.941304 -1.75878e-17)
(0.830951 -0.911928 1.26818e-17)
(0.80598 -0.884611 -1.84162e-17)
(0.782609 -0.859047 1.98236e-18)
(0.760632 -0.835007 0)
(0.739886 -0.812314 1.87508e-18)
(0.720248 -0.790831 -3.65594e-18)
(0.701614 -0.770446 -3.56819e-18)
(0.6839 -0.751066 -1.56738e-17)
(0.667032 -0.732612 2.42672e-20)
(0.65095 -0.715015 1.33466e-17)
(0.635597 -0.698215 0)
(0.620924 -0.682158 1.27661e-17)
(0.606887 -0.666796 -1.25286e-17)
(0.593444 -0.652083 1.22513e-17)
(0.580557 -0.637977 -1.50369e-17)
(0.568193 -0.624441 -2.94598e-18)
(0.556316 -0.611438 0)
(0.544896 -0.598934 -2.83436e-18)
(0.533903 -0.586895 -2.78167e-18)
(0.523308 -0.575291 1.09121e-17)
(0.513085 -0.564093 -8.06145e-18)
(0.503207 -0.553272 0)
(0.493651 -0.542802 0)
(0.484394 -0.532658 2.55128e-18)
(0.475416 -0.52282 1.25434e-17)
(0.466698 -0.513267 -7.43116e-18)
(0.458227 -0.503983 0)
(0.44999 -0.494954 -9.57984e-18)
(0.441975 -0.486169 2.66819e-20)
(0.434173 -0.477619 1.39657e-17)
(0.426577 -0.469293 1.37222e-17)
(0.419176 -0.461183 -9.02855e-18)
(0.411961 -0.453279 4.43815e-18)
(0.404922 -0.445569 0)
(0.398046 -0.43804 -4.30763e-18)
(0.391322 -0.430682 1.27273e-17)
(0.38474 -0.423481 -1.67722e-17)
(0.378291 -0.416427 4.13451e-18)
(0.371967 -0.409512 0)
(0.36576 -0.402728 0)
(0.359667 -0.396069 1.19236e-17)
(0.353681 -0.38953 -3.94475e-18)
(0.347798 -0.383105 0)
(0.342014 -0.376787 3.83579e-18)
(0.336322 -0.370573 3.7916e-18)
(0.330721 -0.364457 -3.74821e-18)
(0.325205 -0.358437 -3.7053e-18)
(0.319774 -0.35251 -3.66287e-18)
(0.314422 -0.346674 7.22591e-18)
(0.309149 -0.340926 -1.59533e-20)
(0.303951 -0.335263 7.05973e-18)
(0.298826 -0.329683 -7.01023e-18)
(0.293772 -0.324184 -6.91252e-18)
(0.288786 -0.318762 -1.36465e-17)
(0.283866 -0.313416 6.75106e-18)
(0.27901 -0.308144 -1.3359e-17)
(0.274216 -0.302944 1.31826e-17)
(0.269482 -0.297814 0)
(0.264807 -0.292752 6.43282e-18)
(0.260189 -0.287756 1.26903e-17)
(0.255626 -0.282825 -6.31118e-18)
(0.251117 -0.277956 -6.21519e-18)
(0.246659 -0.273149 6.11907e-18)
(0.242253 -0.268402 -1.83959e-20)
(0.237895 -0.263713 -1.78908e-17)
(0.233585 -0.259081 1.17912e-17)
(0.229321 -0.254505 0)
(0.225103 -0.249982 -5.75133e-18)
(0.220928 -0.245513 -1.69861e-17)
(0.216795 -0.241095 0)
(0.212704 -0.236727 0)
(0.208652 -0.232408 1.0855e-17)
(0.204639 -0.228136 0)
(0.200663 -0.223911 1.05546e-17)
(0.196724 -0.21973 0)
(0.192819 -0.215594 -4.10191e-23)
(0.188948 -0.211499 0)
(0.185109 -0.207446 0)
(0.181302 -0.203432 9.82103e-18)
(0.177524 -0.199457 1.93563e-17)
(0.173776 -0.19552 1.90731e-17)
(1.6913 -1.80787 -3.95141e-18)
(1.36792 -1.5214 3.97875e-18)
(1.25095 -1.36968 0)
(1.16003 -1.2761 0)
(1.09307 -1.20203 6.15756e-18)
(1.03836 -1.14228 -2.85127e-18)
(0.992253 -1.09191 2.12536e-17)
(0.952317 -1.04825 -1.74907e-17)
(0.916956 -1.00957 -2.36418e-18)
(0.885091 -0.974699 1.80241e-17)
(0.856001 -0.942846 -1.94671e-17)
(0.829172 -0.913463 4.16336e-18)
(0.804224 -0.886139 2.01198e-18)
(0.78088 -0.860565 -1.95042e-18)
(0.758929 -0.836514 0)
(0.738212 -0.813808 -1.84505e-18)
(0.718601 -0.792309 1.79883e-18)
(0.699996 -0.771906 1.75584e-18)
(0.682309 -0.752507 0)
(0.66547 -0.734033 0)
(0.649415 -0.716415 0)
(0.634089 -0.699593 -3.21261e-18)
(0.619443 -0.683515 0)
(0.605431 -0.66813 -3.08199e-18)
(0.592014 -0.653396 0)
(0.579153 -0.639269 2.96066e-18)
(0.566813 -0.625712 2.90315e-18)
(0.55496 -0.612688 0)
(0.543564 -0.600164 -1.11646e-17)
(0.532594 -0.588105 2.76773e-18)
(0.522022 -0.576482 8.09383e-18)
(0.51182 -0.565264 -2.64687e-18)
(0.501963 -0.554424 1.0396e-17)
(0.492427 -0.543935 -2.30365e-17)
(0.48319 -0.533774 7.56995e-18)
(0.474231 -0.523917 -2.4803e-18)
(0.465532 -0.514347 -4.88593e-18)
(0.457079 -0.505045 0)
(0.44886 -0.495999 0)
(0.440862 -0.487198 1.16654e-17)
(0.433077 -0.47863 -9.21589e-18)
(0.425496 -0.470288 -1.98822e-23)
(0.418111 -0.462161 -4.46326e-18)
(0.41091 -0.45424 -8.79295e-18)
(0.403885 -0.446512 -4.31848e-18)
(0.397022 -0.438967 1.28259e-17)
(0.390312 -0.431592 -8.41088e-18)
(0.383744 -0.424375 1.24848e-17)
(0.377308 -0.417307 -1.22979e-17)
(0.370997 -0.410377 8.12035e-18)
(0.364805 -0.403579 -7.9928e-18)
(0.358725 -0.396906 7.92507e-18)
(0.352752 -0.390353 -3.90797e-18)
(0.346883 -0.383915 0)
(0.341112 -0.377585 -3.81752e-18)
(0.335434 -0.371359 0)
(0.329845 -0.365231 0)
(0.324343 -0.359198 3.69345e-18)
(0.318923 -0.353259 1.56205e-20)
(0.313584 -0.34741 7.24233e-18)
(0.308323 -0.34165 -7.14748e-18)
(0.303136 -0.335974 7.06907e-18)
(0.298023 -0.330381 0)
(0.29298 -0.324869 0)
(0.288004 -0.319435 1.36574e-17)
(0.283095 -0.314077 -6.76054e-18)
(0.27825 -0.308793 1.33858e-17)
(0.273468 -0.303581 -1.72385e-20)
(0.268745 -0.298439 -6.55035e-18)
(0.264081 -0.293365 0)
(0.259473 -0.288358 -1.27472e-17)
(0.254921 -0.283415 2.523e-17)
(0.250422 -0.278535 -3.63209e-20)
(0.245975 -0.273717 -3.67035e-20)
(0.241578 -0.268959 -1.85271e-20)
(0.237231 -0.264259 5.99056e-18)
(0.232931 -0.259616 -1.18892e-17)
(0.228678 -0.255029 5.86107e-18)
(0.224469 -0.250496 1.15551e-17)
(0.220304 -0.246016 -5.73303e-18)
(0.216182 -0.241588 5.62028e-18)
(0.2121 -0.237209 -1.672e-17)
(0.208059 -0.23288 1.64607e-17)
(0.204056 -0.228599 -4.06406e-20)
(0.20009 -0.224364 -1.06968e-17)
(0.196161 -0.220173 5.29701e-18)
(0.192266 -0.216027 -2.08183e-17)
(0.188406 -0.211923 0)
(0.184577 -0.207861 0)
(0.18078 -0.203838 -1.99696e-17)
(0.177012 -0.199853 -1.47467e-17)
(0.173274 -0.195907 -9.66363e-18)
(1.68696 -1.81034 7.88552e-18)
(1.36329 -1.52402 6.32826e-17)
(1.24659 -1.37205 -1.15465e-16)
(1.15635 -1.27797 5.29515e-17)
(1.08967 -1.20385 -3.04282e-18)
(1.03526 -1.14404 0)
(0.989408 -1.09361 0)
(0.949656 -1.0499 0)
(0.914473 -1.01122 -3.48266e-17)
(0.882766 -0.976353 3.54425e-17)
(0.853787 -0.944474 2.12257e-18)
(0.827043 -0.915052 1.89144e-23)
(0.802171 -0.887694 3.1585e-17)
(0.778896 -0.862095 -6.31931e-17)
(0.757008 -0.838021 2.97948e-17)
(0.736349 -0.815296 2.71493e-17)
(0.716793 -0.793779 -2.65172e-17)
(0.698236 -0.773358 0)
(0.680595 -0.753941 0)
(0.663798 -0.735448 0)
(0.647782 -0.717811 0)
(0.632493 -0.700971 6.3126e-18)
(0.617882 -0.684873 0)
(0.603905 -0.66947 3.02881e-18)
(0.590519 -0.654717 0)
(0.577689 -0.640571 -2.91043e-18)
(0.565378 -0.626996 0)
(0.553553 -0.613954 1.11889e-17)
(0.542184 -0.601411 -1.1005e-17)
(0.53124 -0.589334 2.69826e-18)
(0.520692 -0.577693 -2.65046e-18)
(0.510515 -0.566457 1.30119e-17)
(0.500681 -0.555599 -2.47692e-20)
(0.491167 -0.545093 -7.57275e-18)
(0.481951 -0.534914 7.4298e-18)
(0.473012 -0.52504 -7.34223e-18)
(0.464334 -0.515452 2.40704e-18)
(0.455901 -0.506134 0)
(0.447699 -0.497072 0)
(0.43972 -0.488253 -1.38069e-17)
(0.431952 -0.479669 2.6208e-20)
(0.424388 -0.47131 2.63719e-20)
(0.417018 -0.463166 1.32305e-17)
(0.409833 -0.455228 -8.66932e-18)
(0.402822 -0.447483 4.29276e-18)
(0.395973 -0.439921 0)
(0.389277 -0.43253 0)
(0.382723 -0.425297 0)
(0.376301 -0.418213 1.39639e-20)
(0.370004 -0.411268 4.0243e-18)
(0.363825 -0.404455 0)
(0.357759 -0.397768 3.91627e-18)
(0.3518 -0.391201 -7.7272e-18)
(0.345944 -0.384749 1.14941e-17)
(0.340187 -0.378407 7.55265e-18)
(0.334522 -0.372168 -7.5016e-18)
(0.328947 -0.366027 -7.39286e-18)
(0.323457 -0.359982 3.68055e-18)
(0.31805 -0.354029 -3.62686e-18)
(0.312723 -0.348167 3.58887e-18)
(0.307473 -0.342393 7.10252e-18)
(0.302298 -0.336705 -7.02788e-18)
(0.297196 -0.331099 0)
(0.292164 -0.325573 0)
(0.2872 -0.320127 -3.16563e-23)
(0.282302 -0.314756 -1.34513e-17)
(0.277468 -0.309459 6.67848e-18)
(0.272696 -0.304234 -6.57204e-18)
(0.267984 -0.299079 1.95514e-17)
(0.26333 -0.293993 -1.75734e-20)
(0.258733 -0.288973 6.3735e-18)
(0.254191 -0.284018 -6.30194e-18)
(0.249703 -0.279126 0)
(0.245266 -0.274296 0)
(0.24088 -0.269526 0)
(0.236543 -0.264814 5.99781e-18)
(0.232253 -0.26016 -5.96437e-18)
(0.22801 -0.255561 -5.87441e-18)
(0.223811 -0.251017 0)
(0.219656 -0.246526 0)
(0.215544 -0.242086 -1.69656e-17)
(0.211472 -0.237697 2.79761e-17)
(0.20744 -0.233356 -7.08014e-23)
(0.203447 -0.229064 0)
(0.199492 -0.224818 -5.35989e-18)
(0.195572 -0.220617 4.17315e-20)
(0.191687 -0.21646 5.26259e-18)
(0.187836 -0.212346 -1.03448e-17)
(0.184018 -0.208273 -1.02076e-17)
(0.18023 -0.20424 1.50854e-17)
(0.176473 -0.200245 -4.399e-20)
(0.172745 -0.196289 4.87875e-18)
(1.68305 -1.81382 5.50824e-17)
(1.35908 -1.52751 5.89981e-17)
(1.24285 -1.3749 -6.08435e-17)
(1.15295 -1.28046 3.27245e-18)
(1.08642 -1.20622 0)
(1.03221 -1.14626 0)
(0.986515 -1.0957 0)
(0.946898 -1.05188 3.87218e-17)
(0.91184 -1.01312 -7.31551e-17)
(0.880267 -0.97821 6.96219e-17)
(0.851403 -0.946287 -3.33861e-17)
(0.824747 -0.916805 3.00962e-17)
(0.799952 -0.889385 -3.10676e-17)
(0.776749 -0.863734 1.88036e-18)
(0.754933 -0.839619 3.10323e-17)
(0.734341 -0.816858 -2.66966e-17)
(0.714847 -0.795311 2.7717e-17)
(0.696349 -0.774862 -1.73832e-18)
(0.678763 -0.755419 -2.64837e-17)
(0.662017 -0.736901 -1.6173e-18)
(0.646049 -0.719241 0)
(0.630805 -0.702379 -6.19816e-18)
(0.616236 -0.68626 0)
(0.602298 -0.670836 0)
(0.58895 -0.656062 -2.62189e-17)
(0.576154 -0.641897 2.28966e-17)
(0.563877 -0.628302 0)
(0.552085 -0.615241 0)
(0.540746 -0.602679 0)
(0.52983 -0.590584 -5.30515e-18)
(0.51931 -0.578925 2.60612e-18)
(0.509159 -0.567671 0)
(0.49935 -0.556796 0)
(0.48986 -0.546272 0)
(0.480667 -0.536075 -1.46243e-17)
(0.471751 -0.526184 2.16709e-17)
(0.463094 -0.516579 0)
(0.454681 -0.507244 0)
(0.4465 -0.498165 0)
(0.438539 -0.48933 2.04036e-17)
(0.43079 -0.480729 -5.16723e-20)
(0.423243 -0.472353 -4.40988e-17)
(0.41589 -0.464192 3.04236e-17)
(0.40872 -0.456236 -1.2879e-17)
(0.401724 -0.448475 0)
(0.394891 -0.440896 4.16727e-18)
(0.388209 -0.433488 1.64249e-17)
(0.381669 -0.426239 -1.62733e-17)
(0.375262 -0.419139 -4.01239e-18)
(0.368979 -0.412179 1.97982e-17)
(0.362814 -0.405351 -7.88136e-18)
(0.356762 -0.39865 -7.7786e-18)
(0.350818 -0.392069 -7.67747e-18)
(0.344976 -0.385603 -1.45305e-20)
(0.339233 -0.379247 -1.12587e-17)
(0.333583 -0.372995 0)
(0.328021 -0.366841 3.65661e-18)
(0.322544 -0.360783 -7.28466e-18)
(0.31715 -0.354817 -1.07794e-17)
(0.311835 -0.348942 3.57773e-18)
(0.306597 -0.343155 7.05283e-18)
(0.301435 -0.337453 1.59255e-20)
(0.296344 -0.331833 3.22514e-20)
(0.291324 -0.326295 6.85789e-18)
(0.286372 -0.320834 -6.77202e-18)
(0.281485 -0.31545 6.70274e-18)
(0.276662 -0.31014 0)
(0.271901 -0.304902 -6.54793e-18)
(0.2672 -0.299735 -6.46187e-18)
(0.262557 -0.294636 1.74956e-20)
(0.257971 -0.289603 -1.27018e-17)
(0.253439 -0.284635 1.2601e-17)
(0.248961 -0.279731 0)
(0.244535 -0.274889 -1.83282e-20)
(0.240159 -0.270106 -1.2193e-17)
(0.235833 -0.265382 6.01917e-18)
(0.231553 -0.260716 5.95118e-18)
(0.22732 -0.256105 5.88314e-18)
(0.223132 -0.251549 0)
(0.218987 -0.247046 0)
(0.214885 -0.242594 1.13587e-17)
(0.210823 -0.238193 -2.2446e-17)
(0.206802 -0.233842 -1.10876e-17)
(0.202819 -0.229538 1.09523e-17)
(0.198873 -0.225281 1.62054e-17)
(0.194964 -0.221069 5.32045e-18)
(0.191089 -0.216901 1.0549e-17)
(0.187248 -0.212775 5.18646e-18)
(0.18344 -0.208691 1.02397e-17)
(0.179662 -0.204647 -5.09755e-18)
(0.175915 -0.200642 4.98796e-18)
(0.172197 -0.196675 -4.49406e-20)
(1.67889 -1.81748 6.66915e-17)
(1.35484 -1.53106 -6.26408e-17)
(1.23915 -1.37786 -5.31601e-17)
(1.14954 -1.28313 9.70995e-17)
(1.08318 -1.20874 -4.45503e-17)
(1.02915 -1.14861 4.65348e-17)
(0.983592 -1.09793 -8.14753e-17)
(0.944095 -1.054 4.85657e-20)
(0.909146 -1.01515 3.60077e-17)
(0.877687 -0.98018 0)
(0.84893 -0.94821 0)
(0.822361 -0.918667 -1.97259e-18)
(0.797638 -0.891182 -1.90589e-18)
(0.774504 -0.86547 1.84663e-18)
(0.752755 -0.841303 4.95889e-24)
(0.732228 -0.818498 -1.74562e-18)
(0.712798 -0.796911 -3.40346e-18)
(0.694361 -0.776428 -1.71855e-24)
(0.676832 -0.756952 0)
(0.660141 -0.738405 1.58731e-18)
(0.644224 -0.720717 2.48307e-17)
(0.629028 -0.703828 -2.13158e-17)
(0.614505 -0.687683 0)
(0.60061 -0.672235 2.62585e-17)
(0.587303 -0.657438 -2.00623e-17)
(0.574546 -0.643251 -2.24363e-17)
(0.562306 -0.629635 2.20562e-17)
(0.550548 -0.616554 2.7028e-18)
(0.539242 -0.603972 0)
(0.528359 -0.591858 2.60623e-18)
(0.517869 -0.580179 0)
(0.507746 -0.568907 0)
(0.497964 -0.558013 -1.97931e-17)
(0.4885 -0.547471 1.70923e-17)
(0.479332 -0.537257 -4.80282e-18)
(0.470439 -0.527348 -1.8905e-17)
(0.461805 -0.517726 1.6351e-17)
(0.453415 -0.508373 -2.2995e-18)
(0.445255 -0.499277 -1.81137e-17)
(0.437314 -0.490425 1.79101e-17)
(0.429585 -0.481807 -1.76077e-17)
(0.422056 -0.473414 2.17558e-17)
(0.414721 -0.465236 -1.71133e-17)
(0.407568 -0.457263 5.2102e-20)
(0.400588 -0.449485 2.91725e-17)
(0.39377 -0.441889 -2.05889e-17)
(0.387103 -0.434464 0)
(0.380579 -0.427198 1.60155e-17)
(0.374186 -0.420083 -1.58807e-17)
(0.367919 -0.413108 0)
(0.361769 -0.406265 -3.87427e-18)
(0.355732 -0.399549 7.6633e-18)
(0.349802 -0.392954 -1.51315e-17)
(0.343976 -0.386474 3.3744e-17)
(0.338247 -0.380104 -1.11593e-17)
(0.332611 -0.373839 -3.67283e-18)
(0.327064 -0.367672 1.81559e-17)
(0.321601 -0.361601 7.14398e-18)
(0.31622 -0.355622 3.50652e-18)
(0.310918 -0.349733 -6.17476e-20)
(0.305693 -0.343932 -4.19922e-17)
(0.300543 -0.338217 -6.86818e-18)
(0.295465 -0.332584 6.40662e-20)
(0.290457 -0.327032 1.36292e-17)
(0.285516 -0.321558 -2.01644e-17)
(0.280641 -0.316161 -1.3267e-17)
(0.27583 -0.310837 5.04843e-20)
(0.271081 -0.305586 6.55315e-18)
(0.266391 -0.300406 -6.45382e-18)
(0.261759 -0.295293 1.28297e-17)
(0.257184 -0.290248 0)
(0.252664 -0.285267 -1.2535e-17)
(0.248197 -0.28035 6.22971e-18)
(0.243782 -0.275495 1.8334e-20)
(0.239417 -0.2707 1.21825e-17)
(0.235101 -0.265964 -6.01717e-18)
(0.230833 -0.261285 0)
(0.22661 -0.256662 -1.17747e-17)
(0.222433 -0.252094 0)
(0.218299 -0.247579 -1.15149e-17)
(0.214207 -0.243115 0)
(0.210156 -0.238703 5.64765e-18)
(0.206145 -0.234339 5.58291e-18)
(0.202173 -0.230024 -1.64723e-17)
(0.198238 -0.225755 -5.41203e-18)
(0.194339 -0.221532 -1.60835e-17)
(0.190475 -0.217352 -5.28235e-18)
(0.186644 -0.213216 1.0479e-17)
(0.182846 -0.20912 -5.15372e-18)
(0.179079 -0.205065 1.0268e-17)
(0.175343 -0.201049 -5.02629e-18)
(0.171636 -0.197071 -1.49799e-17)
(1.67449 -1.82131 0)
(1.35045 -1.53463 0)
(1.23527 -1.38093 5.26717e-17)
(1.14594 -1.28593 -5.63557e-20)
(1.07977 -1.21135 -4.98359e-17)
(1.02593 -1.15107 4.04776e-17)
(0.980515 -1.10026 -3.7641e-17)
(0.941148 -1.05622 0)
(0.906314 -1.01727 -2.21174e-18)
(0.874971 -0.982234 -3.56979e-17)
(0.84633 -0.950214 3.2214e-17)
(0.819855 -0.920613 3.87422e-18)
(0.795212 -0.893062 1.8715e-18)
(0.77215 -0.867286 -3.26128e-17)
(0.750471 -0.843062 2.64313e-17)
(0.730013 -0.820208 1.71322e-18)
(0.710649 -0.798578 1.66993e-18)
(0.692275 -0.778055 2.93165e-17)
(0.674807 -0.758543 -4.42876e-20)
(0.658173 -0.739962 -4.98382e-17)
(0.64231 -0.722242 2.44084e-17)
(0.627166 -0.705323 0)
(0.612691 -0.689151 -2.33697e-17)
(0.598843 -0.673676 4.50316e-20)
(0.585579 -0.658853 2.24992e-17)
(0.572865 -0.644642 2.75555e-18)
(0.560664 -0.631003 2.16054e-17)
(0.548944 -0.617899 -4.77627e-17)
(0.537673 -0.605296 4.16871e-17)
(0.526824 -0.593161 -4.62549e-20)
(0.516366 -0.581463 -2.26631e-17)
(0.506274 -0.570171 0)
(0.496521 -0.559257 0)
(0.487085 -0.548696 2.39643e-18)
(0.477943 -0.538463 2.36068e-18)
(0.469076 -0.528536 -4.65319e-18)
(0.460467 -0.518896 7.10803e-24)
(0.4521 -0.509526 2.26215e-18)
(0.443962 -0.500412 0)
(0.436044 -0.491543 -1.97797e-17)
(0.428335 -0.482908 1.30464e-17)
(0.420826 -0.474497 -1.70968e-17)
(0.413509 -0.466302 2.11335e-17)
(0.406374 -0.458312 1.6631e-17)
(0.399411 -0.450515 -1.6461e-17)
(0.39261 -0.442902 0)
(0.385959 -0.43546 0)
(0.379451 -0.428178 0)
(0.373074 -0.421046 0)
(0.366823 -0.414056 -3.86891e-18)
(0.360689 -0.407198 -1.14533e-17)
(0.354668 -0.400467 1.13862e-17)
(0.348754 -0.393858 0)
(0.342942 -0.387364 -3.7075e-18)
(0.337229 -0.38098 -1.46516e-17)
(0.331608 -0.374701 1.82018e-17)
(0.326075 -0.368521 3.60064e-18)
(0.320627 -0.362436 -1.40705e-23)
(0.31526 -0.356444 3.53465e-18)
(0.309972 -0.350542 0)
(0.30476 -0.344727 6.94026e-18)
(0.299623 -0.338998 0)
(0.294558 -0.333351 0)
(0.289562 -0.327786 -2.02198e-17)
(0.284634 -0.322298 3.34414e-17)
(0.279771 -0.316887 -6.65919e-18)
(0.274972 -0.31155 6.5643e-18)
(0.270235 -0.306286 0)
(0.265557 -0.301092 6.44097e-18)
(0.260937 -0.295966 6.3447e-18)
(0.256374 -0.290908 -2.52721e-17)
(0.251865 -0.285914 1.25488e-17)
(0.24741 -0.280984 0)
(0.243006 -0.276116 0)
(0.238653 -0.271308 6.0721e-18)
(0.234348 -0.26656 0)
(0.230091 -0.261868 5.94879e-18)
(0.22588 -0.257233 -5.84859e-18)
(0.221713 -0.252652 1.16892e-17)
(0.21759 -0.248125 -5.74346e-18)
(0.213509 -0.243649 1.71235e-17)
(0.20947 -0.239224 0)
(0.20547 -0.234849 -5.55659e-18)
(0.201508 -0.230521 5.53559e-18)
(0.197584 -0.226241 0)
(0.193696 -0.222006 -5.412e-18)
(0.189843 -0.217815 1.59655e-17)
(0.186024 -0.213667 0)
(0.182237 -0.20956 0)
(0.178481 -0.205493 -1.54116e-17)
(0.174755 -0.201465 2.54409e-17)
(0.171059 -0.197476 1.0046e-17)
(1.66992 -1.82539 0)
(1.34599 -1.53831 -3.86466e-18)
(1.23128 -1.38418 3.4801e-18)
(1.14224 -1.28887 3.16268e-18)
(1.07627 -1.21411 4.33407e-17)
(1.02259 -1.15366 -4.26035e-17)
(0.977329 -1.10272 1.72092e-23)
(0.93809 -1.05856 -3.69144e-17)
(0.903371 -1.01951 3.69879e-17)
(0.872144 -0.984392 -3.30053e-17)
(0.843617 -0.952313 6.32201e-17)
(0.817243 -0.922651 -1.94573e-18)
(0.792683 -0.895033 -4.36155e-20)
(0.769696 -0.869189 -2.84975e-17)
(0.748088 -0.844902 0)
(0.727701 -0.821993 0)
(0.708405 -0.800315 2.61928e-17)
(0.690097 -0.779748 -5.2767e-17)
(0.672691 -0.760196 2.50183e-17)
(0.656117 -0.741578 -2.44226e-17)
(0.640311 -0.723823 2.39434e-17)
(0.625221 -0.706871 0)
(0.610797 -0.690667 -2.29255e-17)
(0.596997 -0.675163 1.68902e-17)
(0.58378 -0.660313 2.20296e-17)
(0.571109 -0.646075 -2.43554e-17)
(0.55895 -0.63241 0)
(0.54727 -0.619282 2.60407e-18)
(0.536038 -0.606656 0)
(0.525224 -0.594499 0)
(0.5148 -0.582778 2.46975e-18)
(0.504741 -0.571465 -1.94101e-17)
(0.495019 -0.560532 1.9148e-17)
(0.485613 -0.54995 -1.64555e-17)
(0.4765 -0.539698 1.85793e-17)
(0.46766 -0.529751 4.57298e-18)
(0.459076 -0.520092 -1.576e-17)
(0.450734 -0.510704 3.33629e-17)
(0.442621 -0.501572 -1.75783e-17)
(0.434725 -0.492685 2.16477e-18)
(0.427038 -0.484032 8.54241e-18)
(0.41955 -0.475604 -1.68294e-17)
(0.412253 -0.46739 1.24958e-17)
(0.405137 -0.459382 0)
(0.398192 -0.451568 8.09689e-18)
(0.391408 -0.443937 0)
(0.384775 -0.436477 1.18214e-17)
(0.378283 -0.429179 -3.95577e-18)
(0.371924 -0.422031 -1.5465e-17)
(0.365689 -0.415024 3.81791e-18)
(0.359572 -0.408151 0)
(0.353567 -0.401406 0)
(0.347669 -0.394781 0)
(0.341874 -0.388273 3.66367e-18)
(0.336177 -0.381875 -1.44839e-17)
(0.330572 -0.375582 2.8755e-17)
(0.325055 -0.369388 -3.20603e-17)
(0.319621 -0.36329 -3.47178e-18)
(0.314268 -0.357284 7.02955e-18)
(0.308994 -0.351368 -1.38463e-17)
(0.303797 -0.345539 6.14297e-20)
(0.298673 -0.339796 1.36662e-17)
(0.293621 -0.334136 6.7579e-18)
(0.288638 -0.328556 6.69869e-18)
(0.283723 -0.323055 0)
(0.278873 -0.31763 1.97107e-17)
(0.274087 -0.31228 -6.64972e-20)
(0.269362 -0.307002 -1.29627e-17)
(0.264696 -0.301794 -6.40637e-18)
(0.260089 -0.296655 0)
(0.255538 -0.291583 0)
(0.251041 -0.286576 -6.23214e-18)
(0.246598 -0.281633 0)
(0.242206 -0.276752 -6.11586e-18)
(0.237865 -0.271931 -1.81359e-17)
(0.233572 -0.267169 6.07405e-18)
(0.229326 -0.262465 -5.86495e-18)
(0.225127 -0.257817 1.18026e-17)
(0.220972 -0.253223 -5.82335e-18)
(0.21686 -0.248683 1.1529e-17)
(0.212791 -0.244195 -1.1411e-17)
(0.208763 -0.239758 0)
(0.204774 -0.235371 0)
(0.200824 -0.231031 1.10558e-17)
(0.196912 -0.226738 0)
(0.193035 -0.222491 1.08188e-17)
(0.189193 -0.218288 -2.14008e-17)
(0.185385 -0.214128 0)
(0.18161 -0.21001 1.04643e-17)
(0.177865 -0.205931 0)
(0.174151 -0.201892 -1.023e-17)
(0.170466 -0.197891 0)
(1.66521 -1.82967 6.62322e-17)
(1.34145 -1.54209 6.90923e-17)
(1.2272 -1.38758 -1.10272e-16)
(1.13847 -1.29195 5.49635e-20)
(1.07268 -1.21699 5.13607e-17)
(1.01918 -1.15638 -4.45454e-17)
(0.974061 -1.10529 -2.38234e-18)
(0.934949 -1.06101 3.63522e-17)
(0.900346 -1.02185 3.63092e-17)
(0.869231 -0.986649 -6.28556e-17)
(0.840816 -0.954502 1.9832e-18)
(0.814541 -0.924775 2.80249e-17)
(0.790068 -0.897088 0)
(0.767157 -0.871175 1.74672e-18)
(0.745621 -0.846823 1.69565e-18)
(0.725303 -0.823855 0)
(0.706076 -0.802124 2.56943e-17)
(0.687834 -0.78151 -4.2542e-20)
(0.670492 -0.761914 -2.30053e-17)
(0.653979 -0.743255 1.49836e-18)
(0.638231 -0.725462 0)
(0.623196 -0.708474 -2.00793e-17)
(0.608826 -0.692236 1.97141e-17)
(0.595076 -0.6767 -4.73284e-25)
(0.581907 -0.661819 -2.16072e-17)
(0.569282 -0.647553 2.38898e-17)
(0.557166 -0.633861 0)
(0.545528 -0.620707 0)
(0.534335 -0.608055 -1.75412e-17)
(0.523559 -0.595874 4.4563e-20)
(0.513171 -0.58413 1.94132e-17)
(0.503146 -0.572795 0)
(0.493457 -0.561839 -1.87529e-17)
(0.484082 -0.551236 1.62036e-17)
(0.474999 -0.540963 -1.59228e-17)
(0.466187 -0.530996 1.57454e-17)
(0.457631 -0.521317 -2.21541e-18)
(0.449316 -0.51191 -1.5277e-17)
(0.441228 -0.502759 1.72791e-17)
(0.433356 -0.493853 0)
(0.425692 -0.485182 1.6779e-17)
(0.418227 -0.476735 -1.6606e-17)
(0.41095 -0.468503 0)
(0.403854 -0.460476 0)
(0.396928 -0.452643 -1.99082e-17)
(0.390163 -0.444994 1.18385e-17)
(0.383548 -0.437517 1.94304e-17)
(0.377074 -0.430201 -2.69296e-17)
(0.370733 -0.423036 1.52469e-17)
(0.364515 -0.416014 0)
(0.358416 -0.409125 0)
(0.352428 -0.402364 1.84196e-17)
(0.346548 -0.395725 -1.46397e-17)
(0.34077 -0.389202 -3.61791e-18)
(0.33509 -0.38279 0)
(0.329501 -0.376482 -1.77337e-17)
(0.323999 -0.370274 5.76465e-20)
(0.318581 -0.364162 1.05064e-17)
(0.313244 -0.358142 2.07491e-17)
(0.307984 -0.352212 -1.72009e-17)
(0.302801 -0.346369 6.81115e-18)
(0.297692 -0.340612 0)
(0.292654 -0.334938 -2.54035e-23)
(0.287685 -0.329344 0)
(0.282783 -0.323829 6.58705e-18)
(0.277947 -0.31839 6.49928e-18)
(0.273173 -0.313026 -1.29868e-17)
(0.268461 -0.307734 6.42203e-18)
(0.263809 -0.302513 6.36729e-18)
(0.259214 -0.29736 6.3126e-18)
(0.254676 -0.292274 -1.2481e-17)
(0.250192 -0.287254 1.8645e-17)
(0.245761 -0.282297 0)
(0.241382 -0.277402 6.09356e-18)
(0.237052 -0.272568 -6.03854e-18)
(0.232772 -0.267793 -1.19668e-17)
(0.228538 -0.263076 -5.92812e-18)
(0.224351 -0.258415 0)
(0.220208 -0.253808 5.81707e-18)
(0.216109 -0.249256 0)
(0.212051 -0.244755 1.14106e-17)
(0.208035 -0.240305 0)
(0.204059 -0.235905 0)
(0.20012 -0.231552 -1.10318e-17)
(0.19622 -0.227247 4.21137e-20)
(0.192355 -0.222988 1.08474e-17)
(0.188525 -0.218773 7.25836e-23)
(0.184729 -0.2146 -1.06218e-17)
(0.180965 -0.21047 -1.05092e-17)
(0.177232 -0.20638 -2.07488e-17)
(0.17353 -0.202328 1.03305e-17)
(0.169858 -0.198316 0)
(1.66032 -1.83413 -6.60098e-17)
(1.3368 -1.54598 5.72594e-17)
(1.223 -1.39109 0)
(1.1346 -1.29513 4.93594e-17)
(1.069 -1.21997 -5.06491e-17)
(1.01567 -1.15919 -1.21781e-23)
(0.9707 -1.10795 3.58449e-17)
(0.931718 -1.06355 -4.55617e-20)
(0.897233 -1.02429 -3.78215e-17)
(0.866231 -0.988993 0)
(0.837926 -0.956771 -1.90407e-18)
(0.811751 -0.926976 -2.92935e-17)
(0.787365 -0.89922 2.8336e-17)
(0.764534 -0.873237 0)
(0.74307 -0.848817 -1.66357e-18)
(0.722823 -0.825787 -1.61794e-18)
(0.703665 -0.804 0)
(0.68549 -0.783336 -2.30499e-17)
(0.668213 -0.763694 4.65776e-17)
(0.651762 -0.744992 -4.84829e-17)
(0.636074 -0.727158 4.60063e-17)
(0.621095 -0.710132 -2.85773e-18)
(0.606778 -0.693859 -1.93298e-17)
(0.59308 -0.678288 2.70363e-18)
(0.579961 -0.663375 0)
(0.567383 -0.649077 -2.60058e-18)
(0.555312 -0.635356 0)
(0.543717 -0.622174 2.25282e-17)
(0.532565 -0.609496 -2.21706e-17)
(0.521828 -0.597288 1.93258e-17)
(0.511478 -0.58552 -3.80476e-17)
(0.501488 -0.57416 2.10783e-17)
(0.491834 -0.563181 0)
(0.482491 -0.552556 1.81283e-17)
(0.473439 -0.542261 -4.02532e-17)
(0.464658 -0.532273 1.76655e-17)
(0.456131 -0.522573 3.64394e-24)
(0.447843 -0.513145 0)
(0.439781 -0.503975 -1.90495e-17)
(0.431936 -0.495049 4.72679e-20)
(0.424296 -0.486358 1.24125e-17)
(0.416853 -0.477892 0)
(0.409599 -0.469641 -1.60712e-17)
(0.402524 -0.461595 1.98889e-17)
(0.395619 -0.453743 0)
(0.388873 -0.446075 9.64405e-24)
(0.382277 -0.43858 -1.53024e-17)
(0.375822 -0.431246 2.65265e-17)
(0.369499 -0.424064 -1.8772e-17)
(0.3633 -0.417025 0)
(0.357219 -0.410121 3.67396e-18)
(0.35125 -0.403344 -3.63833e-18)
(0.345388 -0.39669 0)
(0.339628 -0.390152 -1.42543e-17)
(0.333965 -0.383725 1.41822e-17)
(0.328394 -0.377403 3.50884e-18)
(0.322909 -0.37118 0)
(0.317506 -0.365053 6.9045e-18)
(0.312185 -0.359018 -3.42465e-18)
(0.306941 -0.353074 1.16749e-23)
(0.301773 -0.347217 6.71081e-18)
(0.296678 -0.341446 -1.34058e-17)
(0.291655 -0.335758 -6.63483e-18)
(0.2867 -0.33015 -6.58238e-18)
(0.281813 -0.32462 -6.53031e-18)
(0.27699 -0.319167 0)
(0.272231 -0.313789 6.42683e-18)
(0.267532 -0.308483 -6.37537e-18)
(0.262893 -0.303247 -1.26479e-17)
(0.258312 -0.298081 -6.27262e-18)
(0.253787 -0.292981 -1.24078e-17)
(0.249316 -0.287947 1.85446e-17)
(0.244898 -0.282977 -1.2201e-17)
(0.240531 -0.278068 6.10293e-18)
(0.236215 -0.273221 1.80084e-17)
(0.231947 -0.268432 -6.00028e-18)
(0.227726 -0.263701 5.91104e-18)
(0.223552 -0.259027 -1.16792e-17)
(0.219421 -0.254407 1.16513e-17)
(0.215335 -0.249841 0)
(0.21129 -0.245327 -2.28027e-17)
(0.207286 -0.240865 -1.12952e-17)
(0.203322 -0.236451 1.11887e-17)
(0.199396 -0.232086 -2.21638e-17)
(0.195508 -0.227768 1.09749e-17)
(0.191655 -0.223496 -2.16927e-17)
(0.187838 -0.219269 2.15641e-17)
(0.184054 -0.215084 7.41325e-23)
(0.180302 -0.210941 1.05014e-17)
(0.176582 -0.206839 -4.51026e-20)
(0.172892 -0.202775 -1.0332e-17)
(0.169232 -0.198751 1.0179e-17)
(1.65526 -1.83876 -6.19918e-17)
(1.33203 -1.54997 -6.05919e-17)
(1.21866 -1.39472 5.16851e-20)
(1.13061 -1.29841 9.75379e-17)
(1.06521 -1.22306 -4.16147e-17)
(1.01206 -1.16209 4.31981e-17)
(0.967239 -1.11071 -3.53056e-17)
(0.928391 -1.06618 0)
(0.894027 -1.02681 2.06284e-18)
(0.86314 -0.99142 2.93035e-17)
(0.834943 -0.959119 -2.80511e-17)
(0.808869 -0.929252 3.59533e-18)
(0.784574 -0.901425 1.73614e-18)
(0.761824 -0.875371 -2.51983e-17)
(0.740436 -0.850883 2.77593e-17)
(0.72026 -0.827789 2.69536e-17)
(0.701172 -0.805944 -2.47511e-17)
(0.683065 -0.785226 2.41068e-17)
(0.665854 -0.765536 -2.35881e-17)
(0.649466 -0.746788 -1.44023e-18)
(0.633838 -0.728912 -2.25286e-17)
(0.618918 -0.711846 2.21002e-17)
(0.604657 -0.695534 2.70393e-18)
(0.591011 -0.679927 -2.6503e-18)
(0.577942 -0.66498 0)
(0.565413 -0.65065 -2.03746e-17)
(0.553389 -0.636898 2.00374e-17)
(0.541837 -0.623686 -2.45659e-18)
(0.530728 -0.610979 0)
(0.520032 -0.598745 2.13233e-17)
(0.50972 -0.58695 -2.10114e-17)
(0.499767 -0.575565 -2.29266e-17)
(0.490148 -0.564561 1.80978e-17)
(0.48084 -0.553912 -1.77868e-17)
(0.47182 -0.543593 1.97729e-17)
(0.46307 -0.533583 0)
(0.454573 -0.523862 2.13585e-18)
(0.446314 -0.514412 2.10819e-18)
(0.43828 -0.505221 -1.24645e-17)
(0.430461 -0.496275 3.28773e-17)
(0.422847 -0.487564 -4.10447e-18)
(0.415429 -0.479077 -2.80441e-17)
(0.408198 -0.470806 1.58478e-17)
(0.401145 -0.46274 7.78983e-18)
(0.394261 -0.454869 -1.5463e-17)
(0.387536 -0.447181 3.81445e-18)
(0.38096 -0.439667 1.50609e-17)
(0.374525 -0.432315 -7.48643e-18)
(0.368221 -0.425116 1.84346e-17)
(0.362042 -0.418059 -1.09911e-17)
(0.355981 -0.411139 -9.39518e-24)
(0.350031 -0.404347 0)
(0.344189 -0.397677 -1.41851e-17)
(0.338447 -0.391124 1.76337e-17)
(0.332803 -0.384681 0)
(0.327249 -0.378344 0)
(0.321781 -0.372105 1.37194e-17)
(0.316395 -0.365963 -6.87803e-18)
(0.31109 -0.359914 -1.69515e-17)
(0.305863 -0.353955 -1.00473e-17)
(0.30071 -0.348084 1.33642e-17)
(0.295631 -0.342298 -6.61717e-18)
(0.290623 -0.336595 6.53699e-18)
(0.285684 -0.330973 -6.54956e-18)
(0.280811 -0.325429 -1.29078e-17)
(0.276003 -0.319962 1.28743e-17)
(0.271258 -0.314569 -1.27456e-17)
(0.266573 -0.309249 0)
(0.261948 -0.303999 2.50725e-17)
(0.257381 -0.298818 -1.24907e-17)
(0.25287 -0.293704 -1.23262e-17)
(0.248412 -0.288656 6.1671e-18)
(0.244008 -0.283672 0)
(0.239655 -0.27875 6.03559e-18)
(0.235352 -0.273888 0)
(0.231097 -0.269086 5.93836e-18)
(0.22689 -0.264341 5.85192e-18)
(0.222728 -0.259653 -1.17189e-17)
(0.218611 -0.25502 0)
(0.214537 -0.250441 5.74142e-18)
(0.210506 -0.245914 2.27665e-17)
(0.206515 -0.241437 1.12832e-17)
(0.202564 -0.237011 -1.11827e-17)
(0.198651 -0.232633 6.7665e-23)
(0.194775 -0.228302 0)
(0.190935 -0.224017 -1.08793e-17)
(0.187131 -0.219776 -4.33139e-20)
(0.183359 -0.215579 -4.39703e-20)
(0.179621 -0.211423 0)
(0.175913 -0.207308 -1.04727e-17)
(0.172236 -0.203233 2.06967e-17)
(0.16859 -0.199196 -4.66568e-20)
(1.65004 -1.84356 -6.1812e-17)
(1.32713 -1.55406 -6.01683e-17)
(1.2142 -1.39845 1.06919e-16)
(1.1265 -1.3018 -4.81724e-17)
(1.0613 -1.22624 0)
(1.00834 -1.16509 0)
(0.963678 -1.11356 0)
(0.924967 -1.06891 3.44773e-17)
(0.890728 -1.02941 -3.24344e-17)
(0.859956 -0.99393 1.91899e-18)
(0.831868 -0.961545 2.93163e-17)
(0.805896 -0.931602 -1.80412e-18)
(0.781694 -0.903703 -5.61919e-17)
(0.759028 -0.877577 2.4752e-17)
(0.737717 -0.853018 -3.20006e-18)
(0.717615 -0.829858 2.64271e-17)
(0.698598 -0.807953 1.4752e-18)
(0.68056 -0.78718 -2.51479e-17)
(0.663416 -0.767439 0)
(0.647092 -0.748644 2.5387e-17)
(0.631526 -0.730724 -2.21189e-17)
(0.616665 -0.713615 2.70478e-18)
(0.60246 -0.697264 -2.64988e-18)
(0.588869 -0.681619 2.59735e-18)
(0.575852 -0.666636 0)
(0.563372 -0.652271 1.99686e-17)
(0.551395 -0.638486 -1.96391e-17)
(0.539889 -0.625243 2.4079e-18)
(0.528823 -0.612507 2.36546e-18)
(0.518169 -0.600243 -4.65004e-18)