/*--------------------------------*- C++ -*----------------------------------*\
  =========                 |
  \\      /  F ield         | OpenFOAM: The Open Source CFD Toolbox
   \\    /   O peration     | Website:  https://openfoam.org
    \\  /    A nd           | Version:  10
     \\/     M anipulation  |
\*---------------------------------------------------------------------------*/
FoamFile
{
    format      ascii;
    class       volScalarField;
    location    "53000";
    object      Co;
}
// * * * * * * * * * * * * * * * * * * * * * * * * * * * * * * * * * * * * * //

dimensions      [0 0 0 0 0 0 0];

internalField   nonuniform List<scalar> 
17969
(
80.3756
61.6232
58.21
48.4258
41.2252
42.2548
48.5003
82.994
133.994
218.144
318.315
428.228
539.964
645.787
739.76
818.401
880.332
926.086
957.429
976.611
986.07
988.041
984.389
976.637
965.954
953.206
939.025
923.863
908.032
891.744
875.142
858.323
841.353
824.28
807.138
789.952
772.741
755.518
738.295
721.08
703.882
686.705
669.555
652.438
635.357
618.316
601.321
584.374
567.479
550.638
533.856
517.134
500.476
483.881
467.354
450.895
434.505
418.186
401.939
385.765
369.664
353.637
337.686
321.81
306.011
290.289
274.646
259.082
243.599
228.199
212.883
197.654
182.514
167.468
156.682
150.193
145.172
152.338
159.474
166.293
172.825
179.088
185.095
190.859
196.392
201.7
206.793
211.679
216.368
220.872
225.197
229.343
233.31
237.102
240.729
244.199
247.522
250.705
253.759
256.692
80.4583
58.8041
61.8645
59.2196
52.5217
42.3893
38.3574
43.1127
52.2274
85.4212
130.605
204.262
292.3
390.914
494.478
596.773
692.086
776.064
846.141
901.306
942.026
969.778
986.47
994.197
994.874
990.141
981.379
969.68
955.884
940.626
924.371
907.447
890.082
872.429
854.589
836.63
818.599
800.528
782.44
764.35
746.271
728.213
710.182
692.186
674.231
656.322
638.464
620.66
602.915
585.232
567.614
550.064
532.584
515.176
497.842
480.582
463.397
446.289
429.259
412.306
395.43
378.634
361.915
345.276
328.716
312.236
295.836
279.517
263.28
247.125
231.055
215.071
199.176
183.373
172.225
165.755
159.614
164.967
172.227
179.158
185.789
192.138
198.219
204.044
209.625
214.97
220.087
224.983
229.662
234.131
238.401
242.479
246.371
250.078
253.605
256.965
260.168
263.223
266.14
268.929
79.962
53.2046
58.4077
59.2922
57.1099
52.3843
44.6788
40.7922
43.8376
49.7068
58.7619
88.4074
127.112
187.738
263.427
350.062
444.013
540.443
634.304
720.968
796.867
859.88
909.209
945.368
969.726
983.991
990.006
989.428
983.721
974.153
961.737
947.266
931.352
914.448
896.88
878.872
860.574
842.088
823.482
804.802
786.081
767.342
748.605
729.882
711.187
692.529
673.916
655.356
636.855
618.418
600.05
581.753
563.53
545.384
527.316
509.327
491.419
473.59
455.842
438.175
420.589
403.084
385.66
368.316
351.052
333.869
316.766
299.744
282.802
265.942
249.164
232.469
215.86
199.34
187.863
181.44
175.336
177.351
184.722
191.75
198.464
204.879
211.012
216.873
222.475
227.828
232.939
237.814
242.458
246.873
251.064
255.037
258.803
262.368
265.743
268.939
271.97
274.845
277.576
280.174
80.3239
49.0789
54.1928
56.2919
56.1972
54.5416
51.2239
45.7708
43.5351
46.3405
50.7908
57.1921
65.8799
89.6142
122.588
170.079
234.372
309.212
392.631
481.275
570.854
656.994
735.724
804.046
860.295
904.001
935.82
957.04
969.177
973.818
972.398
966.212
956.38
943.809
929.22
913.174
896.098
878.301
860.006
841.365
822.489
803.454
784.317
765.118
745.89
726.658
707.443
688.26
669.122
650.04
631.022
612.074
593.199
574.402
555.684
537.047
518.492
500.019
481.627
463.318
445.09
426.943
408.877
390.892
372.986
355.159
337.411
319.742
302.15
284.636
267.2
249.842
232.565
215.369
203.601
197.257
191.216
189.5
196.967
204.073
210.847
217.307
223.465
229.336
234.929
240.254
245.32
250.134
254.701
259.023
263.102
266.941
270.544
273.921
277.086
280.062
282.867
285.512
288.007
290.363
292.591
294.703
296.713
298.636
81.5899
47.4379
52.431
55.1472
56.2417
56.3755
55.5744
53.6615
50.2575
45.5125
44.1266
47.1562
51.6919
57.957
66.1535
83.1731
111.423
147.766
202.454
266.856
340.141
420.199
503.777
586.941
665.816
737.063
798.333
848.469
887.319
915.576
934.377
945.046
948.923
947.222
941.055
931.387
919.012
904.582
888.618
871.529
853.625
835.139
816.24
797.055
777.678
758.177
738.607
719.007
699.409
679.835
660.304
640.827
621.415
602.073
582.806
563.616
544.505
525.474
506.523
487.651
468.858
450.144
431.508
412.949
394.467
376.062
357.731
339.474
321.291
303.18
285.141
267.172
249.275
231.451
219.431
213.202
207.254
202.602
208.955
216.116
222.927
229.404
235.56
241.407
246.954
252.213
257.19
261.894
266.33
270.504
274.419
278.076
281.478
284.631
287.546
290.252
292.782
295.149
297.36
299.423
301.35
303.153
304.848
306.45
83.1599
46.8877
52.0465
55.2545
57.0647
58.2083
58.7999
58.8053
58.0812
56.3803
53.3279
48.4546
43.2025
42.5452
46.4771
51.9674
59.1784
70.0844
94.6491
124.32
169.554
225.224
289.418
360.981
437.594
516.063
592.862
664.727
729.034
784.039
828.941
863.751
889.125
906.052
915.655
919.031
917.195
911.1
901.565
889.305
874.928
858.943
841.76
823.701
805.015
785.888
766.46
746.836
727.094
707.289
687.465
667.651
647.868
628.131
608.45
588.832
569.281
549.799
530.389
511.049
491.781
472.584
453.459
434.405
415.422
396.508
377.663
358.886
340.175
321.529
302.946
284.424
265.963
247.562
235.338
229.262
223.439
217.872
220.667
227.862
234.682
241.144
247.261
253.044
258.503
263.647
268.484
273.021
277.268
281.231
284.917
288.333
291.485
294.375
297.013
299.422
301.642
303.69
305.568
307.284
308.848
310.276
311.585
312.796
84.7373
46.3715
51.6443
55.0897
57.1463
58.621
59.7145
60.467
60.8447
60.7679
60.0817
58.54
55.809
51.4778
45.0559
40.2642
41.2031
45.8428
52.0606
59.9856
79.6987
105.643
142.073
190.506
246.55
309.755
378.646
450.842
523.455
593.537
658.469
716.205
765.404
805.491
836.57
859.229
874.312
882.755
885.424
883.18
876.838
867.141
854.758
840.274
824.189
806.909
788.758
769.986
750.782
731.286
711.602
691.805
671.946
652.065
632.188
612.331
592.509
572.727
552.993
533.31
513.681
494.108
474.591
455.133
435.734
416.394
397.114
377.891
358.725
339.614
320.556
301.547
282.585
263.667
251.293
245.416
239.755
234.316
232.073
239.269
246.062
252.469
258.504
264.177
269.497
274.471
279.107
283.415
287.404
291.088
294.483
297.602
300.457
303.053
305.393
307.491
309.372
311.051
312.531
313.822
314.94
315.904
316.738
317.469
318.124
86.2911
45.6673
50.8936
54.3232
56.2935
57.6922
58.7679
59.5953
60.1911
60.5392
60.5926
60.2633
59.4053
57.8005
55.153
51.0916
45.1712
39.831
39.7059
43.827
49.4213
56.6194
71.2596
94.4037
123.336
165.654
214.33
269.401
330.071
394.767
461.337
527.361
590.427
648.41
699.655
743.108
778.368
805.624
825.418
838.448
845.423
847.074
844.153
837.382
827.443
814.958
800.479
784.472
767.32
749.327
730.725
711.693
692.361
672.825
653.154
633.396
613.587
593.752
573.907
554.068
534.242
514.438
494.664
474.922
455.219
435.555
415.933
396.356
376.821
357.328
337.874
318.455
299.067
279.705
267.246
261.624
256.173
250.895
245.924
250.256
256.976
263.282
269.185
274.693
279.814
284.554
288.923
292.933
296.603
299.955
303.013
305.8
308.334
310.615
312.631
314.373
315.847
317.066
318.043
318.798
319.356
319.746
320.001
320.156
320.244
320.299
320.349
87.9044
45.0254
50.1734
53.4657
55.1914
56.3242
57.1526
57.7739
58.2243
58.512
58.6272
58.5428
58.2074
57.5327
56.3828
54.568
51.8305
47.8451
42.219
39.6243
41.853
45.7171
50.9567
57.6993
67.8379
88.7249
112.855
147.919
190.196
237.777
290.389
347.156
406.641
466.994
526.17
582.167
633.224
677.97
715.653
746.098
769.534
786.409
797.266
802.682
803.299
799.765
792.718
782.763
770.457
756.289
740.673
723.949
706.388
688.201
669.548
650.551
631.299
611.859
592.282
572.604
552.855
533.055
513.226
493.382
473.534
453.689
433.857
414.045
394.254
374.484
354.734
335
315.278
295.561
283.095
277.797
272.616
267.546
262.607
260.986
267.29
273.436
279.146
284.424
289.276
293.716
297.759
301.427
304.748
307.753
310.465
312.903
315.075
316.972
318.563
319.817
320.737
321.347
321.678
321.762
321.636
321.34
320.919
320.413
319.865
319.312
318.785
318.314
89.6219
44.6226
49.7558
52.8539
54.2939
55.1123
55.6283
55.9554
56.1415
56.2068
56.1543
55.9781
55.6614
55.1741
54.4659
53.4557
52.0234
50.0047
47.1867
43.2989
41.6956
43.2753
45.7352
49.2723
54.0623
60.2372
67.8599
84.4886
105.985
132.953
169.905
211.102
256.541
305.845
358.151
412.178
466.295
518.694
567.7
611.894
650.292
682.435
708.288
728.082
742.196
751.038
755.102
754.919
751.035
743.997
734.321
722.48
708.887
693.897
677.8
660.833
643.186
625.006
606.411
587.489
568.313
548.934
529.408
509.766
490.032
470.229
450.386
430.52
410.635
390.737
370.828
350.908
330.971
311.015
298.643
293.757
288.93
284.151
279.418
274.759
276.798
282.691
288.12
293.092
297.623
301.738
305.455
308.794
311.783
314.437
316.765
318.764
320.422
321.726
322.657
323.204
323.383
323.229
322.782
322.084
321.182
320.126
318.969
317.759
316.543
315.362
314.25
313.234
312.337
311.573
91.4656
44.5588
49.8351
52.7402
53.9122
54.432
54.6424
54.6685
54.5653
54.3601
54.066
53.6852
53.214
52.6426
51.9537
51.1193
50.094
48.8079
47.1606
45.7624
45.3793
45.7287
46.4934
47.8229
49.8903
52.8782
56.9576
62.2645
68.8786
79.5069
98.5819
120.05
151.378
187.531
227.129
270.017
315.762
363.498
412.016
459.837
505.446
547.516
585.021
617.356
644.31
665.942
682.453
694.085
701.17
704.108
703.34
699.318
692.485
683.26
672.024
659.117
644.83
629.413
613.075
595.99
578.299
560.111
541.524
522.615
503.459
484.091
464.592
444.976
425.25
405.446
385.581
365.66
345.682
325.647
313.503
309.139
304.779
300.403
295.999
291.567
288.435
290.858
295.899
300.485
304.643
308.39
311.743
314.711
317.289
319.469
321.236
322.58
323.498
323.993
324.076
323.759
323.074
322.058
320.755
319.215
317.494
315.65
313.743
311.829
309.956
308.167
306.497
304.971
303.609
302.422
301.417
300.596
299.959
299.503
93.4352
44.8398
50.4147
53.1824
54.1288
54.3938
54.3429
54.1097
53.7535
53.3007
52.9762
52.8396
52.706
52.5358
52.3321
52.0986
51.8402
51.5645
51.2836
51.0179
50.7978
50.6645
50.6731
50.8959
51.4277
52.3914
53.9347
56.2224
59.4199
63.6719
69.0849
75.7096
91.1553
110.146
134.974
167.191
202.26
240.018
280.13
322.032
364.869
407.532
448.798
487.521
522.726
553.814
580.52
602.752
620.539
634.001
643.347
648.845
650.812
649.584
645.509
638.927
630.16
619.509
607.247
593.615
578.825
563.072
546.52
529.316
511.585
493.39
474.812
455.892
436.734
417.407
397.929
378.311
358.564
338.699
326.972
323.273
319.514
315.676
311.744
307.708
303.57
301.069
302.304
306.427
310.072
313.26
316.013
318.34
320.239
321.706
322.722
323.271
323.351
322.972
322.155
320.931
319.337
317.415
315.222
312.818
310.269
307.644
305.007
302.42
299.934
297.589
295.419
293.446
291.682
290.137
288.811
287.704
286.809
286.119
95.53
45.4639
51.4186
54.1107
54.9865
55.5624
56.1308
56.5369
56.8389
57.0673
57.2392
57.3631
57.444
57.4846
57.486
57.4489
57.3734
57.2603
57.1113
56.9304
56.7256
56.5114
56.3105
56.154
56.0829
56.1517
56.4333
57.0253
58.0515
59.6584
62.0051
65.2448
69.5039
74.87
85.2046
102.114
121.716
150.698
182.091
215.656
251.068
287.839
325.31
362.69
399.058
433.521
465.336
494.006
519.231
540.837
558.754
573.002
583.678
590.934
594.969
596.008
594.299
590.094
583.644
575.197
564.985
553.231
540.115
525.836
510.551
494.467
477.758
460.476
442.698
424.528
406.023
387.228
368.15
348.852
337.841
335.01
332.033
328.896
325.585
322.089
318.401
314.519
311.331
311.241
312.98
315.496
317.506
319.022
320.052
320.608
320.698
320.328
319.494
318.195
316.451
314.296
311.778
308.948
305.871
302.622
299.281
295.923
292.62
289.436
286.419
283.609
281.032
278.704
276.634
274.822
273.266
271.957
270.887
270.043
97.7432
46.4398
52.8232
55.9585
57.6694
58.7254
59.4678
60.0398
60.5062
60.9001
61.238
61.5305
61.7834
61.9996
62.1801
62.3246
62.4317
62.4996
62.5264
62.5102
62.4502
62.3472
62.2053
62.0337
61.8488
61.6741
61.5399
61.4876
61.5726
61.8722
62.4897
63.554
65.2143
67.6281
70.9414
75.2691
81.4899
96.5663
113.403
137.807
165.853
195.655
226.854
259.004
291.582
323.978
355.495
385.501
413.493
439.087
462.003
482.05
499.116
513.163
524.207
532.315
537.59
540.166
540.2
537.866
533.347
526.836
518.514
508.574
497.167
484.482
470.683
455.921
440.337
424.063
407.207
389.913
372.231
354.179
344.339
342.663
340.715
338.5
336.012
333.238
330.169
326.799
323.123
319.137
317.123
315.987
315.196
315.868
316
315.61
314.718
313.344
311.508
309.229
306.527
303.433
300.002
296.304
292.41
288.401
284.366
280.387
276.54
272.885
269.469
266.324
263.469
260.914
258.659
256.698
255.022
253.617
252.47
251.565
100.06
47.7576
55.0435
58.7051
60.6221
61.7948
62.6405
63.3126
63.8806
64.3797
64.8293
65.2407
65.6201
65.9709
66.2943
66.5901
66.8567
67.0918
67.2923
67.4547
67.5752
67.6501
67.6763
67.6522
67.5787
67.4613
67.3116
67.1479
66.9943
66.8835
66.8596
66.9845
67.3437
68.0484
69.2337
71.0502
73.6472
77.1549
81.6691
93.3472
108.284
127.684
152.562
178.815
206.097
234.019
262.116
289.887
316.86
342.615
366.795
389.106
409.321
427.268
442.829
455.937
466.563
474.715
480.434
483.785
484.859
483.763
480.623
475.596
468.818
460.435
450.594
439.454
427.182
413.911
399.727
384.721
369.02
352.765
344.525
344.281
343.643
342.625
341.21
339.395
337.172
334.534
331.476
327.993
324.085
319.754
315.827
313.453
310.578
307.226
304.065
301.748
298.956
295.723
292.088
288.101
283.831
279.361
274.773
270.151
265.581
261.148
256.926
252.974
249.329
246.014
243.04
240.408
238.109
236.131
234.458
233.073
231.957
231.093
230.461
102.462
49.3811
57.4981
61.4787
63.4474
64.6557
65.5364
66.2483
66.863
67.4171
67.9308
68.4158
68.879
69.3243
69.7534
70.1663
70.5617
70.9374
71.2902
71.616
71.9101
72.1675
72.3828
72.5508
72.667
72.7279
72.7326
72.6842
72.5909
72.4685
72.3386
72.2293
72.1781
72.2359
72.4736
72.9842
73.8838
75.3064
77.3934
80.2738
84.0507
91.8831
105.013
119.51
141.292
164.162
187.77
211.742
235.701
259.285
282.162
304.032
324.637
343.756
361.209
376.852
390.573
402.295
411.966
419.563
425.087
428.561
430.035
429.588
427.306
423.287
417.634
410.466
401.922
392.138
381.227
369.293
356.441
342.787
336.685
338.177
339.129
339.573
339.508
338.928
337.825
336.193
334.026
331.317
328.067
324.278
319.958
315.121
309.79
303.991
298.417
293.747
288.632
283.113
277.232
271.036
264.556
258.298
253.199
248.158
243.256
238.572
234.179
230.129
226.448
223.148
220.227
217.677
215.482
213.624
212.082
210.834
209.859
209.135
208.643
104.934
51.3339
60.0862
64.1387
66.0565
67.2234
68.0748
68.7697
69.3797
69.9413
70.475
70.9927
71.5015
72.0056
72.5069
73.0056
73.5005
73.9895
74.4691
74.935
75.3823
75.805
76.1968
76.5511
76.8614
77.1214
77.3257
77.4701
77.5531
77.5769
77.5487
77.4828
77.4005
77.3286
77.3012
77.3619
77.5694
78.0001
78.7493
79.9286
81.6601
84.0626
87.2378
91.3678
102.756
115.211
131.19
150.824
170.971
191.319
211.572
231.455
250.72
269.144
286.532
302.715
317.548
330.909
342.696
352.831
361.254
367.929
372.838
375.992
377.419
377.163
375.283
371.852
366.966
360.729
353.246
344.619
334.943
324.317
320.625
323.972
326.68
328.773
330.26
331.137
331.395
331.028
330.021
328.367
326.064
323.11
319.511
315.281
310.441
305.018
299.048
292.569
285.628
278.268
270.533
262.457
254.041
245.732
238.425
230.962
223.433
215.931
208.924
204.99
201.472
198.369
195.67
193.356
191.406
189.796
188.502
187.498
186.762
186.27
186.004
107.458
53.5222
62.6393
66.5415
68.3298
69.3961
70.1672
70.7989
71.3614
71.8908
72.4074
72.923
73.4451
73.9778
74.523
75.0811
75.6507
76.2293
76.8132
77.3976
77.9766
78.5437
79.0915
79.6125
80.0988
80.5425
80.9365
81.2743
81.5505
81.7619
81.9075
81.9902
82.0181
82.0049
81.972
81.9466
81.9613
82.0552
82.2767
82.6881
83.3652
84.397
85.8815
87.9174
90.5911
93.969
100.791
111.393
122.715
138.195
155.191
172.307
189.305
205.97
222.105
237.538
252.111
265.688
278.147
289.382
299.301
307.832
314.916
320.517
324.616
327.213
328.324
327.985
326.247
323.181
318.865
313.382
306.816
299.249
297.936
303.025
307.428
311.167
314.247
316.663
318.401
319.455
319.793
319.406
318.283
316.415
313.8
310.448
306.377
301.61
296.182
290.133
283.51
276.362
268.736
260.68
252.225
243.341
233.974
224.137
213.923
203.454
193.225
185.88
178.662
172.416
170.088
168.147
166.566
165.316
164.37
163.702
163.288
163.106
163.135
163.357
110.007
55.759
64.9894
68.6013
70.1935
71.109
71.7566
72.2855
72.7637
73.2264
73.6937
74.1776
74.6855
75.2214
75.7873
76.3832
77.0074
77.6569
78.3271
79.0122
79.7055
80.3989
81.0841
81.7519
82.3932
82.9987
83.56
84.0689
84.5187
84.9041
85.2213
85.4689
85.6482
85.7638
85.8251
85.847
85.8501
85.8619
85.914
86.0423
86.2873
86.6985
87.3348
88.2637
89.5586
91.2948
93.5408
96.3487
99.747
107.451
116.898
126.774
140.23
154.521
168.707
182.609
196.069
208.941
221.093
232.407
242.777
252.109
260.323
267.356
273.159
277.699
280.961
282.949
283.684
283.203
281.557
278.808
275.022
270.268
271.081
277.632
283.508
288.725
293.281
297.164
300.349
302.835
304.572
305.542
305.73
305.106
303.648
301.368
298.276
294.388
289.731
284.343
278.268
271.555
264.257
256.426
248.117
239.347
230.081
220.294
210.021
199.373
188.466
177.377
166.105
155.519
148.67
142.721
141.618
140.826
140.317
140.064
140.042
140.23
140.612
141.171
112.565
58.1273
67.2396
70.2592
71.6082
72.3316
72.8166
73.206
73.5657
73.9301
74.3192
74.745
75.2146
75.7322
76.2994
76.9158
77.579
78.2849
79.028
79.801
80.5955
81.402
82.2101
83.0091
83.7879
84.536
85.2431
85.9002
86.4991
87.0333
87.4981
87.8904
88.2094
88.4565
88.6358
88.7543
88.8228
88.8571
88.8776
88.91
88.9842
89.133
89.3907
89.795
90.39
91.2248
92.3515
93.8223
95.6849
97.9757
100.715
103.902
110.909
119.019
127.35
137.934
149.721
161.278
172.469
183.166
193.255
202.63
211.2
218.882
225.61
231.331
236.008
239.621
242.168
243.663
244.133
243.62
242.175
239.852
242.442
250.121
257.176
263.617
269.436
274.616
279.123
282.936
286.008
288.296
289.792
290.469
290.256
289.152
287.164
284.297
280.568
276.008
270.655
264.553
257.755
250.316
242.298
233.754
224.69
215.101
204.991
194.42
183.481
172.277
160.858
149.237
137.434
126.274
119.844
116.966
116.971
117.203
117.635
118.247
119.019
119.942
115.093
60.3968
69.8047
72.8718
74.2839
75.14
75.7223
76.1269
76.3927
76.5359
76.5616
76.4692
76.255
75.9429
76.0705
76.6937
77.384
78.1361
78.9427
79.7948
80.6819
81.5923
82.5134
83.4324
84.3363
85.2124
86.049
86.8357
87.5631
88.224
88.8128
89.3258
89.7614
90.1199
90.404
90.6179
90.7685
90.865
90.9192
90.9466
90.967
91.0033
91.0822
91.2321
91.4821
91.8608
92.3985
93.1288
94.0861
95.3036
96.811
98.6313
100.777
103.248
106.029
111.302
118.065
124.903
132.35
141.932
151.209
160.072
168.419
176.159
183.213
189.513
195.009
199.662
203.454
206.379
208.449
209.688
210.134
209.829
213.836
222.326
230.269
237.666
244.506
250.765
256.411
261.403
265.694
269.212
271.927
273.833
274.857
274.955
274.12
272.345
269.635
266.01
261.5
256.141
249.983
243.078
235.487
227.271
218.478
209.139
199.279
188.933
178.158
167.028
155.609
143.943
132.06
119.988
107.753
98.9421
94.7748
95.5524
96.496
97.5785
98.7794
100.093
117.579
62.5764
72.1879
75.5173
77.2801
78.5075
79.4593
80.2253
80.8428
81.3271
81.6833
81.9112
82.0068
81.9642
81.7758
81.4333
80.9278
80.2503
79.392
79.2166
80.0045
81.0139
82.0423
83.0745
84.0951
85.0896
86.0444
86.9475
87.7887
88.5598
89.2547
89.8694
90.4019
90.8525
91.2229
91.517
91.7402
91.8996
92.0035
92.0624
92.0885
92.0961
92.1027
92.1286
92.1959
92.3279
92.548
92.8776
93.3362
93.9446
94.7235
95.6925
96.8684
98.2638
99.8852
101.731
103.79
106.042
109.099
114.589
120.049
125.403
132.213
139.551
146.458
152.858
158.688
163.901
168.462
172.353
175.572
178.131
180.053
181.373
186.472
195.503
204.076
212.189
219.824
226.954
233.537
239.528
244.877
249.512
253.366
256.407
258.581
259.836
260.136
259.459
257.798
255.157
251.553
247.017
241.589
235.32
228.271
220.501
212.073
203.038
193.444
183.338
172.772
161.804
150.49
138.877
127.003
114.903
102.605
90.1348
79.4537
75.1709
76.661
78.2567
79.9363
81.6996
119.989
64.6009
74.3427
77.9838
80.1458
81.7879
83.151
84.3203
85.3318
86.2002
86.9299
87.5202
87.9666
88.2625
88.4002
88.3708
88.1647
87.7721
87.1836
86.3902
85.3838
84.1577
82.7071
82.2502
83.1227
84.23
85.2961
86.3075
87.253
88.1237
88.9129
89.6165
90.2325
90.761
91.204
91.565
91.849
92.0624
92.2126
92.3079
92.3577
92.3722
92.363
92.343
92.3262
92.3292
92.3698
92.4659
92.6345
92.8917
93.25
93.7198
94.3122
95.0373
95.9031
96.9148
98.074
99.3766
100.812
102.362
104.004
105.703
109.108
113.295
117.296
121.532
127.306
132.68
137.612
142.074
146.054
149.552
152.582
155.171
161.078
170.429
179.422
188.046
196.281
204.093
211.438
218.265
224.511
230.108
234.981
239.068
242.306
244.638
246.016
246.402
245.77
244.11
241.426
237.736
233.074
227.487
221.034
213.781
205.792
197.132
187.86
178.034
167.711
156.947
145.792
134.293
122.49
110.418
98.1091
85.5928
72.895
61.5715
58.2428
60.3798
62.5847
64.8512
122.309
66.3658
76.1871
80.1849
82.7922
84.8958
86.7166
88.3336
89.7806
91.0718
92.212
93.2006
94.0334
94.7037
95.203
95.5218
95.6496
95.5758
95.2899
94.7821
94.0435
93.067
91.847
90.3803
88.6657
86.7046
85.0474
84.9857
86.0308
86.9954
87.8726
88.658
89.3498
89.9481
90.4551
90.8745
91.2114
91.4717
91.6627
91.7918
91.8674
91.898
91.8929
91.8614
91.8132
91.7591
91.7101
91.6783
91.6772
91.7201
91.8184
91.982
92.2198
92.5363
92.9345
93.4179
93.9884
94.6451
95.384
96.1972
97.0721
97.9884
98.9193
99.8313
100.682
101.924
104.906
107.631
110.987
115.694
120.105
124.215
128.031
131.571
138.042
147.538
156.776
165.743
174.413
182.749
190.702
198.214
205.219
211.642
217.403
222.426
226.635
229.962
232.346
233.735
234.088
233.377
231.593
228.741
224.849
219.96
214.134
207.437
199.94
191.714
182.826
173.339
163.314
152.805
141.864
130.534
118.858
106.872
94.6097
82.1018
69.3776
56.4645
45.6549
44.3176
47.0782
49.8878
124.527
67.7846
77.6653
82.0731
85.1713
87.7748
90.0864
92.1822
94.096
95.8425
97.4265
98.8474
100.101
101.179
102.074
102.775
103.27
103.547
103.596
103.404
102.963
102.264
101.301
100.071
98.5715
96.8056
94.7773
92.4933
89.9625
87.1961
86.2303
87.079
87.8438
88.5087
89.0762
89.5502
89.9359
90.2394
90.4678
90.6285
90.7292
90.7779
90.7827
90.7516
90.6926
90.6137
90.5224
90.4269
90.3357
90.2564
90.1977
90.1687
90.1772
90.228
90.3248
90.4696
90.6609
90.8951
91.1682
91.4739
91.8015
92.136
92.458
92.742
92.9552
93.0564
92.9966
92.719
93.1281
94.9484
97.6591
102.12
106.454
110.677
117.511
127.011
136.358
145.531
154.5
163.226
171.656
179.727
187.368
194.498
201.031
206.882
211.965
216.2
219.513
221.836
223.115
223.306
222.385
220.347
217.212
213.024
207.839
201.728
194.763
187.02
178.568
169.476
159.803
149.606
138.936
127.837
116.35
104.514
92.3619
79.9263
67.2374
54.3241
41.2145
32.0221
33.6859
37.0593
126.625
68.7617
78.6848
83.5473
87.1742
90.3135
93.1518
95.7616
98.1767
100.412
102.473
104.359
106.065
107.585
108.907
110.022
110.916
111.576
111.99
112.145
112.03
111.636
110.956
109.986
108.724
107.173
105.338
103.226
100.848
98.2154
95.3427
92.2451
88.9387
87.0616
87.1583
87.6868
88.1209
88.467
88.7321
88.9236
89.0492
89.1167
89.1336
89.1076
89.0456
88.9546
88.8408
88.7105
88.5694
88.4223
88.2744
88.1312
87.9964
87.8743
87.7691
87.6828
87.6138
87.5594
87.5154
87.4726
87.4181
87.3377
87.2137
87.023
86.7364
86.3181
85.7257
84.9086
83.8076
82.3551
81.7158
83.0243
87.687
92.3886
99.4311
108.838
118.19
127.464
136.627
145.636
154.436
162.96
171.132
178.866
186.071
192.654
198.52
203.578
207.741
210.928
213.069
214.108
214.005
212.749
210.349
206.855
202.32
196.814
190.412
183.19
175.222
166.574
157.308
147.48
137.141
126.334
115.102
103.481
91.5053
79.2073
66.6172
53.7641
40.6762
27.3814
22.5303
26.471
128.587
69.2179
79.1847
84.5507
88.7444
92.4522
95.8473
99.0003
101.945
104.697
107.264
109.643
111.831
113.821
115.601
117.159
118.482
119.555
120.364
120.895
121.135
121.073
120.702
120.017
119.015
117.7
116.076
114.152
111.939
109.451
106.704
103.715
100.502
97.0826
93.4765
89.7023
86.9241
86.2448
86.5479
86.7712
86.9226
87.0096
87.04
87.021
86.9595
86.8618
86.7338
86.5807
86.4072
86.217
86.0136
85.7996
85.5766
85.3464
85.1105
84.8681
84.6182
84.359
84.0853
83.787
83.4522
83.0676
82.6145
82.0685
81.4007
80.5775
79.5588
78.2969
76.7368
74.8161
72.4643
69.896
71.3872
76.4395
83.5979
92.8564
102.15
111.454
120.735
129.947
139.034
147.927
156.545
164.799
172.592
179.823
186.391
192.193
197.131
201.112
204.05
205.877
206.545
206.037
204.352
201.545
197.661
192.772
186.955
180.287
172.841
164.683
155.874
146.47
136.519
126.066
115.151
103.809
92.075
79.979
67.5509
54.8189
41.8108
28.5536
16.7987
18.1291
130.405
69.0784
79.1146
85.0306
89.822
94.1241
98.1003
101.82
105.319
108.613
111.709
114.607
117.303
119.789
122.054
124.084
125.865
127.38
128.613
129.549
130.172
130.471
130.436
130.061
129.343
128.284
126.89
125.17
123.136
120.805
118.193
115.319
112.203
108.866
105.329
101.611
97.7335
93.7156
89.5766
85.9105
84.4329
84.541
84.5859
84.5752
84.5155
84.4134
84.2744
84.1036
83.9051
83.6824
83.438
83.1735
82.8895
82.586
82.2622
81.9154
81.5428
81.1403
80.6999
80.2118
79.6655
79.0475
78.3381
77.5136
76.5462
75.4032
74.0443
72.4223
70.4842
68.1696
65.4105
62.1312
59.1509
62.47
69.7068
78.8052
88.0149
97.3126
106.665
116.029
125.346
134.546
143.545
152.251
160.561
168.371
175.57
182.047
187.692
192.399
196.071
198.627
200.014
200.208
199.211
197.074
193.848
189.588
184.379
178.294
171.405
163.779
155.474
146.545
137.038
126.997
116.459
105.46
94.0296
82.1989
69.9955
57.4463
44.5774
31.4148
17.9845
11.9572
132.079
68.2674
78.4147
84.9181
90.3329
95.2522
99.8315
104.14
108.214
112.072
115.721
119.161
122.389
125.395
128.169
130.697
132.962
134.946
136.632
138.002
139.039
139.728
140.057
140.019
139.61
138.831
137.687
136.189
134.35
132.187
129.719
126.968
123.955
120.704
117.237
113.576
109.744
105.761
101.649
97.4274
93.1145
88.7287
84.2873
81.9593
81.7858
81.6799
81.531
81.3441
81.1233
80.8721
80.5926
80.2862
79.9529
79.5921
79.2015
78.7774
78.3153
77.8084
77.2471
76.6205
75.9171
75.1209
74.2113
73.1652
71.9561
70.5513
68.911
66.9898
64.7365
62.0911
58.9861
55.3467
51.0907
50.1038
57.4217
66.3805
75.512
84.7965
94.2041
103.692
113.205
122.67
132.005
141.111
149.886
158.217
165.987
173.077
179.367
184.74
189.089
192.325
194.39
195.253
194.918
193.422
190.838
187.214
182.626
177.147
170.847
163.789
156.03
147.622
138.61
129.035
118.932
108.334
97.2699
85.7672
73.8515
61.5475
48.8793
35.8711
22.5473
10.5189
133.622
66.7408
76.995
84.1245
90.1918
95.7526
100.957
105.876
110.547
114.989
119.212
123.215
126.996
130.545
133.851
136.899
139.672
142.153
144.32
146.153
147.633
148.743
149.467
149.796
149.723
149.249
148.379
147.123
145.496
143.516
141.204
138.584
135.681
132.52
129.125
125.521
121.734
117.785
113.697
109.492
105.188
100.807
96.364
91.8777
87.3639
82.8376
79.5251
78.3609
78.118
77.8389
77.526
77.1804
76.8023
76.3904
75.942
75.4528
74.9168
74.3261
73.6699
72.9363
72.1117
71.1781
70.1139
68.8951
67.494
65.8768
64.0039
61.8318
59.3105
56.3809
52.9769
49.0248
44.442
40.0144
46.4322
55.2882
64.3667
73.6519
83.1177
92.7244
102.417
112.126
121.765
131.237
140.433
149.239
157.53
165.179
172.057
178.037
183.006
186.87
189.565
191.063
191.371
190.517
188.561
185.569
181.609
176.751
171.061
164.6
157.422
149.576
141.105
132.045
122.431
112.292
101.653
90.5397
78.9745
66.9791
54.5751
41.7841
28.628
15.1297
11.7061
135.045
64.5423
74.8557
82.6222
89.3535
95.568
101.411
106.955
112.239
117.284
122.099
126.685
131.038
135.148
139.005
142.594
145.898
148.898
151.572
153.899
155.854
157.417
158.57
159.298
159.593
159.453
158.883
157.892
156.497
154.716
152.575
150.097
147.311
144.245
140.926
137.382
133.639
129.722
125.656
121.464
117.167
112.785
108.337
103.84
99.3126
94.7687
90.223
85.6885
81.1774
76.7001
74.305
73.8993
73.4767
73.0152
72.5118
71.9619
71.3588
70.6938
69.9558
69.1315
68.2057
67.1595
65.9702
64.6125
63.0571
61.2688
59.2075
56.8295
54.084
50.9126
47.2503
43.0245
38.1529
32.5444
36.4893
45.28
54.3367
63.6461
73.185
82.9166
92.7879
102.729
112.656
122.468
132.056
141.298
150.067
158.226
165.64
172.175
177.71
182.152
185.435
187.532
188.449
188.22
186.892
184.53
181.203
176.976
171.914
166.073
159.505
152.255
144.364
135.865
126.788
117.16
107.003
96.3385
85.1856
73.5626
61.4878
48.9793
36.0559
22.7378
12.2896
136.351
61.627
71.9674
80.3745
87.7669
94.6342
101.119
107.296
113.206
118.87
124.296
129.484
134.428
139.117
143.54
147.686
151.539
155.081
158.289
161.138
163.602
165.653
167.27
168.433
169.131
169.358
169.118
168.419
167.279
165.719
163.764
161.442
158.784
155.82
152.582
149.1
145.402
141.518
137.472
133.291
128.996
124.61
120.152
115.642
111.096
106.53
101.959
97.3958
92.8534
88.3419
83.8707
79.4474
75.078
71.0586
68.9429
68.3329
67.6647
66.9293
66.1151
65.2081
64.1922
63.0473
61.7502
60.2743
58.5888
56.6576
54.4402
51.8916
48.96
45.586
41.7047
37.2433
32.1188
26.2393
27.405
36.1624
45.2255
54.5829
64.2133
74.0816
84.1365
94.3088
104.513
114.65
124.605
134.253
143.462
152.088
159.99
167.029
173.083
178.057
181.889
184.551
186.05
186.418
185.703
183.965
181.269
177.679
173.255
168.05
162.114
155.489
148.21
140.31
131.813
122.744
113.121
102.961
92.2797
81.0918
69.4111
57.252
44.6294
31.5595
18.0602
137.613
58.0284
68.3314
77.3563
85.3836
92.8833
99.9984
106.805
113.347
119.644
125.703
131.517
137.074
142.36
147.365
152.081
156.499
160.602
164.369
167.771
170.777
173.354
175.474
177.112
178.25
178.881
179.005
178.63
177.772
176.456
174.707
172.558
170.041
167.19
164.04
160.625
156.976
153.124
149.098
144.926
140.631
136.238
131.766
127.238
122.669
118.077
113.476
108.881
104.303
99.7537
95.2416
90.7746
86.3587
81.9977
77.6938
73.4467
69.2539
65.1102
62.387
61.1821
60.0815
58.8458
57.4509
55.8694
54.0693
52.0141
49.6621
46.9673
43.8767
40.3304
36.2626
31.5989
26.2551
20.1376
19.0253
27.7789
36.8735
46.3005
56.0401
66.0585
76.3047
86.7098
97.1875
107.636
117.939
127.968
137.582
146.637
154.982
162.479
169.007
174.47
178.811
182.003
184.054
184.995
184.872
183.744
181.672
178.716
174.933
170.373
165.083
159.1
152.459
145.187
137.307
128.837
119.793
110.188
100.034
89.3404
78.1168
66.3732
54.1201
41.3692
28.1342
138.857
53.7972
63.9749
73.5649
82.1707
90.2549
97.9634
105.377
112.542
119.481
126.196
132.67
138.874
144.782