/*--------------------------------*- C++ -*----------------------------------*\
  =========                 |
  \\      /  F ield         | OpenFOAM: The Open Source CFD Toolbox
   \\    /   O peration     | Website:  https://openfoam.org
    \\  /    A nd           | Version:  10
     \\/     M anipulation  |
\*---------------------------------------------------------------------------*/
FoamFile
{
    format      ascii;
    class       volScalarField;
    location    "53000";
    object      p;
}
// * * * * * * * * * * * * * * * * * * * * * * * * * * * * * * * * * * * * * //

dimensions      [0 2 -2 0 0 0 0];

internalField   nonuniform List<scalar> 
17969
(
-5.96468
-5.955
-5.94742
-5.93941
-5.93079
-5.92165
-5.91193
-5.90155
-5.89046
-5.87848
-5.86531
-5.85076
-5.83475
-5.81734
-5.7986
-5.77857
-5.75741
-5.73546
-5.71278
-5.6892
-5.6647
-5.63936
-5.61321
-5.58623
-5.55837
-5.52962
-5.49998
-5.46938
-5.43779
-5.40521
-5.37159
-5.33691
-5.30114
-5.26426
-5.22623
-5.18701
-5.14659
-5.10492
-5.06196
-5.01769
-4.97207
-4.92505
-4.8766
-4.82667
-4.77523
-4.72224
-4.66763
-4.61137
-4.55342
-4.49371
-4.4322
-4.36883
-4.30354
-4.23629
-4.16701
-4.09563
-4.0221
-3.94635
-3.86831
-3.78792
-3.7051
-3.61977
-3.53187
-3.44132
-3.34804
-3.25195
-3.15296
-3.051
-2.94599
-2.83783
-2.72644
-2.61175
-2.49366
-2.37209
-2.24874
-2.12711
-2.00889
-1.89399
-1.78225
-1.6736
-1.56805
-1.46555
-1.36602
-1.2694
-1.1756
-1.08456
-0.996191
-0.910437
-0.827239
-0.746544
-0.668239
-0.592191
-0.518347
-0.446662
-0.377057
-0.309471
-0.243847
-0.180133
-0.118277
-0.058233
-5.96239
-5.95275
-5.94507
-5.93702
-5.92852
-5.9196
-5.91027
-5.90045
-5.89002
-5.87887
-5.86701
-5.85435
-5.84066
-5.8257
-5.80938
-5.79166
-5.77257
-5.75215
-5.73041
-5.70751
-5.68375
-5.65918
-5.63361
-5.60702
-5.57951
-5.55108
-5.52173
-5.49142
-5.46015
-5.42787
-5.39457
-5.3602
-5.32474
-5.28817
-5.25045
-5.21154
-5.17143
-5.13007
-5.08743
-5.04347
-4.99815
-4.95145
-4.9033
-4.85369
-4.80255
-4.74985
-4.69554
-4.63957
-4.58189
-4.52246
-4.46122
-4.3981
-4.33307
-4.26605
-4.19699
-4.12582
-4.05249
-3.97691
-3.89903
-3.81876
-3.73605
-3.65081
-3.56296
-3.47243
-3.37913
-3.28298
-3.18391
-3.08181
-2.9766
-2.86821
-2.75653
-2.64148
-2.52298
-2.40093
-2.27704
-2.15483
-2.036
-1.92045
-1.80803
-1.69869
-1.59243
-1.48922
-1.38898
-1.29164
-1.19712
-1.10537
-1.01629
-0.929839
-0.845937
-0.764538
-0.685582
-0.608965
-0.534546
-0.462248
-0.392036
-0.323857
-0.25765
-0.193366
-0.13095
-0.0703525
-5.96118
-5.95156
-5.94378
-5.93566
-5.92718
-5.91834
-5.90915
-5.89956
-5.88954
-5.879
-5.86786
-5.85601
-5.84343
-5.83013
-5.81592
-5.80055
-5.78388
-5.76582
-5.74635
-5.72546
-5.70318
-5.67949
-5.65457
-5.62875
-5.60201
-5.57412
-5.54514
-5.51514
-5.48415
-5.45214
-5.41911
-5.38502
-5.34985
-5.31358
-5.27617
-5.23757
-5.19777
-5.15673
-5.11441
-5.07077
-5.02578
-4.97939
-4.93157
-4.88227
-4.83146
-4.77907
-4.72508
-4.66942
-4.61204
-4.55291
-4.49195
-4.42913
-4.36436
-4.29761
-4.2288
-4.15787
-4.08475
-4.00938
-3.93168
-3.85158
-3.76901
-3.68387
-3.59611
-3.50562
-3.41234
-3.31616
-3.21701
-3.11479
-3.00942
-2.90079
-2.78883
-2.67343
-2.5545
-2.43196
-2.30751
-2.18469
-2.06521
-1.94898
-1.83585
-1.72577
-1.61877
-1.51479
-1.41378
-1.31566
-1.22037
-1.12784
-1.038
-0.950779
-0.866119
-0.783958
-0.704247
-0.62693
-0.551904
-0.479011
-0.408151
-0.339307
-0.272453
-0.207537
-0.144504
-0.0833018
-5.96066
-5.95106
-5.94321
-5.93507
-5.92659
-5.91781
-5.90871
-5.89926
-5.88945
-5.87923
-5.86855
-5.85736
-5.84557
-5.83309
-5.81984
-5.80586
-5.79105
-5.77519
-5.75806
-5.73955
-5.71957
-5.69807
-5.67504
-5.65052
-5.62451
-5.59725
-5.56903
-5.53977
-5.50926
-5.47762
-5.44492
-5.41111
-5.37621
-5.34022
-5.3031
-5.26481
-5.22533
-5.18461
-5.14262
-5.09932
-5.05466
-5.00862
-4.96114
-4.91218
-4.86171
-4.80966
-4.756
-4.70067
-4.64363
-4.58482
-4.52418
-4.46166
-4.39721
-4.33074
-4.26222
-4.19156
-4.1187
-4.04356
-3.96608
-3.88618
-3.80378
-3.71879
-3.63114
-3.54074
-3.44749
-3.35132
-3.25212
-3.14981
-3.04429
-2.93545
-2.82321
-2.70747
-2.58813
-2.46508
-2.34006
-2.21661
-2.09646
-1.97953
-1.86566
-1.75482
-1.64702
-1.54223
-1.4404
-1.34146
-1.24533
-1.15197
-1.0613
-0.973253
-0.887776
-0.804805
-0.724282
-0.646161
-0.570388
-0.496849
-0.425364
-0.355832
-0.28826
-0.222646
-0.158936
-0.0970751
-0.0370131
0.0212955
0.0778952
0.132829
-5.96036
-5.95074
-5.94286
-5.9347
-5.92622
-5.91746
-5.90841
-5.89904
-5.88934
-5.87928
-5.86884
-5.85798
-5.84666
-5.83481
-5.82238
-5.80925
-5.79532
-5.78056
-5.76499
-5.74845
-5.73066
-5.71147
-5.69076
-5.66846
-5.64455
-5.61904
-5.59199
-5.56346
-5.53364
-5.50279
-5.47084
-5.43762
-5.40318
-5.36758
-5.33083
-5.2929
-5.25378
-5.21343
-5.17181
-5.12888
-5.0846
-5.03892
-4.99181
-4.94322
-4.89311
-4.84143
-4.78813
-4.73316
-4.67648
-4.61802
-4.55773
-4.49555
-4.43143
-4.3653
-4.29709
-4.22673
-4.15416
-4.0793
-4.00208
-3.92241
-3.84022
-3.75542
-3.66793
-3.57764
-3.48448
-3.38834
-3.28914
-3.18676
-3.08112
-2.9721
-2.85961
-2.74354
-2.62379
-2.50025
-2.37466
-2.25056
-2.12972
-2.01206
-1.89745
-1.78581
-1.67718
-1.57154
-1.46884
-1.36902
-1.27201
-1.17775
-1.08619
-0.997264
-0.910911
-0.827072
-0.745689
-0.666709
-0.590088
-0.515773
-0.443606
-0.373379
-0.305048
-0.238666
-0.174217
-0.11164
-0.0508827
0.00810066
0.0653549
0.120923
-5.96008
-5.95043
-5.94252
-5.93432
-5.92582
-5.91705
-5.90799
-5.89863
-5.88895
-5.87894
-5.86856
-5.85781
-5.84665
-5.83506
-5.82298
-5.81037
-5.79715
-5.78324
-5.76853
-5.7529
-5.73635
-5.71885
-5.70018
-5.68012
-5.65853
-5.63534
-5.6105
-5.58404
-5.55597
-5.52635
-5.49525
-5.46287
-5.42939
-5.3947
-5.35867
-5.32134
-5.28273
-5.24286
-5.20169
-5.15919
-5.11534
-5.07008
-5.02337
-4.97519
-4.92547
-4.87418
-4.82128
-4.7667
-4.71039
-4.65232
-4.59241
-4.53061
-4.46685
-4.40108
-4.33323
-4.26322
-4.19098
-4.11644
-4.03952
-3.96014
-3.8782
-3.79363
-3.70633
-3.61621
-3.52318
-3.42712
-3.32795
-3.22555
-3.11982
-3.01066
-2.89794
-2.78157
-2.66143
-2.53741
-2.41124
-2.28649
-2.16495
-2.04655
-1.93117
-1.81872
-1.70922
-1.6027
-1.49909
-1.39834
-1.3004
-1.2052
-1.11269
-1.02282
-0.935526
-0.850757
-0.768457
-0.688571
-0.611051
-0.535854
-0.462877
-0.3919
-0.322779
-0.255572
-0.190325
-0.12698
-0.0654796
-0.0057751
0.052178
0.108423
-5.9598
-5.95012
-5.94218
-5.93394
-5.9254
-5.9166
-5.90751
-5.89812
-5.88841
-5.87838
-5.868
-5.85725
-5.84613
-5.83459
-5.82262
-5.81018
-5.79722
-5.78369
-5.76954
-5.75466
-5.73898
-5.72237
-5.70475
-5.68613
-5.66641
-5.64538
-5.62286
-5.59877
-5.57306
-5.54571
-5.51673
-5.48613
-5.45394
-5.42025
-5.38525
-5.34902
-5.3114
-5.27234
-5.23184
-5.18993
-5.1466
-5.10183
-5.05559
-5.00785
-4.95857
-4.90771
-4.85522
-4.80106
-4.74518
-4.68751
-4.62802
-4.56663
-4.50329
-4.43792
-4.37046
-4.30084
-4.22898
-4.15481
-4.07824
-3.99918
-3.91755
-3.83326
-3.74621
-3.65631
-3.56345
-3.46752
-3.36843
-3.26606
-3.16029
-3.05102
-2.93812
-2.82148
-2.70098
-2.5765
-2.44977
-2.32437
-2.20211
-2.08295
-1.96679
-1.85352
-1.74314
-1.6357
-1.53115
-1.42943
-1.3305
-1.23431
-1.1408
-1.04993
-0.96163
-0.875865
-0.792581
-0.711729
-0.633257
-0.557126
-0.483249
-0.41139
-0.341384
-0.273308
-0.207221
-0.143064
-0.0807753
-0.0203062
0.0383883
0.0953524
0.150629
-5.95956
-5.94986
-5.94188
-5.93361
-5.92504
-5.91619
-5.90707
-5.89764
-5.8879
-5.87784
-5.86743
-5.85666
-5.84551
-5.83397
-5.82201
-5.80962
-5.79676
-5.78339
-5.76947
-5.75495
-5.73977
-5.72385
-5.7071
-5.68943
-5.67073
-5.65096
-5.63012
-5.60807
-5.5846
-5.55961
-5.53304
-5.50481
-5.47491
-5.44332
-5.41002
-5.37503
-5.33849
-5.30061
-5.26128
-5.22034
-5.17781
-5.13372
-5.08808
-5.04088
-4.9921
-4.94173
-4.88971
-4.83601
-4.78058
-4.72338
-4.66434
-4.60341
-4.54052
-4.4756
-4.40859
-4.33941
-4.26798
-4.19422
-4.11805
-4.03938
-3.95811
-3.87415
-3.78741
-3.69778
-3.60515
-3.50941
-3.41045
-3.30816
-3.20241
-3.09309
-2.98005
-2.86319
-2.74237
-2.61746
-2.49019
-2.36416
-2.24118
-2.12124
-2.00426
-1.89016
-1.77891
-1.67052
-1.56499
-1.46228
-1.36233
-1.26509
-1.17053
-1.07859
-0.98923
-0.902402
-0.818064
-0.73617
-0.656677
-0.579551
-0.50467
-0.431794
-0.360828
-0.29186
-0.224904
-0.159896
-0.0967798
-0.0355066
0.023969
0.0816912
0.137703
0.192046
0.244763
-5.95939
-5.94965
-5.94165
-5.93335
-5.92475
-5.91588
-5.90673
-5.89728
-5.88751
-5.87742
-5.86698
-5.85619
-5.84503
-5.83348
-5.82152
-5.80913
-5.7963
-5.78299
-5.76919
-5.75485
-5.73992
-5.72437
-5.70813
-5.69114
-5.67331
-5.65456
-5.63479
-5.61392
-5.59192
-5.56876
-5.54427
-5.5183
-5.49074
-5.4615
-5.43053
-5.39776
-5.36317
-5.32674
-5.28859
-5.24886
-5.20756
-5.16458
-5.11989
-5.07349
-5.02543
-4.97569
-4.92427
-4.87114
-4.81626
-4.75959
-4.70108
-4.64067
-4.5783
-4.5139
-4.44739
-4.37871
-4.30777
-4.23449
-4.15878
-4.08055
-3.9997
-3.91614
-3.82975
-3.74045
-3.64811
-3.55262
-3.45387
-3.35172
-3.24605
-3.13673
-3.02363
-2.9066
-2.78551
-2.66022
-2.53245
-2.40581
-2.28213
-2.16139
-2.04358
-1.92863
-1.81647
-1.70712
-1.60059
-1.49684
-1.39584
-1.29752
-1.20186
-1.10881
-1.01833
-0.930377
-0.844913
-0.761894
-0.68129
-0.60308
-0.527092
-0.453115
-0.381154
-0.311269
-0.24341
-0.177513
-0.113528
-0.0514092
0.00888905
0.0674103
0.124197
0.179292
0.232736
0.284569
-5.95927
-5.94951
-5.94149
-5.93317
-5.92455
-5.91567
-5.9065
-5.89703
-5.88724
-5.87713
-5.86668
-5.85588
-5.84471
-5.83315
-5.82119
-5.80881
-5.796
-5.78272
-5.76897
-5.75471
-5.73992
-5.72456
-5.7086
-5.69198
-5.67466
-5.65656
-5.63762
-5.61776
-5.59688
-5.57488
-5.55168
-5.52726
-5.50155
-5.47439
-5.44561
-5.41513
-5.38282
-5.34863
-5.31251
-5.27445
-5.2345
-5.19278
-5.14938
-5.10426
-5.05732
-5.00858
-4.95804
-4.90572
-4.85159
-4.79563
-4.73778
-4.67802
-4.61627
-4.55247
-4.48656
-4.41847
-4.34809
-4.27536
-4.20019
-4.12247
-4.04211
-3.95901
-3.87306
-3.78417
-3.69219
-3.59702
-3.49852
-3.39659
-3.29107
-3.18183
-3.06872
-2.9516
-2.83031
-2.7047
-2.57649
-2.44928
-2.32493
-2.20343
-2.08475
-1.96889
-1.85582
-1.74549
-1.63789
-1.53305
-1.43093
-1.3315
-1.23472
-1.14055
-1.04894
-0.959842
-0.873217
-0.788991
-0.707133
-0.627651
-0.550492
-0.475507
-0.402584
-0.33171
-0.262874
-0.196027
-0.131117
-0.068097
-0.00692349
0.0524471
0.110057
0.165948
0.220162
0.27274
0.323722
0.373149
-5.9592
-5.94942
-5.94139
-5.93306
-5.92444
-5.91554
-5.90636
-5.89688
-5.88709
-5.87697
-5.86652
-5.85571
-5.84453
-5.83298
-5.82103
-5.80866
-5.79586
-5.78261
-5.76889
-5.75467
-5.73995
-5.72468
-5.70885
-5.69242
-5.67535
-5.6576
-5.63911
-5.61984
-5.5997
-5.57861
-5.55649
-5.53323
-5.50875
-5.48293
-5.4557
-5.42704
-5.39679
-5.36476
-5.33087
-5.29503
-5.25718
-5.21731
-5.17544
-5.13168
-5.08617
-5.03886
-4.98966
-4.93854
-4.8855
-4.83055
-4.77364
-4.71475
-4.65382
-4.59081
-4.52565
-4.45827
-4.38858
-4.31651
-4.24197
-4.16487
-4.0851
-4.00251
-3.91706
-3.82866
-3.73712
-3.64231
-3.54418
-3.44257
-3.3373
-3.22822
-3.11519
-2.99806
-2.87664
-2.75079
-2.62221
-2.49451
-2.36955
-2.24733
-2.12784
-2.01108
-1.89702
-1.78567
-1.67704
-1.57111
-1.46787
-1.36728
-1.26934
-1.17399
-1.08115
-0.990793
-0.902909
-0.817438
-0.734343
-0.653606
-0.575216
-0.499124
-0.425191
-0.353281
-0.283384
-0.215507
-0.149604
-0.0856217
-0.0235153
0.0367584
0.0952418
0.151977
0.207005
0.260368
0.312107
0.362262
0.410874
0.457984
0.503631
0.547855
-5.95918
-5.94937
-5.94134
-5.93301
-5.92438
-5.91549
-5.9063
-5.89682
-5.88703
-5.87692
-5.86646
-5.85566
-5.84449
-5.83294
-5.82099
-5.80864
-5.79586
-5.78263
-5.76894
-5.75476
-5.74007
-5.72486
-5.70909
-5.69275
-5.6758
-5.65821
-5.63994
-5.62096
-5.6012
-5.58061
-5.55912
-5.53665
-5.51311
-5.48838
-5.46239
-5.43503
-5.40617
-5.37572
-5.34363
-5.30981
-5.27411
-5.23643
-5.19673
-5.15495
-5.11114
-5.06539
-5.01778
-4.96824
-4.91668
-4.86309
-4.80747
-4.74977
-4.68998
-4.62802
-4.56385
-4.4974
-4.4286
-4.35736
-4.2836
-4.20723
-4.12816
-4.04628
-3.96149
-3.87368
-3.78277
-3.68837
-3.59054
-3.48938
-3.38443
-3.27561
-3.16278
-3.04573
-2.92429
-2.79831
-2.66945
-2.54135
-2.41587
-2.29301
-2.17278
-2.05518
-1.94021
-1.82788
-1.71819
-1.61113
-1.50672
-1.40492
-1.30572
-1.20911
-1.11503
-1.02343
-0.934248
-0.847476
-0.763084
-0.681037
-0.601322
-0.523936
-0.448823
-0.37584
-0.30487
-0.235907
-0.168949
-0.103949
-0.0408589
0.0203669
0.0797707
0.137394
0.19328
0.247468
0.300001
0.35092
0.400265
0.448078
0.494398
0.539267
-5.95919
-5.94935
-5.94134
-5.93301
-5.92438
-5.91549
-5.90631
-5.89683
-5.88705
-5.87694
-5.86649
-5.8557
-5.84454
-5.833
-5.82107
-5.80873
-5.79597
-5.78276
-5.7691
-5.75495
-5.7403
-5.72513
-5.70942
-5.69313
-5.67624
-5.65874
-5.64057
-5.62172
-5.60215
-5.5818
-5.56063
-5.53858
-5.51558
-5.49154
-5.46637
-5.43998
-5.41227
-5.38313
-5.35246
-5.32016
-5.28611
-5.25025
-5.21253
-5.17286
-5.13115
-5.08736
-5.04157
-4.99378
-4.94394
-4.89201
-4.83798
-4.7818
-4.72345
-4.66287
-4.59999
-4.53477
-4.46712
-4.39696
-4.32423
-4.24881
-4.17063
-4.08958
-4.00549
-3.91832
-3.82802
-3.73446
-3.63745
-3.53674
-3.43215
-3.32371
-3.21124
-3.09437
-2.97295
-2.84691
-2.71791
-2.58953
-2.46362
-2.3402
-2.21931
-2.10093
-1.9851
-1.87181
-1.76109
-1.65293
-1.54733
-1.4443
-1.34381
-1.24586
-1.15041
-1.05745
-0.966965
-0.878888
-0.793154
-0.709753
-0.628679
-0.549921
-0.473477
-0.399289
-0.327216
-0.257156
-0.189099
-0.123033
-0.0589134
0.00330812
0.0636742
0.122227
0.179007
0.234057
0.287419
0.339133
0.38924
0.437783
0.484801
0.530337
-5.95923
-5.94936
-5.94136
-5.93303
-5.92441
-5.91553
-5.90636
-5.89689
-5.88711
-5.87701
-5.86658
-5.8558
-5.84465
-5.83313
-5.82122
-5.80891
-5.79616
-5.78298
-5.76935
-5.75523
-5.74062
-5.72549
-5.70982
-5.69358
-5.67675
-5.65931
-5.64122
-5.62245
-5.60297
-5.58275
-5.56174
-5.5399
-5.51717
-5.49351
-5.46883
-5.44305
-5.41609
-5.38785
-5.35822
-5.32713
-5.29446
-5.26011
-5.22399
-5.18603
-5.14616
-5.1043
-5.06043
-5.01452
-4.96654
-4.91644
-4.8642
-4.80976
-4.75309
-4.69413
-4.63282
-4.56909
-4.50287
-4.43408
-4.36264
-4.28845
-4.21142
-4.13147
-4.04844
-3.9622
-3.87272
-3.77987
-3.68352
-3.58344
-3.47946
-3.37154
-3.25956
-3.14326
-3.02218
-2.89617
-2.76713
-2.6386
-2.51238
-2.38851
-2.26705
-2.14798
-2.03134
-1.91714
-1.80539
-1.69613
-1.58935
-1.48507
-1.38328
-1.28398
-1.18717
-1.09281
-1.00091
-0.911432
-0.824365
-0.73965
-0.657212
-0.577044
-0.499183
-0.423639
-0.350349
-0.279166
-0.209993
-0.142817
-0.0776213
-0.0143618
0.0470063
0.106525
0.164236
0.220181
0.274401
0.326939
0.377835
0.427131
0.47487
0.521092
-5.95927
-5.94938
-5.9414
-5.93308
-5.92447
-5.91559
-5.90643
-5.89698
-5.88721
-5.87713
-5.86671
-5.85594
-5.84482
-5.83332
-5.82143
-5.80914
-5.79642
-5.78327
-5.76966
-5.75558
-5.74101
-5.72592
-5.71029
-5.6941
-5.67733
-5.65995
-5.64192
-5.62323
-5.60384
-5.58371
-5.5628
-5.54109
-5.51853
-5.49506
-5.47064
-5.44521
-5.4187
-5.39104
-5.36212
-5.33187
-5.30018
-5.26696
-5.23212
-5.19558
-5.15724
-5.11702
-5.07487
-5.03072
-4.98454
-4.93625
-4.88581
-4.83317
-4.77828
-4.72106
-4.66145
-4.59939
-4.53478
-4.46755
-4.39762
-4.32487
-4.24923
-4.17058
-4.08881
-4.00381
-3.91547
-3.82366
-3.72826
-3.62911
-3.52601
-3.41878
-3.30728
-3.19132
-3.07071
-2.94516
-2.81632
-2.68782
-2.56148
-2.4373
-2.31539
-2.19575
-2.07839
-1.96336
-1.85067
-1.74035
-1.63243
-1.52693
-1.42385
-1.32321
-1.22501
-1.12925
-1.03592
-0.945014
-0.856507
-0.770384
-0.686601
-0.605085
-0.525811
-0.448827
-0.374173
-0.301776
-0.23148
-0.163182
-0.0968727
-0.0325369
0.0298671
0.0903833
0.149053
0.205919
0.261022
0.314404
0.366108
0.416176
0.46465
0.511574
0.556989
-5.95932
-5.9494
-5.94145
-5.93314
-5.92454
-5.91567
-5.90652
-5.89708
-5.88733
-5.87726
-5.86686
-5.85611
-5.84501
-5.83353
-5.82166
-5.8094
-5.79671
-5.78359
-5.77002
-5.75597
-5.74144
-5.72639
-5.71081
-5.69467
-5.67796
-5.66064
-5.64268
-5.62406
-5.60475
-5.58471
-5.56391
-5.54232
-5.51988
-5.49656
-5.47232
-5.44711
-5.42086
-5.39353
-5.36505
-5.33534
-5.30433
-5.27192
-5.23802
-5.20254
-5.16539
-5.12649
-5.08576
-5.04312
-4.9985
-4.95184
-4.90308
-4.85213
-4.79894
-4.74344
-4.68554
-4.62517
-4.56224
-4.49666
-4.42834
-4.35718
-4.28307
-4.2059
-4.12558
-4.04196
-3.95494
-3.86439
-3.77016
-3.67211
-3.57005
-3.46381
-3.35321
-3.23803
-3.11806
-2.99304
-2.86458
-2.73625
-2.60994
-2.48567
-2.36348
-2.24341
-2.12548
-2.00973
-1.8962
-1.78493
-1.67594
-1.56928
-1.46496
-1.36302
-1.26346
-1.1663
-1.07154
-0.979192
-0.889245
-0.801689
-0.716507
-0.633639
-0.553008
-0.474618
-0.398545
-0.324815
-0.253333
-0.183933
-0.116513
-0.051071
0.0123974
0.0739334
0.133582
0.191385
0.247385
0.301624
0.354146
0.404994
0.454212
0.501843
0.547931
-5.95937
-5.94942
-5.9415
-5.9332
-5.92461
-5.91575
-5.90661
-5.89719
-5.88745
-5.8774
-5.86701
-5.85628
-5.8452
-5.83374
-5.8219
-5.80966
-5.79701
-5.78392
-5.77038
-5.75637
-5.74188
-5.72688
-5.71135
-5.69527
-5.67861
-5.66135
-5.64346
-5.62492
-5.60569
-5.58575
-5.56505
-5.54357
-5.52126
-5.49808
-5.474
-5.44896
-5.42292
-5.39583
-5.36763
-5.33826
-5.30767
-5.27578
-5.24251
-5.20779
-5.17152
-5.13361
-5.09399
-5.05255
-5.00923
-4.96394
-4.9166
-4.86715
-4.81549
-4.76155
-4.70524
-4.64648
-4.58516
-4.5212
-4.45449
-4.38493
-4.3124
-4.2368
-4.15799
-4.07587
-3.99029
-3.90113
-3.80824
-3.71147
-3.61063
-3.50554
-3.39601
-3.28182
-3.16272
-3.03845
-2.91061
-2.78272
-2.65668
-2.5325
-2.41024
-2.28993
-2.17161
-2.05532
-1.9411
-1.82901
-1.71908
-1.61137
-1.5059
-1.40273
-1.30187
-1.20336
-1.10722
-1.01346
-0.922086
-0.833108
-0.746517
-0.662283
-0.580325
-0.500588
-0.423141
-0.348056
-0.275309
-0.20477
-0.136269
-0.0697428
-0.00520388
0.057358
0.117987
0.176728
0.233625
0.288721
0.34206
0.393687
0.443646
0.491982
0.538739
-5.95942
-5.94944
-5.94154
-5.93325
-5.92467
-5.91582
-5.9067
-5.89728
-5.88756
-5.87752
-5.86715
-5.85644
-5.84537
-5.83394
-5.82213
-5.80991
-5.79729
-5.78423
-5.77073
-5.75676
-5.74231
-5.72736
-5.71188
-5.69585
-5.67925
-5.66206
-5.64424
-5.62578
-5.60663
-5.58678
-5.56618
-5.54481
-5.52262
-5.49958
-5.47564
-5.45077
-5.42492
-5.39803
-5.37007
-5.34097
-5.31068
-5.27915
-5.2463
-5.21208
-5.1764
-5.13919
-5.10036
-5.05983
-5.01751
-4.97331
-4.92715
-4.87893
-4.82857
-4.77598
-4.72107
-4.66374
-4.60389
-4.54142
-4.47622
-4.40818
-4.33718
-4.26309
-4.18581
-4.10519
-4.02109
-3.93338
-3.84191
-3.74651
-3.64699
-3.54318
-3.43486
-3.32179
-3.20374
-3.08042
-2.95339
-2.82616
-2.70058
-2.57672
-2.45459
-2.33425
-2.21574
-2.09911
-1.98439
-1.87165
-1.76095
-1.65234
-1.54586
-1.44158
-1.33954
-1.23977
-1.14232
-1.04721
-0.954477
-0.864124
-0.776162
-0.690587
-0.607316
-0.526277
-0.447536
-0.3712
-0.297236
-0.225502
-0.155864
-0.0882587
-0.0226783
0.0408861
0.102475
0.162135
0.219909
0.275842
0.32998
0.382368
0.433052
0.482079
0.529494
0.575343
-5.95945
-5.94944
-5.94157
-5.93329
-5.92471
-5.91587
-5.90676
-5.89735
-5.88764
-5.87762
-5.86726
-5.85657
-5.84552
-5.83411
-5.82232
-5.81013
-5.79753
-5.78451
-5.77104
-5.75711
-5.7427
-5.7278
-5.71237
-5.69639
-5.67986
-5.66273
-5.64498
-5.6266
-5.60753
-5.58777
-5.56727
-5.54601
-5.52394
-5.50102
-5.47723
-5.45251
-5.42683
-5.40013
-5.37238
-5.34351
-5.31348
-5.28224
-5.24971
-5.21585
-5.18059
-5.14386
-5.10559
-5.06569
-5.0241
-4.98071
-4.93545
-4.88821
-4.8389
-4.78742
-4.73368
-4.67757
-4.61899
-4.55783
-4.49398
-4.42731
-4.35771
-4.28504
-4.20918
-4.13
-4.04734
-3.96105
-3.87099
-3.77697
-3.67881
-3.57632
-3.46927
-3.35742
-3.24052
-3.11827
-2.99219
-2.86576
-2.74083
-2.61745
-2.49565
-2.37547
-2.25697
-2.14018
-2.02516
-1.91197
-1.80069
-1.69137
-1.58406
-1.47882
-1.37574
-1.27485
-1.17621
-1.07987
-0.985864
-0.89422
-0.80496
-0.718087
-0.633555
-0.551337
-0.471451
-0.393892
-0.318651
-0.245716
-0.175016
-0.106431
-0.0398709
0.0246701
0.0871913
0.147738
0.206358
0.263099
0.318007
0.371131
0.422517
0.472213
0.520267
0.566726
-5.95946
-5.94942
-5.94158
-5.9333
-5.92473
-5.9159
-5.90679
-5.89739
-5.88769
-5.87768
-5.86734
-5.85666
-5.84562
-5.83423
-5.82246
-5.81029
-5.79772
-5.78473
-5.77129
-5.7574
-5.74303
-5.72817
-5.71279
-5.69687
-5.68039
-5.66333
-5.64566
-5.62734
-5.60836
-5.58869
-5.56829
-5.54713
-5.52517
-5.50238
-5.47872
-5.45414
-5.42862
-5.4021
-5.37453
-5.34587
-5.31606
-5.28507
-5.25282
-5.21926
-5.18433
-5.14797
-5.11011
-5.07067
-5.0296
-4.9868
-4.94218
-4.89567
-4.84716
-4.79656
-4.74375
-4.68865
-4.63112
-4.57107
-4.50836
-4.44289
-4.37451
-4.30311
-4.22855
-4.15067
-4.06934
-3.98439
-3.89566
-3.80298
-3.70614
-3.60494
-3.49916
-3.38855
-3.27282
-3.15169
-3.02664
-2.90111
-2.77694
-2.65417
-2.53283
-2.41298
-2.29465
-2.17787
-2.06274
-1.9493
-1.83762
-1.72776
-1.61978
-1.51379
-1.40983
-1.30799
-1.20831
-1.11088
-1.01573
-0.922912
-0.83246
-0.744385
-0.658683
-0.575335
-0.494315
-0.415624
-0.339285
-0.265285
-0.193558
-0.12399
-0.0564892
0.00895416
0.0723437
0.133719
0.193129
0.250624
0.306251
0.360059
0.412096
0.462412
0.511052
0.558077
-5.95946
-5.94938
-5.94156
-5.93329
-5.92472
-5.91589
-5.90679
-5.8974
-5.8877
-5.87769
-5.86736
-5.85669
-5.84567
-5.83429
-5.82254
-5.81039
-5.79785
-5.78488
-5.77147
-5.75761
-5.74328
-5.72846
-5.71313
-5.69726
-5.68084
-5.66384
-5.64623
-5.62799
-5.60909
-5.5895
-5.56919
-5.54813
-5.52628
-5.50361
-5.48007
-5.45563
-5.43025
-5.40389
-5.37649
-5.34802
-5.31841
-5.28763
-5.25562
-5.22232
-5.18767
-5.15161
-5.11409
-5.07502
-5.03434
-4.99198
-4.94785
-4.90188
-4.85396
-4.80401
-4.75193
-4.6976
-4.64091
-4.58175
-4.52
-4.45553
-4.3882
-4.31789
-4.24445
-4.16773
-4.08759
-4.00385
-3.91634
-3.82488
-3.72928
-3.62931
-3.52474
-3.41531
-3.30074
-3.18073
-3.05671
-2.93212
-2.80876
-2.68667
-2.5659
-2.44647
-2.32843
-2.21183
-2.09672
-1.98317
-1.87125
-1.76103
-1.65258
-1.54599
-1.44134
-1.33871
-1.23816
-1.13979
-1.04365
-0.949807
-0.858302
-0.769161
-0.682392
-0.597987
-0.515944
-0.436263
-0.358939
-0.283941
-0.211212
-0.140679
-0.0722946
-0.00603864
0.058126
0.120246
0.180369
0.238542
0.294815
0.349235
0.401849
0.452704
0.501872
0.549451
-5.95944
-5.94932
-5.94152
-5.93325
-5.92468
-5.91585
-5.90675
-5.89735
-5.88766
-5.87766
-5.86733
-5.85667
-5.84566
-5.83429
-5.82255
-5.81042
-5.79789
-5.78494
-5.77156
-5.75773
-5.74344
-5.72865
-5.71336
-5.69754
-5.68117
-5.66423
-5.64669
-5.62852
-5.60969
-5.59018
-5.56996
-5.549
-5.52725
-5.50468
-5.48126
-5.45695
-5.43171
-5.40548
-5.37824
-5.34994
-5.32051
-5.28993
-5.25812
-5.22504
-5.19063
-5.15484
-5.11759
-5.07883
-5.03848
-4.99647
-4.95273
-4.90717
-4.85971
-4.81026
-4.75872
-4.70498
-4.64894
-4.59048
-4.52949
-4.46582
-4.39936
-4.32995
-4.25747
-4.18174
-4.10262
-4.01994
-3.93352
-3.84317
-3.74867
-3.64982
-3.54637
-3.43805
-3.32457
-3.20562
-3.08261
-2.95894
-2.8364
-2.71502
-2.59484
-2.4759
-2.35823
-2.24189
-2.12692
-2.0134
-1.90139
-1.79095
-1.68217
-1.57515
-1.46996
-1.36669
-1.26544
-1.16629
-1.06932
-0.974598
-0.882188
-0.792125
-0.704429
-0.619107
-0.536156
-0.455568
-0.377332
-0.301421
-0.227804
-0.156436
-0.0872725
-0.0202715
0.0446105
0.107419
0.168201
0.227005
0.28388
0.338874
0.392035
0.443422
0.493117
0.541199
-5.95939
-5.94923
-5.94145
-5.93317
-5.92459
-5.91576
-5.90666
-5.89727
-5.88757
-5.87757
-5.86724
-5.85658
-5.84558
-5.83422
-5.82248
-5.81036
-5.79785
-5.78492
-5.77156
-5.75775
-5.74349
-5.72873
-5.71348
-5.6977
-5.68138
-5.66449
-5.64701
-5.6289
-5.61015
-5.59071
-5.57058
-5.5497
-5.52804
-5.50558
-5.48227
-5.45807
-5.43295
-5.40686
-5.37977
-5.35161
-5.32235
-5.29193
-5.26031
-5.22743
-5.19323
-5.15766
-5.12065
-5.08214
-5.04207
-5.00036
-4.95693
-4.91172
-4.86462
-4.81557
-4.76445
-4.71118
-4.65565
-4.59774
-4.53733
-4.47431
-4.40853
-4.33986
-4.26815
-4.19325
-4.115
-4.03321
-3.94773
-3.85833
-3.76482
-3.66696
-3.56451
-3.45719
-3.34471
-3.22673
-3.10466
-2.98186
-2.8601
-2.73942
-2.61985
-2.50142
-2.38417
-2.26815
-2.1534
-2.03998
-1.92797
-1.81743
-1.70845
-1.60112
-1.49553
-1.39178
-1.28997
-1.19019
-1.09253
-0.997083
-0.903908
-0.813057
-0.724561
-0.638437
-0.554691
-0.473319
-0.394307
-0.317632
-0.243263
-0.171164
-0.101297
-0.0336172
0.0319184
0.0953571
0.156747
0.216138
0.27358
0.329123
0.382819
0.434723
0.4849
0.533402
-5.95931
-5.94912
-5.94134
-5.93306
-5.92447
-5.91563
-5.90652
-5.89713
-5.88743
-5.87742
-5.86709
-5.85643
-5.84543
-5.83407
-5.82233
-5.81022
-5.79772
-5.7848
-5.77145
-5.75767
-5.74342
-5.7287
-5.71348
-5.69774
-5.68146
-5.66461
-5.64718
-5.62913
-5.61044
-5.59108
-5.57102
-5.55022
-5.52865
-5.50628
-5.48307
-5.45898
-5.43398
-5.40801
-5.38104
-5.35302
-5.32391
-5.29365
-5.26219
-5.22948
-5.19547
-5.16009
-5.12329
-5.08501
-5.04517
-5.00371
-4.96055
-4.91562
-4.86883
-4.8201
-4.76933
-4.71644
-4.66131
-4.60383
-4.5439
-4.48138
-4.41615
-4.34807
-4.27698
-4.20275
-4.12521
-4.04417
-3.95946
-3.87087
-3.7782
-3.6812
-3.57962
-3.47318
-3.36158
-3.24448
-3.12327
-3.00126
-2.88023
-2.76021
-2.64122
-2.5233
-2.40648
-2.29079
-2.17629
-2.06304
-1.9511
-1.84055
-1.73146
-1.62393
-1.51806
-1.41395
-1.31171
-1.21143
-1.11323
-1.01718
-0.923381
-0.831877
-0.742712
-0.655914
-0.571495
-0.489454
-0.409781
-0.332457
-0.257452
-0.184735
-0.114265
-0.0460018
0.0201007
0.0840895
0.146014
0.205923
0.26387
0.319904
0.374079
0.426446
0.47706
0.525966
-5.95922
-5.94898
-5.94121
-5.93292
-5.92432
-5.91547
-5.90635
-5.89694
-5.88723
-5.87722
-5.86688
-5.85621
-5.8452
-5.83384
-5.8221
-5.80999
-5.79749
-5.78458
-5.77124
-5.75747
-5.74324
-5.72854
-5.71335
-5.69764
-5.68139
-5.66459
-5.6472
-5.62921
-5.61057
-5.59127
-5.57127
-5.55055
-5.52906
-5.50678
-5.48366
-5.45967
-5.43477
-5.40891
-5.38206
-5.35416
-5.32518
-5.29506
-5.26375
-5.2312
-5.19735
-5.16215
-5.12553
-5.08744
-5.0478
-5.00656
-4.96362
-4.91893
-4.8724
-4.82395
-4.77347
-4.72089
-4.66609
-4.60897
-4.54942
-4.48731
-4.42252
-4.35491
-4.28433
-4.21064
-4.13367
-4.05324
-3.96917
-3.88125
-3.78927
-3.69299
-3.59215
-3.48647
-3.37563
-3.25929
-3.13883
-3.01754
-2.89717
-2.77775
-2.6593
-2.54185
-2.42544
-2.3101
-2.19587
-2.08281
-1.97099
-1.86048
-1.75135
-1.64371
-1.53765
-1.43328
-1.33071
-1.23006
-1.13143
-1.03492
-0.940613
-0.848585
-0.758881
-0.671537
-0.586569
-0.503981
-0.423767
-0.345908
-0.270378
-0.197145
-0.126172
-0.0574167
0.00916615
0.0736236
0.136005
0.19636
0.254741
0.311199
0.365787
0.418555
0.469558
0.518841
-5.95911
-5.94883
-5.94105
-5.93274
-5.92413
-5.91526
-5.90613
-5.8967
-5.88698
-5.87695
-5.8666
-5.85592
-5.8449
-5.83353
-5.82179
-5.80967
-5.79717
-5.78426
-5.77093
-5.75716
-5.74295
-5.72826
-5.71309
-5.6974
-5.68119
-5.66442
-5.64707
-5.62912
-5.61053
-5.59129
-5.57135
-5.55069
-5.52927
-5.50706
-5.48403
-5.46012
-5.43531
-5.40956
-5.38281
-5.35503
-5.32616
-5.29617
-5.26499
-5.23258
-5.19888
-5.16383
-5.12737
-5.08945
-5.04999
-5.00893
-4.9662
-4.92172
-4.87541
-4.82718
-4.77695
-4.72463
-4.67011
-4.61329
-4.55405
-4.49228
-4.42785
-4.36062
-4.29046
-4.2172
-4.1407
-4.06076
-3.97721
-3.88984
-3.79843
-3.70274
-3.60252
-3.49746
-3.38727
-3.27159
-3.15178
-3.0311
-2.91131
-2.79242
-2.67445
-2.55744
-2.44141
-2.32639
-2.21243
-2.09958
-1.9879
-1.87746
-1.76834
-1.66064
-1.55447
-1.44992
-1.34712
-1.24619
-1.14724
-1.05037
-0.955682
-0.86325
-0.773129
-0.685358
-0.599959
-0.516941
-0.436297
-0.358012
-0.282061
-0.208413
-0.137031
-0.0678728
-0.000894897
0.0639505
0.126712
0.187441
0.246187
0.303003
0.357939
0.411048
0.462382
0.511991
-5.95898
-5.94866
-5.94086
-5.93254
-5.92391
-5.91502
-5.90587
-5.89643
-5.88669
-5.87664
-5.86627
-5.85557
-5.84454
-5.83315
-5.8214
-5.80927
-5.79676
-5.78384
-5.77051
-5.75675
-5.74254
-5.72786
-5.7127
-5.69703
-5.68084
-5.6641
-5.64678
-5.62886
-5.61032
-5.59112
-5.57124
-5.55063
-5.52928
-5.50714
-5.48417
-5.46034
-5.43562
-5.40995
-5.3833
-5.35561
-5.32686
-5.29697
-5.26591
-5.23362
-5.20005
-5.16514
-5.12883
-5.09106
-5.05176
-5.01086
-4.9683
-4.924
-4.87788
-4.82985
-4.77984
-4.72773
-4.67345
-4.61687
-4.5579
-4.49641
-4.43227
-4.36536
-4.29554
-4.22264
-4.14652
-4.06698
-3.98385
-3.89693
-3.80599
-3.71078
-3.61106
-3.50653
-3.39687
-3.28173
-3.16246
-3.04231
-2.92301
-2.80458
-2.68703
-2.57041
-2.45471
-2.33999
-2.22628
-2.11363
-2.00209
-1.89174
-1.78267
-1.67496
-1.56872
-1.46406
-1.3611
-1.25997
-1.16079
-1.06366
-0.968694
-0.875973
-0.785549
-0.697464
-0.611747
-0.528405
-0.447436
-0.368826
-0.292552
-0.218581
-0.146879
-0.077403
-0.0101099
0.0550475
0.118118
0.179152
0.238199
0.295312
0.35054
0.403936
0.45555
0.505433
-5.95884
-5.94848
-5.94066
-5.93232
-5.92366
-5.91475
-5.90557
-5.89611
-5.88634
-5.87627
-5.86588
-5.85516
-5.84411
-5.8327
-5.82093
-5.80879
-5.79626
-5.78333
-5.76999
-5.75622
-5.74201
-5.72734
-5.71219
-5.69653
-5.68035
-5.66363
-5.64634
-5.62845
-5.60995
-5.59078
-5.57094
-5.55039
-5.52908
-5.507
-5.4841
-5.46034
-5.43569
-5.41009
-5.38352
-5.35593
-5.32726
-5.29748
-5.26652
-5.23434
-5.20089
-5.1661
-5.12992
-5.09228
-5.05312
-5.01237
-4.96996
-4.92581
-4.87985
-4.832
-4.78216
-4.73025
-4.67616
-4.6198
-4.56104
-4.49979
-4.4359
-4.36926
-4.29971
-4.22711
-4.15129
-4.07209
-3.98931
-3.90274
-3.81218
-3.71737
-3.61806
-3.51395
-3.40472
-3.29003
-3.17121
-3.0515
-2.9326
-2.81456
-2.69737
-2.58107
-2.46568
-2.35122
-2.23773
-2.12526
-2.01386
-1.90361
-1.7946
-1.6869
-1.58063
-1.47591
-1.37286
-1.27161
-1.17228
-1.07498
-0.979842
-0.886922
-0.79629
-0.707986
-0.622045
-0.538476
-0.457277
-0.378433
-0.301922
-0.227713
-0.155771
-0.0860547
-0.01852
0.0468798
0.110193
0.171469
0.230759
0.288113
0.343582
0.397216
0.449067
0.499182
-5.9587
-5.94829
-5.94044
-5.93207
-5.92339
-5.91445
-5.90525
-5.89575
-5.88596
-5.87586
-5.86545
-5.8547
-5.84361
-5.83218
-5.82039
-5.80822
-5.79568
-5.78273
-5.76938
-5.7556
-5.74138
-5.72671
-5.71155
-5.6959
-5.67974
-5.66303
-5.64575
-5.62789
-5.60941
-5.59028
-5.57047
-5.54996
-5.5287
-5.50666
-5.48381
-5.46011
-5.43552
-5.41
-5.3835
-5.35598
-5.32739
-5.2977
-5.26683
-5.23475
-5.2014
-5.16671
-5.13064
-5.09312
-5.05408
-5.01346
-4.97118
-4.92717
-4.88136
-4.83365
-4.78397
-4.73222
-4.6783
-4.62212
-4.56355
-4.50249
-4.43882
-4.37239
-4.30307
-4.23071
-4.15515
-4.07621
-3.99371
-3.90745
-3.81719
-3.7227
-3.62372
-3.51996
-3.41108
-3.29675
-3.1783
-3.05894
-2.94038
-2.82265
-2.70576
-2.58974
-2.47459
-2.36035
-2.24705
-2.13474
-2.02348
-1.91333
-1.80437
-1.69671
-1.59045
-1.48571
-1.38262
-1.2813
-1.1819
-1.08452
-0.989274
-0.896242
-0.805486
-0.717051
-0.630974
-0.547264
-0.465917
-0.386921
-0.310252
-0.235882
-0.163773
-0.0938852
-0.026175
0.039404
0.1029
0.164362
0.223841
0.281387
0.337049
0.390879
0.442925
0.493237
-5.95856
-5.94811
-5.94022