/*--------------------------------*- C++ -*----------------------------------*\
  =========                 |
  \\      /  F ield         | OpenFOAM: The Open Source CFD Toolbox
   \\    /   O peration     | Website:  https://openfoam.org
    \\  /    A nd           | Version:  10
     \\/     M anipulation  |
\*---------------------------------------------------------------------------*/
FoamFile
{
    format      ascii;
    class       volScalarField;
    location    "14000";
    object      Co;
}
// * * * * * * * * * * * * * * * * * * * * * * * * * * * * * * * * * * * * * //

dimensions      [0 0 0 0 0 0 0];

internalField   nonuniform List<scalar> 
17808
(
5820.47
5122.02
4820.04
4615.62
4459.46
4333.14
4226.89
4135
4053.87
3981.1
3915.02
3854.38
3798.28
3746.01
3697.01
3650.85
3607.15
3565.64
3526.06
3488.2
3451.89
3416.98
3383.34
3350.86
3319.44
3288.99
3259.44
3230.72
3202.77
3175.54
3148.98
3123.03
3097.67
3072.86
3048.56
3024.75
3001.39
2978.47
2955.95
2933.81
2912.04
2890.62
2869.53
2848.75
2828.26
2808.07
2788.14
2768.47
2749.05
2729.86
2710.89
2692.15
2673.6
2655.26
2637.1
2619.12
2601.31
2583.67
2566.19
2548.86
2531.67
2514.63
2497.71
2480.97
2464.4
2447.95
2431.6
2415.35
2399.2
2383.13
2367.15
2351.25
2335.43
2319.67
2303.99
2288.37
2272.81
2257.31
2241.86
2226.45
2211.1
2195.78
2180.5
2165.26
2150.04
2134.85
2119.68
2104.53
2089.4
2074.27
2059.15
2044.04
5643.2
4960.15
4665.59
4467.79
4317.75
4196.86
4095.38
4007.67
3930.22
3860.69
3797.47
3739.38
3685.57
3635.37
3588.25
3543.81
3501.7
3461.66
3423.45
3386.88
3351.79
3318.03
3285.49
3254.05
3223.63
3194.14
3165.51
3137.68
3110.58
3084.18
3058.42
3033.26
3008.65
2984.58
2961
2937.89
2915.22
2892.97
2871.11
2849.62
2828.48
2807.68
2787.2
2767.02
2747.13
2727.51
2708.16
2689.05
2670.19
2651.55
2633.13
2614.92
2596.9
2579.08
2561.44
2543.98
2526.68
2509.54
2492.56
2475.72
2459.03
2442.47
2426.03
2409.75
2393.63
2377.65
2361.77
2345.99
2330.29
2314.69
2299.16
2283.72
2268.34
2253.04
2237.81
2222.63
2207.52
2192.46
2177.45
2162.48
2147.57
2132.69
2117.85
2103.04
2088.25
2073.5
2058.76
2044.05
2029.34
2014.65
1999.96
1985.27
5480.15
4816.57
4529.64
4336.61
4190.22
4072.39
3973.64
3888.46
3813.37
3746.06
3684.92
3628.8
3576.83
3528.36
3482.87
3439.97
3399.31
3360.63
3323.72
3288.37
3254.44
3221.8
3190.31
3159.89
3130.44
3101.88
3074.15
3047.19
3020.93
2995.34
2970.37
2945.97
2922.11
2898.76
2875.89
2853.47
2831.47
2809.87
2788.65
2767.8
2747.28
2727.09
2707.2
2687.61
2668.29
2649.24
2630.45
2611.9
2593.57
2575.47
2557.58
2539.89
2522.4
2505.09
2487.95
2470.99
2454.18
2437.54
2421.04
2404.68
2388.46
2372.37
2356.41
2340.57
2324.9
2309.38
2293.95
2278.62
2263.37
2248.21
2233.13
2218.12
2203.19
2188.32
2173.52
2158.78
2144.1
2129.47
2114.89
2100.35
2085.86
2071.41
2056.99
2042.6
2028.24
2013.91
1999.59
1985.29
1971.01
1956.73
1942.46
1928.2
5321.49
4676.85
4397.95
4210.36
4068.05
3953.48
3857.45
3774.62
3701.63
3636.25
3576.9
3522.46
3472.07
3425.1
3381.05
3339.5
3300.14
3262.71
3226.98
3192.77
3159.93
3128.33
3097.85
3068.4
3039.88
3012.22
2985.36
2959.24
2933.8
2908.99
2884.78
2861.13
2837.99
2815.35
2793.16
2771.41
2750.07
2729.12
2708.53
2688.28
2668.37
2648.77
2629.47
2610.45
2591.69
2573.2
2554.95
2536.93
2519.14
2501.56
2484.19
2467.01
2450.02
2433.2
2416.56
2400.08
2383.76
2367.59
2351.56
2335.67
2319.92
2304.29
2288.78
2273.39
2258.15
2243.06
2228.07
2213.18
2198.37
2183.64
2168.99
2154.41
2139.9
2125.46
2111.08
2096.76
2082.5
2068.29
2054.12
2040
2025.92
2011.88
1997.87
1983.9
1969.95
1956.02
1942.12
1928.23
1914.35
1900.48
1886.62
1872.76
5167.68
4541.3
4269.99
4087.6
3949.3
3837.98
3744.72
3664.29
3593.43
3529.97
3472.38
3419.56
3370.69
3325.15
3282.44
3242.18
3204.04
3167.77
3133.16
3100.03
3068.22
3037.61
3008.08
2979.55
2951.92
2925.12
2899.1
2873.78
2849.13
2825.08
2801.61
2778.68
2756.25
2734.29
2712.77
2691.68
2670.97
2650.64
2630.67
2611.02
2591.7
2572.67
2553.94
2535.47
2517.27
2499.32
2481.6
2464.1
2446.83
2429.76
2412.89
2396.2
2379.7
2363.37
2347.21
2331.2
2315.35
2299.64
2284.08
2268.64
2253.34
2238.16
2223.09
2208.14
2193.32
2178.65
2164.09
2149.62
2135.23
2120.92
2106.69
2092.53
2078.43
2064.4
2050.44
2036.52
2022.67
2008.86
1995.1
1981.38
1967.71
1954.07
1940.46
1926.88
1913.33
1899.8
1886.29
1872.8
1859.32
1845.84
1832.37
1818.91
5018.7
4410.25
4146.46
3969.13
3834.65
3726.45
3635.8
3557.65
3488.82
3427.18
3371.26
3319.98
3272.56
3228.37
3186.94
3147.88
3110.9
3075.74
3042.18
3010.06
2979.23
2949.56
2920.95
2893.29
2866.51
2840.54
2815.32
2790.78
2766.88
2743.57
2720.82
2698.58
2676.83
2655.53
2634.66
2614.2
2594.12
2574.39
2555.01
2535.95
2517.2
2498.74
2480.55
2462.63
2444.96
2427.53
2410.33
2393.35
2376.57
2360
2343.62
2327.42
2311.39
2295.53
2279.83
2264.29
2248.89
2233.64
2218.52
2203.53
2188.66
2173.92
2159.29
2144.77
2130.36
2116.09
2101.94
2087.88
2073.9
2060
2046.18
2032.42
2018.73
2005.1
1991.53
1978.02
1964.55
1951.14
1937.77
1924.45
1911.16
1897.91
1884.69
1871.5
1858.34
1845.19
1832.07
1818.96
1805.86
1792.77
1779.69
1766.61
4874.19
4283.23
4026.9
3854.54
3723.84
3618.66
3530.56
3454.6
3387.7
3327.8
3273.47
3223.66
3177.6
3134.69
3094.46
3056.55
3020.66
2986.54
2953.98
2922.83
2892.92
2864.15
2836.4
2809.58
2783.62
2758.43
2733.97
2710.18
2687
2664.4
2642.34
2620.77
2599.68
2579.02
2558.78
2538.93
2519.45
2500.31
2481.51
2463.01
2444.82
2426.9
2409.25
2391.86
2374.71
2357.79
2341.09
2324.61
2308.32
2292.23
2276.32
2260.59
2245.03
2229.63
2214.39
2199.29
2184.34
2169.52
2154.84
2140.28
2125.84
2111.52
2097.31
2083.2
2069.2
2055.32
2041.58
2027.92
2014.34
2000.83
1987.4
1974.04
1960.74
1947.5
1934.31
1921.19
1908.11
1895.08
1882.09
1869.15
1856.24
1843.37
1830.52
1817.71
1804.92
1792.15
1779.4
1766.67
1753.94
1741.23
1728.52
1715.81
4733.92
4159.94
3910.9
3743.41
3616.39
3514.19
3428.57
3354.76
3289.75
3231.54
3178.75
3130.35
3085.6
3043.92
3004.85
2968.04
2933.19
2900.07
2868.47
2838.23
2809.21
2781.29
2754.36
2728.35
2703.16
2678.73
2655.01
2631.93
2609.45
2587.52
2566.12
2545.21
2524.74
2504.71
2485.07
2465.81
2446.91
2428.35
2410.1
2392.16
2374.5
2357.11
2339.99
2323.11
2306.46
2290.04
2273.83
2257.83
2242.02
2226.39
2210.95
2195.68
2180.57
2165.61
2150.81
2136.15
2121.63
2107.24
2092.98
2078.84
2064.82
2050.91
2037.1
2023.4
2009.8
1996.31
1982.95
1969.68
1956.48
1943.36
1930.31
1917.33
1904.41
1891.55
1878.74
1865.99
1853.28
1840.62
1828.01
1815.43
1802.89
1790.39
1777.91
1765.46
1753.04
1740.63
1728.25
1715.88
1703.51
1691.16
1678.81
1666.47
4597.73
4040.24
3798.31
3635.56
3512.14
3412.83
3329.64
3257.92
3194.75
3138.2
3086.9
3039.88
2996.41
2955.92
2917.97
2882.22
2848.37
2816.21
2785.53
2756.17
2728
2700.9
2674.77
2649.52
2625.08
2601.37
2578.35
2555.96
2534.15
2512.88
2492.12
2471.82
2451.97
2432.53
2413.48
2394.8
2376.46
2358.45
2340.74
2323.33
2306.19
2289.32
2272.7
2256.32
2240.16
2224.22
2208.49
2192.95
2177.6
2162.44
2147.44
2132.61
2117.94
2103.42
2089.05
2074.82
2060.72
2046.74
2032.89
2019.16
2005.54
1992.03
1978.63
1965.32
1952.11
1938.99
1926
1913.11
1900.29
1887.54
1874.87
1862.25
1849.7
1837.2
1824.76
1812.37
1800.03
1787.73
1775.48
1763.26
1751.08
1738.93
1726.81
1714.71
1702.64
1690.59
1678.56
1666.54
1654.53
1642.53
1630.53
1618.54
4465.49
3924.02
3689.01
3530.89
3410.97
3314.48
3233.66
3163.97
3102.6
3047.65
2997.82
2952.14
2909.9
2870.57
2833.71
2798.98
2766.1
2734.86
2705.07
2676.56
2649.21
2622.9
2597.53
2573.02
2549.3
2526.29
2503.95
2482.21
2461.05
2440.41
2420.26
2400.57
2381.3
2362.44
2343.96
2325.83
2308.03
2290.55
2273.37
2256.47
2239.84
2223.47
2207.34
2191.43
2175.75
2160.28
2145.01
2129.93
2115.03
2100.31
2085.75
2071.35
2057.11
2043.01
2029.06
2015.23
2001.54
1987.97
1974.52
1961.19
1947.96
1934.84
1921.82
1908.9
1896.07
1883.32
1870.69
1858.16
1845.71
1833.32
1821.01
1808.75
1796.56
1784.42
1772.33
1760.3
1748.31
1736.36
1724.45
1712.58
1700.75
1688.95
1677.17
1665.42
1653.7
1641.99
1630.3
1618.62
1606.96
1595.3
1583.64
1571.99
4337.09
3811.18
3582.91
3429.3
3312.79
3219.04
3140.51
3072.81
3013.19
2959.81
2911.39
2867.01
2825.98
2787.76
2751.95
2718.22
2686.29
2655.94
2627.01
2599.32
2572.76
2547.21
2522.58
2498.78
2475.75
2453.41
2431.72
2410.63
2390.08
2370.05
2350.49
2331.38
2312.69
2294.38
2276.44
2258.84
2241.57
2224.61
2207.94
2191.54
2175.4
2159.5
2143.85
2128.41
2113.19
2098.17
2083.35
2068.71
2054.25
2039.95
2025.82
2011.84
1998.02
1984.33
1970.78
1957.36
1944.06
1930.89
1917.83
1904.88
1892.03
1879.29
1866.64
1854.09
1841.63
1829.25
1816.97
1804.79
1792.69
1780.66
1768.7
1756.79
1744.94
1733.15
1721.41
1709.71
1698.07
1686.46
1674.89
1663.36
1651.87
1640.4
1628.96
1617.55
1606.15
1594.78
1583.42
1572.08
1560.75
1549.42
1538.1
1526.8
4212.4
3701.61
3479.89
3330.66
3217.47
3126.4
3050.11
2984.33
2926.41
2874.55
2827.51
2784.4
2744.53
2707.41
2672.62
2639.85
2608.83
2579.36
2551.25
2524.36
2498.57
2473.75
2449.83
2426.73
2404.36
2382.67
2361.62
2341.14
2321.19
2301.74
2282.76
2264.21
2246.06
2228.29
2210.88
2193.8
2177.04
2160.57
2144.39
2128.47
2112.8
2097.38
2082.18
2067.2
2052.43
2037.85
2023.46
2009.25
1995.21
1981.33
1967.61
1954.04
1940.61
1927.32
1914.17
1901.14
1888.23
1875.43
1862.75
1850.18
1837.7
1825.33
1813.05
1800.86
1788.75
1776.73
1764.79
1752.95
1741.2
1729.51
1717.88
1706.32
1694.81
1683.35
1671.94
1660.58
1649.27
1637.99
1626.76
1615.55
1604.38
1593.25
1582.13
1571.04
1559.98
1548.93
1537.89
1526.87
1515.86
1504.86
1493.88
1482.93
4091.31
3595.2
3379.85
3234.88
3124.92
3036.45
2962.33
2898.44
2842.17
2791.79
2746.09
2704.21
2665.48
2629.42
2595.63
2563.79
2533.66
2505.03
2477.73
2451.61
2426.56
2402.46
2379.23
2356.79
2335.07
2314.01
2293.56
2273.67
2254.31
2235.43
2217
2198.99
2181.37
2164.12
2147.22
2130.64
2114.36
2098.38
2082.67
2067.22
2052.01
2037.04
2022.29
2007.75
1993.4
1979.25
1965.28
1951.49
1937.86
1924.39
1911.07
1897.89
1884.86
1871.95
1859.18
1846.53
1833.99
1821.57
1809.25
1797.04
1784.93
1772.91
1760.99
1749.15
1737.39
1725.72
1714.12
1702.61
1691.18
1679.82
1668.53
1657.29
1646.11
1634.98
1623.9
1612.86
1601.87
1590.92
1580
1569.12
1558.27
1547.44
1536.65
1525.88
1515.12
1504.39
1493.67
1482.96
1472.27
1461.61
1450.96
1440.33
3973.71
3491.86
3282.69
3141.88
3035.06
2949.11
2877.12
2815.05
2760.38
2711.44
2667.05
2626.36
2588.74
2553.71
2520.88
2489.96
2460.69
2432.88
2406.36
2380.99
2356.66
2333.25
2310.69
2288.89
2267.8
2247.35
2227.49
2208.18
2189.38
2171.04
2153.15
2135.66
2118.56
2101.81
2085.4
2069.3
2053.5
2037.99
2022.74
2007.74
1992.98
1978.44
1964.12
1950
1936.08
1922.34
1908.78
1895.39
1882.15
1869.08
1856.14
1843.35
1830.7
1818.17
1805.77
1793.48
1781.31
1769.25
1757.29
1745.43
1733.67
1722
1710.42
1698.92
1687.51
1676.17
1664.91
1653.71
1642.6
1631.56
1620.59
1609.68
1598.81
1588
1577.23
1566.51
1555.83
1545.19
1534.59
1524.01
1513.47
1502.96
1492.47
1482.01
1471.56
1461.13
1450.72
1440.33
1429.97
1419.62
1409.29
1398.96
3859.51
3391.5
3188.35
3051.57
2947.81
2864.31
2794.37
2734.08
2680.97
2633.43
2590.31
2550.79
2514.24
2480.21
2448.32
2418.28
2389.85
2362.84
2337.08
2312.44
2288.8
2266.06
2244.15
2222.98
2202.49
2182.63
2163.35
2144.6
2126.34
2108.53
2091.16
2074.18
2057.57
2041.31
2025.37
2009.74
1994.41
1979.34
1964.53
1949.97
1935.64
1921.53
1907.63
1893.92
1880.4
1867.07
1853.9
1840.9
1828.05
1815.35
1802.8
1790.38
1778.09
1765.93
1753.89
1741.96
1730.14
1718.43
1706.82
1695.3
1683.88
1672.55
1661.3
1650.14
1639.05
1628.04
1617.1
1606.23
1595.42
1584.69
1574.03
1563.42
1552.87
1542.37
1531.91
1521.49
1511.12
1500.78
1490.47
1480.2
1469.96
1459.75
1449.56
1439.39
1429.24
1419.12
1409.02
1398.95
1388.89
1378.85
1368.8
1358.77
3748.59
3294.03
3096.72
2963.86
2863.07
2781.96
2714.02
2655.45
2603.87
2557.68
2515.8
2477.4
2441.91
2408.85
2377.87
2348.69
2321.08
2294.84
2269.81
2245.88
2222.92
2200.84
2179.55
2158.99
2139.09
2119.8
2101.07
2082.86
2065.13
2047.84
2030.96
2014.47
1998.35
1982.56
1967.08
1951.91
1937.02
1922.39
1908.01
1893.88
1879.96
1866.26
1852.76
1839.45
1826.33
1813.38
1800.6
1787.97
1775.5
1763.17
1750.98
1738.93
1727
1715.19
1703.49
1691.91
1680.44
1669.06
1657.79
1646.61
1635.52
1624.51
1613.59
1602.75
1591.98
1581.29
1570.66
1560.11
1549.61
1539.18
1528.81
1518.5
1508.25
1498.04
1487.88
1477.76
1467.68
1457.64
1447.63
1437.65
1427.7
1417.78
1407.88
1398.01
1388.17
1378.35
1368.56
1358.77
1349
1339.24
1329.49
1319.74
3640.86
3199.37
3007.73
2878.69
2780.78
2702
2636
2579.1
2528.99
2484.13
2443.44
2406.15
2371.67
2339.56
2309.47
2281.12
2254.3
2228.81
2204.51
2181.26
2158.95
2137.5
2116.83
2096.86
2077.53
2058.8
2040.61
2022.92
2005.7
1988.91
1972.52
1956.51
1940.84
1925.51
1910.49
1895.75
1881.29
1867.09
1853.13
1839.4
1825.89
1812.58
1799.48
1786.56
1773.82
1761.24
1748.83
1736.57
1724.46
1712.49
1700.66
1688.95
1677.37
1665.9
1654.55
1643.3
1632.16
1621.12
1610.17
1599.31
1588.54
1577.85
1567.25
1556.72
1546.26
1535.88
1525.56
1515.31
1505.12
1494.99
1484.91
1474.89
1464.91
1454.99
1445.12
1435.29
1425.49
1415.74
1406.01
1396.32
1386.67
1377.04
1367.44
1357.86
1348.31
1338.77
1329.25
1319.75
3536.24
3107.44
2921.3
2795.96
2700.86
2624.34
2560.23
2504.96
2456.28
2412.71
2373.19
2336.96
2303.47
2272.28
2243.05
2215.52
2189.46
2164.7
2141.09
2118.51
2096.85
2076.01
2055.93
2036.53
2017.76
1999.57
1981.9
1964.72
1947.99
1931.69
1915.77
1900.22
1885.01
1870.12
1855.53
1841.22
1827.18
1813.38
1799.83
1786.5
1773.38
1760.46
1747.73
1735.19
1722.81
1710.61
1698.56
1686.65
1674.9
1663.27
1651.78
1640.41
1629.17
1618.03
1607.01
1596.09
1585.27
1574.54
1563.91
1553.37
1542.91
1532.53
1522.24
1512.01
1501.86
1491.77
1481.75
1471.8
1461.9
1452.06
1442.27
1432.54
1422.85
1413.21
1403.62
1394.07
1384.55
1375.08
1365.64
1356.23
1346.85
1337.5
1328.17
1318.87
1309.59
1300.32
1291.08
1281.84
3434.62
3018.15
2837.36
2715.62
2623.25
2548.91
2486.64
2432.96
2385.68
2343.35
2304.96
2269.77
2237.24
2206.94
2178.55
2151.8
2126.49
2102.45
2079.51
2057.58
2036.54
2016.3
1996.8
1977.96
1959.72
1942.05
1924.89
1908.21
1891.96
1876.12
1860.66
1845.56
1830.79
1816.33
1802.16
1788.26
1774.62
1761.23
1748.07
1735.12
1722.38
1709.84
1697.48
1685.3
1673.28
1661.43
1649.73
1638.17
1626.75
1615.47
1604.31
1593.27
1582.35
1571.54
1560.83
1550.23
1539.72
1529.31
1518.99
1508.75
1498.59
1488.52
1478.51
1468.59
1458.73
1448.93
1439.2
1429.53
1419.92
1410.36
1400.86
1391.4
1382
1372.64
1363.32
1354.04
1344.8
1335.59
1326.42
1317.28
1308.17
1299.09
1290.03
1280.99
1271.98
1262.98
1254
1245.03
3335.93
2931.42
2755.83
2637.59
2547.87
2475.67
2415.18
2363.03
2317.11
2275.99
2238.7
2204.52
2172.92
2143.49
2115.91
2089.94
2065.35
2041.99
2019.72
1998.41
1977.97
1958.32
1939.37
1921.07
1903.37
1886.2
1869.53
1853.33
1837.55
1822.17
1807.15
1792.48
1778.14
1764.09
1750.33
1736.84
1723.59
1710.59
1697.8
1685.23
1672.86
1660.68
1648.68
1636.85
1625.18
1613.67
1602.31
1591.08
1580
1569.04
1558.2
1547.49
1536.88
1526.38
1515.99
1505.69
1495.49
1485.38
1475.35
1465.41
1455.55
1445.76
1436.05
1426.41
1416.83
1407.32
1397.87
1388.48
1379.14
1369.86
1360.63
1351.45
1342.31
1333.22
1324.17
1315.16
1306.18
1297.24
1288.34
1279.46
1270.61
1261.79
1252.99
1244.21
1235.45
3240.08
2847.2
2676.66
2561.81
2474.66
2404.53
2345.77
2295.12
2250.51
2210.57
2174.35
2141.15
2110.46
2081.87
2055.09
2029.85
2005.98
1983.29
1961.65
1940.96
1921.1
1902.01
1883.61
1865.84
1848.64
1831.97
1815.78
1800.04
1784.71
1769.77
1755.19
1740.94
1727.01
1713.37
1700
1686.9
1674.04
1661.4
1648.99
1636.78
1624.77
1612.94
1601.28
1589.79
1578.46
1567.29
1556.25
1545.35
1534.59
1523.95
1513.42
1503.02
1492.72
1482.52
1472.43
1462.43
1452.52
1442.7
1432.97
1423.31
1413.74
1404.23
1394.8
1385.44
1376.14
1366.9
1357.73
1348.61
1339.54
1330.53
1321.56
1312.64
1303.77
1294.94
1286.15
1277.4
1268.68
1260
1251.34
1242.72
1234.13
1225.56
1217.01
1208.48
1199.97
3146.98
2765.39
2599.75
2488.21
2403.56
2335.44
2278.37
2229.17
2185.84
2147.04
2111.86
2079.61
2049.8
2022.03
1996.02
1971.51
1948.31
1926.27
1905.26
1885.16
1865.88
1847.33
1829.46
1812.2
1795.49
1779.3
1763.57
1748.29
1733.4
1718.89
1704.73
1690.89
1677.36
1664.11
1651.13
1638.4
1625.91
1613.64
1601.58
1589.73
1578.06
1566.57
1555.25
1544.1
1533.1
1522.24
1511.52
1500.94
1490.49
1480.15
1469.93
1459.83
1449.83
1439.93
1430.12
1420.41
1410.79
1401.26
1391.8
1382.43
1373.13
1363.9
1354.74
1345.65
1336.62
1327.65
1318.73
1309.88
1301.07
1292.32
1283.61
1274.95
1266.33
1257.76
1249.22
1240.72
1232.25
1223.82
1215.41
1207.04
1198.69
1190.36
1182.06
1173.78
1165.51
3056.56
2685.94
2525.06
2416.72
2334.51
2268.34
2212.9
2165.11
2123.02
2085.34
2051.17
2019.85
1990.89
1963.92
1938.65
1914.84
1892.31
1870.91
1850.5
1830.97
1812.24
1794.23
1776.87
1760.1
1743.88
1728.15
1712.88
1698.03
1683.57
1669.48
1655.72
1642.28
1629.14
1616.27
1603.67
1591.3
1579.17
1567.26
1555.55
1544.03
1532.7
1521.54
1510.55
1499.72
1489.03
1478.49
1468.08
1457.81
1447.65
1437.62
1427.7
1417.88
1408.17
1398.55
1389.04
1379.61
1370.26
1361
1351.82
1342.72
1333.69
1324.73
1315.83
1307
1298.23
1289.52
1280.86
1272.26
1263.71
1255.21
1246.75
1238.34
1229.97
1221.64
1213.35
1205.09
1196.87
1188.68
1180.51
1172.38
1164.27
1156.18
1148.12
1140.07
1132.04
2968.74
2608.76
2452.51
2347.29
2267.43
2203.17
2149.32
2102.9
2062.02
2025.42
1992.22
1961.8
1933.67
1907.48
1882.93
1859.81
1837.93
1817.14
1797.31
1778.35
1760.16
1742.66
1725.8
1709.51
1693.75
1678.48
1663.64
1649.22
1635.18
1621.49
1608.13
1595.08
1582.31
1569.82
1557.57
1545.57
1533.78
1522.21
1510.84
1499.66
1488.65
1477.81
1467.14
1456.62
1446.24
1436
1425.9
1415.92
1406.06
1396.31
1386.67
1377.14
1367.71
1358.37
1349.13
1339.97
1330.9
1321.91
1312.99
1304.15
1295.38
1286.68
1278.04
1269.46
1260.94
1252.48
1244.08
1235.72
1227.42
1219.16
1210.95
1202.78
1194.65
1186.56
1178.51
1170.49
1162.5
1154.54
1146.62
1138.71
1130.84
1122.98
1115.15
1107.33
1099.53
2883.44
2533.81
2382.05
2279.85
2202.29
2139.87
2087.57
2042.48
2002.77
1967.22
1934.98
1905.43
1878.11
1852.66
1828.82
1806.36
1785.11
1764.91
1745.66
1727.24
1709.57
1692.58
1676.2
1660.38
1645.08
1630.24
1615.83
1601.82
1588.18
1574.89
1561.91
1549.24
1536.84
1524.7
1512.81
1501.15
1489.7
1478.46
1467.42
1456.56
1445.87
1435.35
1424.98
1414.76
1404.68
1394.74
1384.92
1375.23
1365.66
1356.19
1346.83
1337.58
1328.42
1319.35
1310.37
1301.48
1292.67
1283.93
1275.28
1266.69
1258.17
1249.72
1241.33
1233
1224.73
1216.51
1208.35
1200.24
1192.17
1184.15
1176.17
1168.24
1160.35
1152.49
1144.67
1136.88
1129.12
1121.39
1113.69
1106.02
1098.36
1090.73
1083.12
1075.53
1067.95
2800.59
2461.01
2313.61
2214.35
2139.02
2078.39
2027.59
1983.8
1945.23
1910.7
1879.38
1850.68
1824.14
1799.42
1776.27
1754.45
1733.81
1714.2
1695.49
1677.6
1660.44
1643.94
1628.03
1612.67
1597.8
1583.39
1569.4
1555.79
1542.54
1529.63
1517.03
1504.71
1492.67
1480.88
1469.33
1458.01
1446.89
1435.98
1425.25
1414.7
1404.32
1394.1
1384.03
1374.11
1364.32
1354.66
1345.13
1335.72
1326.42
1317.23
1308.14
1299.15
1290.25
1281.45
1272.73
1264.09
1255.53
1247.05
1238.64
1230.31
1222.03
1213.82
1205.68
1197.59
1189.55
1181.58
1173.65
1165.77
1157.93
1150.15
1142.4
1134.69
1127.03
1119.39
1111.8
1104.23
1096.7
1089.19
1081.71
1074.26
1066.82
1059.41
1052.02
1044.64
1037.28
2720.12
2390.3
2247.14
2150.73
2077.57
2018.68
1969.34
1926.8
1889.34
1855.8
1825.38
1797.5
1771.72
1747.72
1725.23
1704.04
1683.99
1664.94
1646.77
1629.4
1612.73
1596.7
1581.25
1566.33
1551.89
1537.89
1524.3
1511.08
1498.22
1485.68
1473.43
1461.48
1449.78
1438.33
1427.11
1416.11
1405.32
1394.72
1384.3
1374.05
1363.97
1354.04
1344.26
1334.63
1325.12
1315.74
1306.48
1297.34
1288.31
1279.38
1270.56
1261.82
1253.19
1244.63
1236.17
1227.78
1219.47
1211.23
1203.07
1194.97
1186.93
1178.96
1171.05
1163.19
1155.39
1147.64
1139.94
1132.29
1124.68
1117.12
1109.59
1102.11
1094.66
1087.25
1079.87
1072.52
1065.21
1057.91
1050.65
1043.41
1036.19
1028.99
1021.81
1014.64
1007.49
2641.97
2321.63
2182.58
2088.94
2017.88
1960.68
1912.76
1871.45
1835.06
1802.48
1772.93
1745.85
1720.82
1697.5
1675.66
1655.08
1635.6
1617.1
1599.45
1582.58
1566.39
1550.82
1535.81
1521.32
1507.29
1493.7
1480.5
1467.66
1455.17
1442.99
1431.1
1419.48
1408.12
1397
1386.11
1375.42
1364.94
1354.64
1344.52
1334.57
1324.78
1315.14
1305.64
1296.28
1287.05
1277.94
1268.95
1260.07
1251.3
1242.63
1234.06
1225.58
1217.19
1208.88
1200.66
1192.51
1184.44
1176.44
1168.51
1160.65
1152.84
1145.1
1137.42
1129.79
1122.21
1114.68
1107.2
1099.77
1092.38
1085.04
1077.73
1070.46
1063.23
1056.03
1048.86
1041.73
1034.62
1027.54
1020.48
1013.45
1006.43
999.44
992.464
985.504
978.56
2566.06
2254.93
2119.88
2028.93
1959.91
1904.36
1857.81
1817.68
1782.34
1750.69
1722
1695.69
1671.37
1648.73
1627.51
1607.52
1588.61
1570.63
1553.5
1537.1
1521.38
1506.26
1491.68
1477.61
1463.98
1450.78
1437.96
1425.49
1413.36
1401.53
1389.98
1378.7
1367.66
1356.86
1346.28
1335.91
1325.72
1315.72
1305.89
1296.23
1286.72
1277.36
1268.13
1259.04
1250.07
1241.23
1232.5
1223.87
1215.35
1206.93
1198.61
1190.37
1182.22
1174.16
1166.17
1158.26
1150.42
1142.65
1134.95
1127.31
1119.73
1112.21
1104.75
1097.34
1089.98
1082.67
1075.41
1068.19
1061.01
1053.88
1046.78
1039.72
1032.7
1025.7
1018.74
1011.81
1004.91
998.03
991.175
984.343
977.532
970.739
963.963
957.202
950.458
2492.33
2190.14
2058.97
1970.64
1903.6
1849.65
1804.44
1765.46
1731.13
1700.4
1672.52
1646.97
1623.35
1601.36
1580.75
1561.33
1542.96
1525.51
1508.86
1492.94
1477.67
1462.98
1448.83
1435.15
1421.92
1409.1
1396.64
1384.54
1372.75
1361.26
1350.04
1339.09
1328.37
1317.88
1307.6
1297.53
1287.64
1277.92
1268.38
1258.99
1249.75
1240.66
1231.7
1222.87
1214.16
1205.57
1197.09
1188.72
1180.44
1172.26
1164.18
1156.18
1148.26
1140.43
1132.67
1124.99
1117.38
1109.83
1102.35
1094.93
1087.57
1080.27
1073.02
1065.82
1058.68
1051.58
1044.52
1037.51
1030.54
1023.61
1016.72
1009.86
1003.04
996.25
989.489
982.757
976.051
969.37
962.712
956.076
949.46
942.862
936.28
929.713
923.162
2420.72
2127.21
1999.81
1914.02
1848.91
1796.51
1752.6
1714.74
1681.4
1651.54
1624.47
1599.65
1576.71
1555.35
1535.33
1516.48
1498.63
1481.68
1465.51
1450.05
1435.21
1420.95
1407.2
1393.92
1381.07
1368.61
1356.52
1344.76
1333.31
1322.15
1311.26
1300.62
1290.21
1280.02
1270.04
1260.25
1250.64
1241.21
1231.94
1222.82
1213.85
1205.02
1196.32
1187.74
1179.28
1170.94
1162.7
1154.57
1146.53
1138.59
1130.74
1122.97
1115.28
1107.67
1100.14
1092.68
1085.28
1077.96
1070.69
1063.49
1056.34
1049.25
1042.21
1035.22
1028.27
1021.38
1014.53
1007.72
1000.95
994.219
987.525
980.865
974.238
967.642
961.075
954.536
948.022
941.533
935.066
928.621
922.194
915.785
909.392
903.013
896.65
2351.17
2066.1
1942.36
1859.03
1795.8
1744.9
1702.25
1665.48
1633.09
1604.1
1577.8
1553.7
1531.41
1510.66
1491.22
1472.91
1455.57
1439.11
1423.4
1408.38
1393.98
1380.12
1366.77
1353.87
1341.39
1329.29
1317.55
1306.12
1295
1284.17
1273.59
1263.25
1253.14
1243.25
1233.55
1224.05
1214.72
1205.55
1196.55
1187.7
1178.98
1170.4
1161.95
1153.62
1145.41
1137.31
1129.31
1121.41
1113.6
1105.89
1098.26
1090.71
1083.25
1075.86
1068.54
1061.29
1054.11
1047
1039.94
1032.94
1026
1019.11
1012.27
1005.49
998.744
992.047
985.393
978.78
972.206
965.668
959.166
952.698
946.261
939.854
933.476
927.124
920.798
914.495
908.214
901.953
895.711
889.485
883.275
877.08
870.898
2283.62
2006.73
1886.55
1805.62
1744.2
1694.77
1653.34
1617.63
1586.17
1558.01
1532.47
1509.06
1487.42
1467.26
1448.38
1430.59
1413.75
1397.76
1382.51
1367.92
1353.93
1340.47
1327.5
1314.97
1302.85
1291.1
1279.69
1268.6
1257.8
1247.27
1237
1226.96
1217.14
1207.53
1198.12
1188.88
1179.82
1170.92
1162.18
1153.58
1145.12
1136.78
1128.58
1120.49
1112.51
1104.64
1096.87
1089.19
1081.61
1074.12
1066.71
1059.39
1052.14
1044.96
1037.85
1030.81
1023.84
1016.93
1010.07
1003.28
996.534
989.844
983.203
976.61
970.062
963.558
957.095
950.672
944.287
937.937
931.622
925.339
919.087
912.865
906.669
900.5
894.355
888.233
882.132
876.05
869.987
863.94
857.909
851.891
845.886
2218
1949.08
1832.35
1753.75
1694.09
1646.08
1605.84
1571.16
1540.6
1513.25
1488.44
1465.71
1444.68
1425.11
1406.77
1389.49
1373.14
1357.6
1342.79
1328.62
1315.03
1301.96
1289.36
1277.2
1265.42
1254.01
1242.93
1232.16
1221.67
1211.44
1201.46
1191.71
1182.18
1172.84
1163.7
1154.73
1145.93
1137.29
1128.79
1120.44
1112.22
1104.13
1096.16
1088.3
1080.55
1072.91
1065.36
1057.91
1050.55
1043.27
1036.08
1028.96
1021.92
1014.95
1008.04
1001.21
994.434
987.721
981.064
974.463
967.915
961.417
954.967
948.563
942.204
935.887
929.61
923.371
917.169
911.002
904.868
898.766
892.694
886.65
880.632
874.64
868.671
862.725
856.799
850.891
845.002
839.128
833.27
827.424
821.592
2154.28
1893.08
1779.71
1703.36
1645.42
1598.79
1559.71
1526.02
1496.34
1469.78
1445.68
1423.6
1403.18
1384.16
1366.35
1349.57
1333.69
1318.6
1304.21
1290.45
1277.25
1264.56
1252.32
1240.5
1229.07
1217.98
1207.22
1196.76
1186.57
1176.64
1166.95
1157.48
1148.22
1139.15
1130.27
1121.56
1113.01
1104.62
1096.37
1088.26
1080.27
1072.42
1064.67
1057.04
1049.52
1042.09
1034.76
1027.52
1020.37
1013.31
1006.32
999.405
992.566
985.796
979.093
972.453
965.874
959.353
952.889
946.477
940.117
933.806
927.542
921.322
915.145
909.01
902.913
896.854
890.83
884.84
878.883
872.956
867.058
861.187
855.342
849.522
843.724
837.948
832.192
826.454
820.733
815.028
809.337
803.66
797.996
2092.38
1838.68
1728.57
1654.42
1598.15
1552.85
1514.9
1482.18
1453.35
1427.55
1404.15
1382.7
1362.87
1344.4
1327.09
1310.79
1295.37
1280.72
1266.74
1253.38
1240.55
1228.23
1216.34
1204.87
1193.76
1182.99
1172.54
1162.38
1152.48
1142.84
1133.42
1124.23
1115.23
1106.43
1097.8
1089.34
1081.04
1072.89
1064.88
1057
1049.24
1041.61
1034.09
1026.68
1019.37
1012.16
1005.04
998.011
991.066
984.202
977.415
970.701
964.059
957.484
950.973
944.524
938.134
931.801
925.522
919.295
913.118
906.988
900.904
894.863
888.864
882.905
876.983
871.098
865.247
859.43
853.643
847.886
842.157
836.455
830.778
825.125
819.494
813.883
808.292
802.719
797.162
791.62
786.092
780.577
2032.26
1785.86
1678.91
1606.89
1552.23
1508.24
1471.38
1439.59
1411.6
1386.54
1363.81
1342.97
1323.71
1305.77
1288.97
1273.14
1258.15
1243.92
1230.35
1217.37
1204.91
1192.94
1181.4
1170.25
1159.46
1149.01
1138.86
1128.98
1119.37
1110.01
1100.86
1091.93
1083.2
1074.64
1066.27
1058.05
1049.99
1042.07
1034.29
1026.64
1019.11
1011.69
1004.39
997.19
990.091
983.087
976.173
969.346
962.601
955.934
949.342
942.822
936.37
929.984
923.661
917.397
911.191
905.04
898.942
892.894
886.894
880.941
875.031
869.164
863.337
857.549
851.798
846.081
840.399
834.748
829.128
823.536
817.972
812.433
806.919
801.428
795.958
790.509
785.078
779.664
774.267
768.883
763.513
758.157
1973.87
1734.54
1630.67
1560.72
1507.64
1464.91
1429.1
1398.23
1371.04
1346.7
1324.62
1304.39
1285.68
1268.26
1251.93
1236.56
1222.01
1208.18
1195
1182.39
1170.3
1158.67
1147.46
1136.63
1126.15
1116
1106.14
1096.55
1087.22
1078.12
1069.24
1060.56
1052.08
1043.77
1035.64
1027.66
1019.83
1012.14
1004.58
997.146
989.832
982.632
975.539
968.547
961.653
954.85
948.135
941.504
934.953
928.478
922.075
915.743
909.477
903.274
897.132
891.049
885.022
879.047
873.124
867.25
861.423
855.64
849.901
844.202
838.543
832.921
827.335
821.783
816.263
810.775
805.316
799.885
794.48
789.101
783.745
778.411
773.098
767.805
762.53
757.271
752.028
746.799
741.582
736.379
1917.16
1684.71
1583.81
1515.88
1464.32
1422.82
1388.04
1358.06
1331.65
1308.01
1286.57
1266.91
1248.74
1231.82
1215.97
1201.03
1186.9
1173.47
1160.67
1148.42
1136.67
1125.38
1114.49
1103.98
1093.8
1083.94
1074.36
1065.05
1055.98
1047.15
1038.52
1030.1
1021.86
1013.79
1005.89
998.136
990.53
983.061
975.721
968.503
961.4
954.407
947.518
940.727
934.031
927.424
920.902
914.462
908.099
901.81
895.592
889.441
883.355
877.331
871.366
865.458
859.603
853.801
848.048
842.343
836.683
831.067
825.492
819.957
814.46
809
803.574
798.182
792.821
787.49
782.187
776.912
771.663
766.437
761.235
756.054
750.894
745.752
740.628
735.52
730.427
725.348
720.281
715.226
1862.07
1636.3
1538.31
1472.32
1422.25
1381.94
1348.16
1319.04
1293.39
1270.43
1249.6
1230.51
1212.87
1196.43
1181.03
1166.53
1152.8
1139.76
1127.32
1115.43
1104.02
1093.05
1082.47
1072.26
1062.38
1052.8
1043.49
1034.45
1025.65
1017.06
1008.69
1000.5
992.501
984.666
976.99
969.463
962.076
954.822
947.693
940.682
933.784
926.992
920.301
913.706
907.202
900.785
894.451
888.196
882.016
875.908
869.868
863.895
857.984
852.133
846.339
840.601
834.915
829.279
823.691
818.15
812.653
807.198
801.783
796.408
791.069
785.765
780.495
775.257
770.05
764.873
759.722
754.598
749.499
744.424
739.371
734.339
729.326
724.332
719.355
714.393
709.446
704.512
699.59
694.68
1808.57
1589.28
1494.11
1430.02
1381.38
1342.23
1309.43
1281.15
1256.23
1233.93
1213.7
1195.16
1178.02
1162.06
1147.1
1133.01
1119.68
1107.01
1094.93
1083.38
1072.3
1061.64
1051.37
1041.45
1031.85
1022.55
1013.52
1004.73
996.181
987.846
979.71
971.762
963.988
956.379
948.924
941.613
934.439
927.394
920.47
913.661
906.961
900.364
893.865
887.46
881.143
874.911
868.759
862.684
856.681
850.749
844.883
839.081
833.34
827.658
822.031
816.457
810.934
805.461
800.034
794.652
789.312
784.014
778.755
773.534
768.348
763.197
758.078
752.991
747.933
742.904
737.902
732.925
727.972
723.042
718.134
713.246
708.377
703.526
698.691
693.872
689.066
684.273
679.492
674.723
1756.61
1543.62
1451.18
1388.93
1341.69
1303.67
1271.81
1244.34
1220.14
1198.48
1178.83
1160.82
1144.17
1128.67
1114.14
1100.46
1087.51
1075.21
1063.47
1052.25
1041.49
1031.14
1021.17
1011.53
1002.21
993.172
984.398
975.867
967.562
959.466
951.564
943.845
936.295
928.904
921.664
914.563
907.595
900.753
894.028
887.415
880.907
874.501
868.189
861.968
855.833
849.779
843.804
837.904
832.074
826.312
820.615
814.98
809.404
803.885
798.419
793.006
787.642
782.326
777.055
771.827
766.642
761.496
756.388
751.316
746.279
741.276
736.304
731.363
726.451
721.566
716.707
711.873
707.062
702.274
697.506
692.758
688.029
683.316
678.62
673.939
669.271
664.615
659.971
655.339
1706.14
1499.27
1409.48
1349.02
1303.14
1266.21
1235.26
1208.58
1185.08
1164.04
1144.96
1127.47
1111.3
1096.24
1082.13
1068.84
1056.26
1044.31
1032.92
1022.02
1011.57
1001.52
991.827
982.47
973.414
964.637
956.116
947.831
939.764
931.901
924.226
916.729
909.396
902.218
895.186
888.29
881.522
874.876