/*--------------------------------*- C++ -*----------------------------------*\
  =========                 |
  \\      /  F ield         | OpenFOAM: The Open Source CFD Toolbox
   \\    /   O peration     | Website:  https://openfoam.org
    \\  /    A nd           | Version:  10
     \\/     M anipulation  |
\*---------------------------------------------------------------------------*/
FoamFile
{
    format      ascii;
    class       volScalarField;
    location    "14000";
    object      omega;
}
// * * * * * * * * * * * * * * * * * * * * * * * * * * * * * * * * * * * * * //

dimensions      [0 0 -1 0 0 0 0];

internalField   nonuniform List<scalar> 
17808
(
14247.6
5739.1
3273.58
2249.56
1699.16
1358.52
1127.88
961.708
836.432
738.674
660.293
596.063
542.476
497.094
458.167
424.412
394.863
368.78
345.588
324.832
306.147
289.239
273.865
259.828
246.959
235.12
224.191
214.073
204.679
195.934
187.774
180.142
172.99
166.273
159.954
153.999
148.378
143.064
138.033
133.263
128.736
124.433
120.338
116.439
112.72
109.171
105.78
102.538
99.4354
96.4638
93.6156
90.8836
88.2613
85.7426
83.3219
80.9939
78.7539
76.5972
74.5198
72.5176
70.5871
68.7248
66.9275
65.1922
63.5161
61.8966
60.3311
58.8173
57.353
55.9362
54.5649
53.2373
51.9517
50.7063
49.4997
48.3303
47.1968
46.0978
45.032
43.9983
42.9956
42.0227
41.0786
40.1624
39.2732
38.41
37.572
36.7585
35.9686
35.2016
34.4569
33.7339
14246.6
5738.38
3274.75
2250.99
1700.46
1359.62
1128.78
962.444
837.036
739.171
660.706
596.408
542.766
497.34
458.377
424.592
395.018
368.915
345.705
324.934
306.237
289.317
273.935
259.889
247.014
235.169
224.235
214.112
204.714
195.966
187.802
180.168
173.013
166.294
159.973
154.016
148.393
143.078
138.045
133.275
128.746
124.442
120.347
116.446
112.727
109.177
105.786
102.544
99.4406
96.4686
93.62
90.8876
88.265
85.746
83.3251
80.9969
78.7566
76.5998
74.5222
72.5199
70.5892
68.7268
66.9294
65.1939
63.5177
61.8981
60.3325
58.8186
57.3543
55.9374
54.5661
53.2385
51.9528
50.7074
49.5007
48.3313
47.1977
46.0987
45.0329
43.9992
42.9964
42.0235
41.0794
40.1632
39.274
38.4107
37.5728
36.7592
35.9693
35.2023
34.4576
33.7345
14248.2
5737.22
3275.31
2251.64
1701.08
1360.18
1129.27
962.869
837.403
739.489
660.982
596.649
542.977
497.524
458.539
424.735
395.144
369.026
345.804
325.022
306.315
289.387
273.997
259.945
247.064
235.213
224.275
214.149
204.747
195.995
187.829
180.192
173.034
166.314
159.991
154.032
148.408
143.091
138.058
133.286
128.756
124.451
120.356
116.454
112.734
109.184
105.792
102.549
99.4455
96.4731
93.6241
90.8915
88.2686
85.7493
83.3281
80.9996
78.7592
76.6022
74.5244
72.5219
70.5911
68.7286
66.931
65.1955
63.5192
61.8994
60.3337
58.8198
57.3554
55.9385
54.5671
53.2395
51.9537
50.7083
49.5016
48.3321
47.1985
46.0995
45.0337
43.9999
42.9972
42.0242
41.0801
40.1639
39.2746
38.4114
37.5734
36.7598
35.9699
35.203
34.4583
33.7352
14249.7
5736.15
3275.65
2252.06
1701.5
1360.57
1129.62
963.173
837.667
739.72
661.184
596.827
543.135
497.665
458.665
424.848
395.246
369.118
345.887
325.096
306.382
289.448
274.052
259.995
247.109
235.254
224.313
214.182
204.778
196.023
187.854
180.215
173.055
166.333
160.008
154.048
148.423
143.105
138.07
133.297
128.766
124.461
120.364
116.462
112.741
109.19
105.798
102.555
99.4506
96.4778
93.6284
90.8954
88.2722
85.7527
83.3312
81.0025
78.7618
76.6046
74.5267
72.524
70.5931
68.7304
66.9327
65.1971
63.5206
61.9008
60.335
58.821
57.3566
55.9396
54.5682
53.2405
51.9547
50.7092
49.5025
48.333
47.1994
46.1003
45.0345
44.0007
42.9979
42.0249
41.0808
40.1646
39.2753
38.4121
37.5741
36.7605
35.9706
35.2036
34.4589
33.7358
14251.1
5734.76
3275.54
2252.16
1701.71
1360.81
1129.86
963.388
837.859
739.89
661.336
596.963
543.257
497.775
458.765
424.939
395.328
369.193
345.955
325.159
306.439
289.501
274.1
260.039
247.149
235.291
224.346
214.213
204.806
196.049
187.878
180.237
173.075
166.351
160.025
154.064
148.437
143.117
138.082
133.308
128.776
124.47
120.373
116.47
112.749
109.197
105.804
102.56
99.4557
96.4825
93.6328
90.8995
88.2759
85.7561
83.3344
81.0055
78.7646
76.6072
74.529
72.5262
70.5951
68.7323
66.9345
65.1987
63.5222
61.9022
60.3364
58.8223
57.3578
55.9408
54.5693
53.2415
51.9557
50.7102
49.5034
48.3339
47.2002
46.1011
45.0353
44.0015
42.9986
42.0257
41.0816
40.1653
39.276
38.4128
37.5748
36.7612
35.9713
35.2043
34.4596
33.7364
14252.6
5733.37
3275.23
2252.09
1701.77
1360.94
1130
963.527
837.99
740.011
661.446
597.064
543.349
497.859
458.842
425.01
395.394
369.254
346.011
325.211
306.487
289.545
274.141
260.077
247.184
235.324
224.376
214.241
204.831
196.073
187.9
180.257
173.094
166.368
160.041
154.078
148.45
143.13
138.093
133.318
128.786
124.479
120.381
116.477
112.756
109.204
105.81
102.566
99.4609
96.4873
93.6372
90.9035
88.2797
85.7596
83.3376
81.0085
78.7674
76.6098
74.5315
72.5285
70.5972
68.7342
66.9363
65.2004
63.5238
61.9037
60.3378
58.8236
57.3591
55.942
54.5704
53.2426
51.9567
50.7112
49.5043
48.3348
47.2011
46.1019
45.0361
44.0023
42.9994
42.0264
41.0823
40.166
39.2767
38.4135
37.5754
36.7619
35.9719
35.2049
34.4602
33.7371
14254.1
5732.17
3274.84
2251.96
1701.77
1360.99
1130.08
963.62
838.082
740.098
661.527
597.138
543.418
497.924
458.902
425.066
395.446
369.302
346.057
325.253
306.527
289.582
274.176
260.109
247.215
235.352
224.403
214.266
204.854
196.094
187.92
180.275
173.111
166.384
160.056
154.092
148.463
143.142
138.104
133.329
128.796
124.488
120.389
116.485
112.763
109.21
105.816
102.571
99.466
96.4921
93.6417
90.9077
88.2835
85.7632
83.3409
81.0116
78.7702
76.6124
74.5339
72.5308
70.5994
68.7363
66.9382
65.2022
63.5254
61.9053
60.3393
58.825
57.3603
55.9432
54.5716
53.2437
51.9578
50.7122
49.5053
48.3357
47.202
46.1028
45.0369
44.0031
43.0002
42.0272
41.0831
40.1668
39.2775
38.4142
37.5762
36.7626
35.9726
35.2056
34.4609
33.7378
14255.4
5731.15
3274.43
2251.8
1701.73
1361.01
1130.13
963.682
838.147
740.162
661.588
597.195
543.472
497.974
458.949
425.11
395.487
369.341
346.094
325.288
306.56
289.613
274.206
260.137
247.241
235.377
224.426
214.287
204.875
196.113
187.938
180.292
173.127
166.399
160.069
154.105
148.475
143.153
138.115
133.338
128.805
124.496
120.397
116.492
112.769
109.216
105.822
102.577
99.4712
96.4968
93.6461
90.9118
88.2874
85.7668
83.3443
81.0147
78.7731
76.6151
74.5365
72.5332
70.6016
68.7383
66.9401
65.204
63.5271
61.9069
60.3408
58.8264
57.3617
55.9445
54.5728
53.2449
51.9589
50.7132
49.5063
48.3367
47.2029
46.1037
45.0378
44.0039
43.001
42.028
41.0838
40.1676
39.2782
38.4149
37.5769
36.7633
35.9733
35.2063
34.4616
33.7385
14256.5
5730.27
3274.01
2251.62
1701.65
1361
1130.15
963.72
838.192
740.208
661.633
597.239
543.513
498.013
458.986
425.145
395.521
369.373
346.124
325.317
306.587
289.639
274.23
260.161
247.263
235.398
224.446
214.306
204.893
196.13
187.954
180.307
173.141
166.412
160.082
154.117
148.486
143.163
138.124
133.348
128.813
124.504
120.404
116.499
112.776
109.223
105.828
102.582
99.4762
96.5015
93.6505
90.9159
88.2912
85.7703
83.3476
81.0178
78.7761
76.6179
74.539
72.5356
70.6039
68.7404
66.9421
65.2059
63.5289
61.9085
60.3423
58.8279
57.3631
55.9458
54.5741
53.2461
51.96
50.7143
49.5074
48.3377
47.2039
46.1046
45.0387
44.0048
43.0019
42.0288
41.0847
40.1683
39.279
38.4157
37.5776
36.764
35.9741
35.2071
34.4623
33.7392
14257.5
5729.51
3273.6
2251.43
1701.56
1360.96
1130.15
963.739
838.221
740.241
661.667
597.272
543.545
498.043
459.015
425.172
395.547
369.398
346.148
325.34
306.61
289.661
274.251
260.18
247.282
235.416
224.463
214.323
204.909
196.145
187.968
180.321
173.154
166.424
160.094
154.128
148.496
143.173
138.134
133.356
128.821
124.512
120.412
116.506
112.782
109.229
105.834
102.587
99.4811
96.5062
93.6548
90.92
88.295
85.7739
83.351
81.021
78.779
76.6207
74.5416
72.538
70.6061
68.7426
66.9441
65.2078
63.5307
61.9102
60.3439
58.8294
57.3645
55.9471
54.5754
53.2473
51.9612
50.7154
49.5084
48.3387
47.2049
46.1056
45.0396
44.0057
43.0028
42.0297
41.0855
40.1692
39.2798
38.4165
37.5784
36.7648
35.9748
35.2078
34.4631
33.7399
14258.3
5728.87
3273.21
2251.24
1701.46
1360.92
1130.14
963.745
838.237
740.262
661.691
597.296
543.569
498.067
459.038
425.194
395.568
369.419
346.168
325.36
306.628
289.679
274.268
260.197
247.298
235.432
224.478
214.337
204.922
196.158
187.981
180.333
173.166
166.435
160.104
154.138
148.506
143.182
138.142
133.364
128.829
124.519
120.418
116.513
112.789
109.234
105.839
102.593
99.4859
96.5107
93.6591
90.924
88.2988
85.7775
83.3543
81.0241
78.782
76.6234
74.5442
72.5405
70.6084
68.7448
66.9462
65.2097
63.5325
61.9119
60.3455
58.8309
57.366
55.9485
54.5767
53.2486
51.9624
50.7166
49.5096
48.3398
47.2059
46.1066
45.0406
44.0066
43.0037
42.0306
41.0864
40.17
39.2806
38.4173
37.5792
36.7656
35.9756
35.2086
34.4638
33.7407
14259
5728.31
3272.84
2251.05
1701.36
1360.86
1130.11
963.739
838.244
740.275
661.707
597.314
543.587
498.085
459.055
425.212
395.585
369.435
346.184
325.375
306.644
289.694
274.283
260.211
247.312
235.445
224.491
214.35
204.934
196.17
187.992
180.344
173.176
166.445
160.114
154.147
148.515
143.19
138.15
133.372
128.836
124.526
120.425
116.519
112.794
109.24
105.844
102.597
99.4906
96.5151
93.6632
90.9279
88.3025
85.781
83.3576
81.0272
78.7849
76.6262
74.5469
72.5429
70.6108
68.747
66.9483
65.2117
63.5344
61.9137
60.3472
58.8325
57.3675
55.95
54.5781
53.2499
51.9637
50.7178
49.5107
48.3409
47.207
46.1076
45.0416
44.0076
43.0046
42.0315
41.0873
40.1709
39.2815
38.4182
37.5801
36.7664
35.9765
35.2094
34.4646
33.7415
14259.6
5727.83
3272.51
2250.87
1701.25
1360.8
1130.08
963.725
838.242
740.281
661.717
597.326
543.6
498.098
459.069
425.225
395.599
369.449
346.197
325.388
306.657
289.706
274.295
260.223
247.324
235.456
224.502
214.361
204.945
196.18
188.002
180.353
173.185
166.454
160.122
154.155
148.522
143.198
138.157
133.379
128.843
124.532
120.431
116.524
112.8
109.245
105.849
102.602
99.495
96.5193
93.6673
90.9317
88.3061
85.7844
83.3609
81.0303
78.7878
76.629
74.5495
72.5454
70.6131
68.7492
66.9504
65.2137
63.5363
61.9155
60.3489
58.8342
57.369
55.9515
54.5795
53.2512
51.965
50.7191
49.5119
48.3421
47.2081
46.1087
45.0426
44.0086
43.0056
42.0325
41.0882
40.1718
39.2824
38.4191
37.581
36.7673
35.9773
35.2103
34.4655
33.7423
14260.1
5727.42
3272.2
2250.69
1701.14
1360.73
1130.04
963.705
838.234
740.281
661.722
597.334
543.61
498.108
459.08
425.236
395.61
369.459
346.208
325.399
306.667
289.717
274.305
260.233
247.334
235.466
224.512
214.37
204.954
196.189
188.01
180.362
173.193
166.462
160.13
154.162
148.53
143.205
138.164
133.385
128.849
124.538
120.437
116.53
112.805
109.25
105.854
102.607
99.4994
96.5234
93.6712
90.9355
88.3097
85.7878
83.3641
81.0333
78.7907
76.6317
74.5521
72.5479
70.6155
68.7514
66.9525
65.2157
63.5382
61.9174
60.3507
58.8358
57.3706
55.953
54.5809
53.2526
51.9663
50.7203
49.5132
48.3433
47.2093
46.1098
45.0437
44.0097
43.0067
42.0335
41.0892
40.1728
39.2834
38.42
37.5819
36.7682
35.9782
35.2112
34.4663
33.7432
14260.6
5727.06
3271.92
2250.53
1701.04
1360.67
1130
963.68
838.221
740.276
661.722
597.337
543.615
498.115
459.087
425.244
395.618
369.468
346.216
325.407
306.676
289.725
274.314
260.242
247.342
235.474
224.52
214.378
204.962
196.197
188.018
180.369
173.201
166.469
160.137
154.169
148.536
143.211
138.17
133.391
128.855
124.544
120.442
116.535
112.81
109.255
105.858
102.611
99.5035
96.5274
93.675
90.9391
88.3131
85.7911
83.3672
81.0363
78.7936
76.6344
74.5547
72.5504
70.6178
68.7537
66.9546
65.2177
63.5401
61.9192
60.3525
58.8376
57.3723
55.9546
54.5824
53.2541
51.9677
50.7217
49.5144
48.3445
47.2105
46.111
45.0449
44.0108
43.0077
42.0346
41.0903
40.1738
39.2844
38.421
37.5829
36.7692
35.9792
35.2121
34.4673
33.7441
14260.9
5726.75
3271.66
2250.37
1700.94
1360.6
1129.95
963.652
838.205
740.267
661.719
597.338
543.618
498.119
459.092
425.25
395.624
369.474
346.223
325.414
306.683
289.732
274.321
260.249
247.349
235.482
224.527
214.385
204.969
196.204
188.025
180.376
173.207
166.476
160.143
154.175
148.542
143.217
138.176
133.396
128.86
124.549
120.447
116.54
112.814
109.259
105.863
102.615
99.5075
96.5312
93.6786
90.9426
88.3165
85.7943
83.3703
81.0393
78.7964
76.6371
74.5573
72.5528
70.6202
68.7559
66.9568
65.2198
63.5421
61.9211
60.3543
58.8393
57.3739
55.9562
54.584
53.2555
51.9691
50.7231
49.5158
48.3458
47.2117
46.1122
45.046
44.012
43.0089
42.0357
41.0913
40.1749
39.2854
38.4221
37.5839
36.7703
35.9803
35.2132
34.4684
33.7451
14261.2
5726.48
3271.43
2250.23
1700.85
1360.54
1129.91
963.622
838.185
740.256
661.713
597.335
543.618
498.121
459.095
425.254
395.629
369.479
346.228
325.42
306.688
289.738
274.327
260.255
247.356
235.488
224.534
214.392
204.975
196.21
188.031
180.382
173.213
166.482
160.149
154.181
148.548
143.222
138.181
133.402
128.865
124.554
120.451
116.544
112.819
109.263
105.867
102.619
99.5113
96.5349
93.6822
90.946
88.3198
85.7974
83.3733
81.0422
78.7992
76.6398
74.5598
72.5553
70.6226
68.7582
66.959
65.2219
63.5441
61.923
60.3561
58.8411
57.3757
55.9578
54.5856
53.2571
51.9706
50.7245
49.5171
48.3471
47.213
46.1135
45.0473
44.0132
43.01
42.0368
41.0925
40.176
39.2866
38.4232
37.5851
36.7715
14261.5
5726.24
3271.22
2250.09
1700.76
1360.47
1129.86
963.591
838.164
740.241
661.704
597.33
543.616
498.121
459.097
425.256
395.632
369.483
346.232
325.424
306.693
289.743
274.332
260.26
247.361
235.493
224.539
214.397
204.981
196.215
188.036
180.387
173.218
166.487
160.154
154.186
148.553
143.227
138.186
133.406
128.87
124.558
120.456
116.549
112.823
109.267
105.871
102.623
99.5149
96.5384
93.6856
90.9493
88.3229
85.8005
83.3763
81.045
78.8019
76.6425
74.5624
72.5577
70.6249
68.7604
66.9611
65.224
63.5461
61.925
60.358
58.8429
57.3774
55.9595
54.5872
53.2586
51.9721
50.7259
49.5186
48.3485
47.2144
46.1148
45.0485
44.0144
43.0113
42.038
41.0937
40.1772
39.2877
38.4244
37.5863
36.7727
14261.7
5726.03
3271.04
2249.96
1700.67
1360.41
1129.82
963.559
838.141
740.226
661.693
597.323
543.612
498.119
459.096
425.257
395.633
369.485
346.235
325.427
306.697
289.747
274.336
260.265
247.365
235.498
224.544
214.402
204.986
196.22
188.041
180.392
173.223
166.492
160.159
154.191
148.557
143.232
138.19
133.411
128.874
124.562
120.46
116.553
112.827
109.271
105.874
102.626
99.5184
96.5418
93.6889
90.9525
88.326
85.8035
83.3792
81.0478
78.8046
76.6451
74.5649
72.5602
70.6272
68.7627
66.9633
65.2261
63.5482
61.9269
60.3599
58.8447
57.3792
55.9612
54.5888
53.2602
51.9737
50.7275
49.52
48.3499
47.2157
46.1161
45.0499
44.0157
43.0125
42.0393
41.0949
40.1785
39.2891
38.4258
37.5876
36.774
14261.9
5725.84
3270.87
2249.85
1700.59
1360.35
1129.78
963.527
838.117
740.208
661.681
597.315
543.606
498.116
459.095
425.256
395.634
369.486
346.237
325.43
306.699
289.75
274.34
260.268
247.369
235.502
224.548
214.406
204.99
196.225
188.046
180.396
173.228
166.496
160.163
154.195
148.562
143.236
138.194
133.415
128.878
124.566
120.464
116.556
112.831
109.275
105.878
102.63
99.5218
96.5451
93.692
90.9556
88.329
85.8064
83.382
81.0506
78.8073
76.6476
74.5674
72.5626
70.6296
68.765
66.9655
65.2282
63.5502
61.9289
60.3618
58.8466
57.381
55.9629
54.5905
53.2619
51.9753
50.729
49.5216
48.3514
47.2172
46.1175
45.0512
44.0171
43.0139
42.0406
41.0963
40.1799
39.2906
14262.1
5725.67
3270.71
2249.74
1700.51
1360.3
1129.74
963.496
838.093
740.19
661.667
597.305
543.599
498.111
459.092
425.255
395.633
369.487
346.238
325.431
306.701
289.752
274.342
260.271
247.372
235.505
224.551
214.41
204.994
196.228
188.049
180.4
173.232
166.5
160.167
154.199
148.566
143.24
138.198
133.419
128.882
124.57
120.467
116.56
112.834
109.278
105.881
102.633
99.525
96.5482
93.6951
90.9586
88.332
85.8093
83.3848
81.0533
78.8099
76.6502
74.5698
72.565
70.6319
68.7672
66.9677
65.2303
63.5523
61.9309
60.3638
58.8485
57.3828
55.9647
54.5923
53.2636
51.9769
50.7306
49.5231
48.3529
47.2187
46.119
45.0527
44.0185
43.0153
42.0421
41.0977
40.1813
39.292
14262.2
5725.52
3270.57
2249.64
1700.44
1360.25
1129.7
963.465
838.069
740.172
661.653
597.294
543.591
498.105
459.088
425.252
395.632
369.486
346.238
325.432
306.703
289.754
274.344
260.274
247.375
235.508
224.554
214.413
204.997
196.232
188.053
180.404
173.235
166.504
160.171
154.203
148.569
143.244
138.202
133.422
128.885
124.573
120.471
116.563
112.838
109.282
105.885
102.636
99.5282
96.5513
93.6981
90.9615
88.3349
85.8121
83.3875
81.056
78.8125
76.6527
74.5723
72.5674
70.6342
68.7695
66.9699
65.2325
63.5544
61.9329
60.3657
58.8504
57.3847
55.9666
54.5941
53.2653
51.9786
50.7323
49.5247
48.3545
47.2202
46.1205
45.0542
44.02
43.0168
42.0435
41.0992
40.1828
39.2935
14262.4
5725.38
3270.45
2249.54
1700.38
1360.2
1129.66
963.435
838.046
740.153
661.639
597.283
543.583
498.099
459.083
425.249
395.63
369.485
346.238
325.432
306.703
289.755
274.346
260.276
247.377
235.51
224.557
214.416
205
196.235
188.056
180.407
173.239
166.507
160.174
154.206
148.573
143.247
138.205
133.426
128.889
124.577
120.474
116.567
112.841
109.285
105.888
102.64
99.5312
96.5543
93.7011
90.9644
88.3377
85.8148
83.3902
81.0586
78.8151
76.6552
74.5748
72.5698
70.6366
68.7718
66.9721
65.2346
63.5565
61.935
60.3677
58.8523
57.3866
55.9684
54.5959
53.2671
51.9803
50.734
49.5264
48.3562
47.2218
46.1221
45.0558
44.0216
43.0184
42.0451
41.1008
40.1844
39.295
14262.5
5725.25
3270.33
2249.46
1700.31
1360.15
1129.62
963.407
838.023
740.135
661.624
597.271
543.573
498.092
459.077
425.245
395.627
369.483
346.237
325.432
306.704
289.756
274.347
260.277
247.379
235.512
224.559
214.418
205.002
196.238
188.059
180.41
173.242
166.51
160.177
154.209
148.576
143.25
138.209
133.429
128.892
124.58
120.478
116.57
112.844
109.288
105.891
102.643
99.5342
96.5573
93.704
90.9672
88.3405
85.8176
83.3929
81.0612
78.8177
76.6577
74.5772
72.5722
70.6389
68.774
66.9743
65.2368
63.5586
61.9371
60.3698
58.8543
57.3885
55.9703
54.5977
53.2689
51.9821
50.7357
49.5281
48.3579
47.2235
46.1238
45.0574
44.0232
43.02
42.0467
41.1024
40.1859
39.2965
14262.6
5725.13
3270.23
2249.38
1700.25
1360.11
1129.59
963.38
838.001
740.117
661.609
597.259
543.564
498.084
459.071
425.24
395.624
369.481
346.235
325.431
306.703
289.756
274.348
260.278
247.38
235.514
224.561
214.42
205.005
196.24
188.062
180.413
173.245
166.513
160.18
154.212
148.579
143.253
138.212
133.432
128.895
124.583
120.481
116.573
112.847
109.291
105.894
102.646
99.5371
96.5601
93.7068
90.97
88.3432
85.8202
83.3955
81.0638
78.8202
76.6602
74.5797
72.5746
70.6413
68.7763
66.9766
65.239
63.5607
61.9392
60.3718
58.8563
57.3905
55.9723
54.5996
53.2708
51.984
50.7375
49.5299
48.3596
47.2253
46.1255
45.0591
44.0249
43.0217
42.0484
41.104
40.1876
39.2981
14262.7
5725.02
3270.13
2249.3
1700.2
1360.07
1129.56
963.354
837.98
740.099
661.595
597.247
543.554
498.076
459.065
425.235
395.62
369.478
346.233
325.43
306.703
289.756
274.348
260.279
247.381
235.516
224.563
214.422
205.007
196.243
188.064
180.416
173.247
166.516
160.183
154.215
148.582
143.256
138.215
133.435
128.898
124.586
120.484
116.576
112.85
109.294
105.897
102.648
99.54
96.563
93.7096
90.9728
88.3459
85.8229
83.3982
81.0664
78.8227
76.6627
74.5821
72.577
70.6436
68.7787
66.9789
65.2412
63.5629
61.9413
60.3739
58.8584
57.3925
55.9743
54.6016
53.2727
51.9859
50.7394
49.5318
48.3614
47.2271
46.1273
45.0609
44.0267
43.0234
42.0501
41.1057
40.1892
39.2997
14262.8
5724.92
3270.05
2249.24
1700.15
1360.03
1129.53
963.33
837.96
740.082
661.58
597.235
543.544
498.068
459.058
425.23
395.615
369.475
346.231
325.428
306.702
289.756
274.348
260.279
247.382
235.517
224.564
214.424
205.009
196.245
188.066
180.418
173.25
166.518
160.186
154.218
148.585
143.259
138.218
133.438
128.901
124.589
120.487
116.579
112.853
109.297
105.9
102.651
99.5428
96.5658
93.7124
90.9755
88.3486
85.8256
83.4008
81.069
78.8253
76.6652
74.5846
72.5794
70.646
68.781
66.9812
65.2435
63.5651
61.9435
60.3761
58.8605
57.3946
55.9763
54.6036
53.2747
51.9878
50.7413
49.5337
48.3633
47.2289
46.1292
45.0627
44.0285
43.0252
42.0519
41.1075
40.191
39.3014
14262.9
5724.84
3269.96
2249.17
1700.1
1359.99
1129.5
963.307
837.941
740.066
661.567
597.224
543.534
498.059
459.051
425.224
395.611
369.471
346.228
325.426
306.7
289.755
274.348
260.28
247.383
235.518
224.566
214.425
205.011
196.247
188.069
180.42
173.252
166.521
160.188
154.221
148.587
143.262
138.22
133.441
128.904
124.592
120.489
116.582
112.856
109.3
105.902
102.654
99.5456
96.5685
93.7151
90.9782
88.3513
85.8282
83.4034
81.0715
78.8278
76.6677
74.587
72.5818
70.6484
68.7834
66.9835
65.2458
63.5674
61.9457
60.3783
58.8627
57.3967
55.9784
54.6057
53.2767
51.9898
50.7433
49.5356
48.3653
47.2309
46.1311
45.0647
44.0304
43.0271
42.0538
41.1093
40.1928
39.3032
14263
5724.75
3269.89
2249.11
1700.06
1359.96
1129.47
963.285
837.923
740.051
661.553
597.212
543.524
498.051
459.044
425.218
395.606
369.467
346.225
325.424
306.699
289.754
274.348
260.28
247.383
235.518
224.567
214.427
205.012
196.248
188.071
180.422
173.254
166.523
160.191
154.223
148.59
143.265
138.223
133.444
128.907
124.595
120.492
116.585
112.859
109.302
105.905
102.657
99.5484
96.5713
93.7179
90.981
88.354
85.8309
83.406
81.0741
78.8304
76.6703
74.5895
72.5843
70.6508
68.7857
66.9858
65.2481
63.5697
61.948
60.3805
58.8649
57.3989
55.9805
54.6078
53.2788
51.9919
50.7454
49.5377
48.3673
47.2329
46.1331
45.0666
44.0323
43.0291
42.0557
41.1112
40.1946
39.305
14263.1
5724.67
3269.82
2249.06
1700.01
1359.93
1129.45
963.265
837.906
740.036
661.541
597.201
543.515
498.043
459.037
425.212
395.601
369.463
346.222
325.422
306.697
289.753
274.347
260.279
247.383
235.519
224.567
214.428
205.014
196.25
188.072
180.424
173.256
166.526
160.193
154.226
148.593
143.267
138.226
133.446
128.909
124.598
120.495
116.587
112.861
109.305
105.908
102.66
99.5512
96.5741
93.7206
90.9837
88.3567
85.8336
83.4087
81.0768
78.833
76.6728
74.5921
72.5868
70.6533
68.7882
66.9882
65.2505
63.572
61.9503
60.3828
58.8671
57.4011
55.9827
54.61
53.281
51.9941
50.7475
49.5398
48.3694
47.235
46.1351
45.0687
44.0344
43.0311
42.0577
41.1132
40.1965
39.3068
14263.2
5724.59
3269.75
2249
1699.97
1359.89
1129.42
963.246
837.889
740.023
661.529
597.191
543.506
498.035
459.03
425.206
395.596
369.459
346.219
325.419
306.695
289.751
274.346
260.279
247.383
235.519
224.568
214.429
205.015
196.252
188.074
180.426
173.259
166.528
160.195
154.228
148.595
143.27
138.228
133.449
128.912
124.6
120.498
116.59
112.864
109.308
105.911
102.662
99.554
96.5768
93.7234
90.9864
88.3594
85.8363
83.4113
81.0794
78.8356
76.6754
74.5946
72.5893
70.6558
68.7906
66.9907
65.2529
63.5744
61.9527
60.3851
58.8694
57.4034
55.985
54.6122
53.2832
51.9963
50.7497
49.5419
48.3715
47.2371
46.1373
45.0708
44.0364
43.0331
42.0597
41.1152
40.1985
39.3088
14263.3
5724.53
3269.69
2248.95
1699.94
1359.87
1129.4
963.227
837.874
740.01
661.517
597.181
543.497
498.027
459.024
425.201
395.591
369.455
346.215
325.416
306.693
289.75
274.345
260.278
247.383
235.52
224.569
214.43
205.016
196.253
188.076
180.428
173.26
166.53
160.198
154.23
148.598
143.272
138.231
133.452
128.915
124.603
120.501
116.593
112.867
109.311
105.914
102.665
99.5567
96.5796
93.7261
90.9891
88.3621
85.839
83.414
81.0821
78.8382
76.678
74.5972
72.5919
70.6583
68.7932
66.9932
65.2553
63.5769
61.9551
60.3875
58.8718
57.4058
55.9873
54.6145
53.2855
51.9985
50.7519
49.5442
48.3738
47.2393
46.1395
45.073
44.0386
43.0353
42.0618
41.1172
40.2005
39.3108
14263.3
5724.47
3269.63
2248.91
1699.9
1359.84
1129.38
963.21
837.86
739.997
661.507
597.171
543.488
498.02
459.017
425.195
395.586
369.451
346.212
325.413
306.691
289.748
274.344
260.278
247.383
235.52
224.569
214.43
205.017
196.254
188.077
180.43
173.262
166.532
160.2
154.233
148.6
143.275
138.233
133.454
128.917
124.606
120.503
116.596
112.87
109.314
105.916
102.668
99.5595
96.5824
93.7289
90.9919
88.3649
85.8417
83.4167
81.0848
78.8409
76.6807
74.5998
72.5945
70.6609
68.7957
66.9957
65.2578
63.5793
61.9575
60.3899
58.8742
57.4082
55.9897
54.6169
53.2878
52.0009
50.7543
49.5465
48.3761
47.2416
46.1417
45.0752
44.0408
43.0374
42.064
41.1194
40.2027
39.3129
14263.4
5724.41
3269.58
2248.86
1699.87
1359.81
1129.36
963.194
837.846
739.986
661.497
597.162
543.48
498.012
459.011
425.189
395.581
369.446
346.208
325.41
306.688
289.746
274.343
260.277
247.383
235.52
224.569
214.431
205.018
196.255
188.079
180.431
173.264
166.534
160.202
154.235
148.602
143.277
138.236
133.457
128.92
124.608
120.506
116.598
112.872
109.316
105.919
102.671
99.5623
96.5852
93.7317
90.9947
88.3677
85.8445
83.4195
81.0875
78.8436
76.6834
74.6025
72.5971
70.6635
68.7983
66.9983
65.2604
63.5819
61.9601
60.3924
58.8767
57.4106
55.9922
54.6193
53.2903
52.0033
50.7566
49.5489
48.3784
47.2439
46.144
45.0775
44.0431
43.0397
42.0662
41.1216
40.2048
39.315
14263.5
5724.36
3269.53
2248.82
1699.83
1359.79
1129.34
963.179
837.834
739.975
661.487
597.154
543.473
498.006
459.005
425.184
395.576
369.442
346.204
325.407
306.686
289.744
274.341
260.276
247.382
235.519
224.57
214.432
205.019
196.256
188.08
180.433
173.266
166.536
160.204
154.237
148.604
143.28
138.238
133.459
128.923
124.611
120.509
116.601
112.875
109.319
105.922
102.674
99.5652
96.588
93.7345
90.9975
88.3705
85.8473
83.4223
81.0903
78.8464
76.6861
74.6052
72.5998
70.6662
68.801
67.0009
65.263
63.5845
61.9626
60.395
58.8792
57.4132
55.9947
54.6218
53.2927
52.0057
50.7591
49.5513
48.3808
47.2463
46.1464
45.0799
44.0455
43.0421
42.0685
41.1239
40.2071
39.3173
14263.6
5724.31
3269.48
2248.78
1699.8
1359.76
1129.32
963.164
837.822
739.965
661.478
597.146
543.466
497.999
458.999
425.179
395.572
369.438
346.201
325.404
306.683
289.743
274.34
260.275
247.381
235.519
224.57
214.432
205.019
196.257
188.081
180.434
173.267
166.537
160.206
154.239
148.607
143.282
138.241
133.462
128.925
124.614
120.511
116.604
112.878
109.322
105.925
102.677
99.568
96.5909
93.7374
91.0004
88.3733
85.8501
83.4251
81.0931
78.8492
76.6889
74.608
72.6026
70.6689
68.8037
67.0036
65.2657
63.5871
61.9653
60.3976
58.8818
57.4157
55.9972
54.6244
53.2953
52.0083
50.7616
49.5538
48.3833
47.2488
46.1489
45.0823
44.0479
43.0445
42.071
41.1263
40.2096
14263.7
5724.27
3269.44
2248.74
1699.77
1359.74
1129.3
963.15
837.81
739.955
661.47
597.139
543.459
497.993
458.993
425.174
395.567
369.434
346.198
325.402
306.681
289.741
274.338
260.274
247.381
235.519
224.57
214.432
205.02
196.258
188.082
180.436
173.269
166.539
160.208
154.241
148.609
143.284
138.243
133.464
128.928
124.616
120.514
116.607
112.881
109.325
105.928
102.679
99.5709
96.5937
93.7402
91.0032
88.3762
85.853
83.428
81.0959
78.852
76.6917
74.6108
72.6054
70.6717
68.8065
67.0064
65.2684
63.5898
61.968
60.4003
58.8845
57.4184
55.9999
54.627
53.2979
52.0109
50.7642
49.5564
48.3859
47.2514
46.1514
45.0848
44.0504
43.047
42.0734
41.1288
40.212
14263.7
5724.23
3269.4
2248.71
1699.75
1359.72
1129.29
963.136
837.799
739.946
661.462
597.132
543.453
497.988
458.988
425.169
395.563
369.431
346.194
325.399
306.679
289.739
274.337
260.273
247.38
235.519
224.57
214.433
205.021
196.259
188.083
180.437
173.271
166.541
160.21
154.243
148.611
143.287
138.246
133.467
128.93
124.619
120.517
116.609
112.884
109.328
105.93
102.682
99.5737
96.5966
93.7431
91.0061
88.3791
85.8559
83.4309
81.0988
78.8549
76.6946
74.6137
72.6082
70.6745
68.8093
67.0092
65.2712
63.5926
61.9707
60.403
58.8872
57.4211
56.0026
54.6297
53.3006
52.0135
50.7668
49.559
48.3885
47.254
46.154
45.0874
44.053
43.0495
42.076
41.1313
40.2144
14263.8
5724.2
3269.36
2248.68
1699.72
1359.7
1129.27
963.124
837.789
739.937
661.455
597.125
543.447
497.982
458.983
425.165
395.559
369.427
346.191
325.396
306.676
289.737
274.335
260.271
247.379
235.518
224.57
214.433
205.021
196.26
188.084
180.438
173.272
166.543
160.212
154.245
148.613
143.289
138.248
133.469
128.933
124.622
120.519
116.612
112.886
109.33
105.933
102.685
99.5766
96.5995
93.7461
91.0091
88.382
85.8588
83.4338
81.1017
78.8578
76.6975
74.6166
72.6111
70.6774
68.8121
67.012
65.2741
63.5954
61.9735
60.4058
58.89
57.4239
56.0053
54.6324
53.3033
52.0162
50.7696
49.5617
48.3912
47.2567
46.1567
45.0901
44.0556
43.0521
42.0785
41.1338
40.2169
14263.9
5724.17
3269.33
2248.65
1699.69
1359.68
1129.25
963.111
837.779
739.929
661.448
597.119
543.441
497.977
458.979
425.161
395.556
369.424
346.188
325.393
306.674
289.735
274.334
260.27
247.378
235.518
224.57
214.433
205.022
196.261
188.085
180.439
173.273
166.544
160.213
154.247
148.615
143.291
138.25
133.472
128.935
124.624
120.522
116.615
112.889
109.333
105.936
102.688
99.5795
96.6025
93.749
91.012
88.385
85.8618
83.4367
81.1047
78.8608
76.7004
74.6195
72.614
70.6803
68.815
67.0149
65.2769
63.5983
61.9764
60.4087
58.8929
57.4267
56.0082
54.6352
53.3061
52.019
50.7723
49.5645
48.394
47.2594
46.1594
45.0928
44.0583
43.0548
42.0812
41.1364
40.2195
14264
5724.15
3269.3
2248.62
1699.67
1359.66
1129.24
963.099
837.769
739.921
661.441
597.113
543.436
497.973
458.975
425.157
395.552
369.421
346.185
325.391
306.672
289.733
274.332
260.269
247.378
235.517
224.569
214.433
205.022
196.261
188.086
180.44
173.275
166.546
160.215
154.249
148.617
143.293
138.253
133.474
128.938
124.627
120.525
116.617
112.892
109.336
105.939
102.691
99.5825
96.6054
93.752
91.015
88.388
85.8647
83.4397
81.1077
78.8638
76.7034
74.6225
72.617
70.6833
68.818
67.0179
65.2799
63.6013
61.9793
60.4116
58.8958
57.4296
56.011
54.6381
53.309
52.0219
50.7752
49.5673
48.3968
47.2622
46.1622
45.0956
44.061
43.0575
42.0838
41.139
40.2221
14264.1
5724.13
3269.27
2248.59
1699.65
1359.64
1129.22
963.088
837.76
739.914
661.434
597.108
543.431
497.968
458.971
425.153
395.549
369.417
346.183
325.388
306.67
289.731
274.331
260.268
247.377
235.517
224.569
214.433
205.022
196.262
188.087
180.442
173.276
166.547
160.217
154.251
148.619
143.295
138.255
133.476
128.94
124.629
120.527
116.62
112.895
109.339
105.942
102.694
99.5854
96.6083
93.7549
91.018
88.391
85.8678
83.4428
81.1107
78.8668
76.7064
74.6255
72.62
70.6863
68.821
67.0209
65.2829
63.6042
61.9823
60.4146
58.8987
57.4325
56.014
54.641
53.3119
52.0248
50.7781
49.5702
48.3996
47.265
46.165
45.0984
44.0638
43.0602
42.0866
41.1417
40.2247
14264.2
5724.11
3269.24
2248.57
1699.62
1359.62
1129.21
963.076
837.751
739.906
661.428
597.102
543.427
497.964
458.967
425.15
395.546
369.415
346.18
325.386
306.668
289.729
274.329
260.267
247.376
235.516
224.569
214.433
205.023
196.262
188.088