/*--------------------------------*- C++ -*----------------------------------*\
  =========                 |
  \\      /  F ield         | OpenFOAM: The Open Source CFD Toolbox
   \\    /   O peration     | Website:  https://openfoam.org
    \\  /    A nd           | Version:  10
     \\/     M anipulation  |
\*---------------------------------------------------------------------------*/
FoamFile
{
    format      ascii;
    class       volScalarField;
    location    "14000";
    object      p;
}
// * * * * * * * * * * * * * * * * * * * * * * * * * * * * * * * * * * * * * //

dimensions      [0 2 -2 0 0 0 0];

internalField   nonuniform List<scalar> 
17808
(
18.4435
18.4611
18.4688
18.4681
18.4649
18.4589
18.4508
18.441
18.4297
18.4173
18.4037
18.3891
18.3736
18.3572
18.34
18.322
18.3033
18.2838
18.2635
18.2425
18.2208
18.1984
18.1752
18.1513
18.1267
18.1013
18.0752
18.0483
18.0207
17.9924
17.9632
17.9333
17.9026
17.8711
17.8388
17.8057
17.7717
17.7369
17.7012
17.6647
17.6273
17.589
17.5498
17.5096
17.4685
17.4265
17.3835
17.3395
17.2945
17.2485
17.2014
17.1533
17.1042
17.0539
17.0026
16.9501
16.8965
16.8417
16.7857
16.7286
16.6702
16.6106
16.5497
16.4875
16.4241
16.3593
16.2932
16.2257
16.1568
16.0865
16.0148
15.9416
15.867
15.7908
15.7132
15.6339
15.5531
15.4707
15.3867
15.301
15.2137
15.1246
15.0338
14.9413
14.847
14.7509
14.6529
14.5532
14.4515
14.3479
14.2424
14.1349
18.5013
18.4993
18.4901
18.4813
18.4731
18.4637
18.4534
18.4421
18.4299
18.4168
18.4028
18.388
18.3723
18.3559
18.3386
18.3206
18.3018
18.2823
18.2621
18.2411
18.2195
18.197
18.1739
18.15
18.1255
18.1001
18.0741
18.0472
18.0197
17.9913
17.9622
17.9324
17.9017
17.8702
17.8379
17.8048
17.7709
17.7361
17.7005
17.664
17.6266
17.5883
17.5491
17.509
17.4679
17.4259
17.3829
17.3389
17.294
17.248
17.2009
17.1528
17.1037
17.0535
17.0021
16.9496
16.896
16.8413
16.7853
16.7282
16.6698
16.6102
16.5493
16.4872
16.4237
16.3589
16.2928
16.2253
16.1565
16.0862
16.0145
15.9413
15.8667
15.7905
15.7128
15.6336
15.5528
15.4704
15.3864
15.3007
15.2133
15.1243
15.0335
14.941
14.8467
14.7506
14.6526
14.5528
14.4512
14.3476
14.242
14.1345
18.5261
18.519
18.5075
18.4971
18.486
18.4739
18.4614
18.4483
18.4346
18.4203
18.4054
18.3898
18.3736
18.3566
18.339
18.3208
18.3018
18.2821
18.2618
18.2407
18.219
18.1965
18.1733
18.1494
18.1248
18.0995
18.0734
18.0466
18.019
17.9907
17.9616
17.9317
17.9011
17.8696
17.8373
17.8042
17.7703
17.7356
17.6999
17.6634
17.6261
17.5878
17.5486
17.5085
17.4674
17.4254
17.3824
17.3385
17.2935
17.2475
17.2005
17.1524
17.1033
17.0531
17.0017
16.9493
16.8956
16.8409
16.7849
16.7278
16.6694
16.6098
16.549
16.4868
16.4234
16.3586
16.2925
16.225
16.1561
16.0859
16.0142
15.941
15.8663
15.7902
15.7125
15.6333
15.5525
15.4701
15.3861
15.3004
15.213
15.124
15.0332
14.9407
14.8464
14.7503
14.6523
14.5525
14.4508
14.3472
14.2417
14.1342
18.526
18.5187
18.5093
18.4999
18.4891
18.4772
18.4647
18.4514
18.4374
18.4228
18.4075
18.3916
18.375
18.3578
18.3399
18.3214
18.3023
18.2824
18.2619
18.2407
18.2189
18.1963
18.1731
18.1491
18.1245
18.0991
18.073
18.0462
18.0186
17.9902
17.9611
17.9312
17.9006
17.8691
17.8368
17.8038
17.7698
17.7351
17.6995
17.663
17.6256
17.5873
17.5481
17.508
17.467
17.425
17.382
17.3381
17.2931
17.2471
17.2001
17.152
17.1029
17.0527
17.0013
16.9489
16.8953
16.8405
16.7846
16.7274
16.6691
16.6095
16.5486
16.4865
16.423
16.3583
16.2922
16.2247
16.1558
16.0856
16.0138
15.9407
15.866
15.7899
15.7122
15.633
15.5522
15.4698
15.3857
15.3001
15.2127
15.1237
15.0329
14.9404
14.8461
14.7499
14.652
14.5522
14.4505
14.3469
14.2414
14.1339
18.5267
18.519
18.5102
18.5007
18.4898
18.4782
18.4657
18.4525
18.4385
18.4239
18.4085
18.3925
18.3759
18.3585
18.3406
18.3219
18.3027
18.2827
18.2621
18.2408
18.2189
18.1963
18.173
18.149
18.1243
18.0988
18.0727
18.0458
18.0182
17.9898
17.9607
17.9308
17.9001
17.8687
17.8364
17.8033
17.7694
17.7346
17.699
17.6625
17.6251
17.5869
17.5477
17.5076
17.4666
17.4246
17.3816
17.3377
17.2927
17.2467
17.1997
17.1517
17.1025
17.0523
17.001
16.9485
16.8949
16.8402
16.7842
16.7271
16.6688
16.6092
16.5483
16.4862
16.4227
16.358
16.2919
16.2244
16.1555
16.0853
16.0135
15.9404
15.8657
15.7896
15.7119
15.6327
15.5519
15.4695
15.3855
15.2998
15.2124
15.1234
15.0326
14.9401
14.8458
14.7497
14.6517
14.5519
14.4502
14.3466
14.2411
14.1336
18.5298
18.5216
18.513
18.5031
18.492
18.4802
18.4675
18.4541
18.44
18.4252
18.4097
18.3936
18.3768
18.3593
18.3412
18.3225
18.3031
18.2831
18.2624
18.241
18.219
18.1963
18.173
18.1489
18.1241
18.0987
18.0725
18.0456
18.0179
17.9896
17.9604
17.9305
17.8998
17.8683
17.836
17.8029
17.769
17.7342
17.6986
17.6621
17.6248
17.5865
17.5473
17.5072
17.4662
17.4242
17.3812
17.3373
17.2923
17.2464
17.1994
17.1513
17.1022
17.052
17.0006
16.9482
16.8946
16.8399
16.7839
16.7268
16.6684
16.6088
16.548
16.4859
16.4224
16.3577
16.2916
16.2241
16.1552
16.085
16.0133
15.9401
15.8655
15.7893
15.7116
15.6324
15.5516
15.4692
15.3852
15.2995
15.2122
15.1231
15.0323
14.9398
14.8455
14.7494
14.6514
14.5516
14.4499
14.3463
14.2408
14.1333
18.532
18.5236
18.5151
18.505
18.4939
18.482
18.4692
18.4556
18.4414
18.4265
18.4109
18.3946
18.3777
18.3601
18.342
18.3231
18.3036
18.2835
18.2628
18.2413
18.2192
18.1965
18.1731
18.1489
18.1241
18.0986
18.0724
18.0455
18.0178
17.9894
17.9602
17.9303
17.8995
17.868
17.8357
17.8026
17.7687
17.7339
17.6983
17.6618
17.6244
17.5861
17.547
17.5069
17.4658
17.4238
17.3809
17.3369
17.292
17.246
17.199
17.151
17.1018
17.0516
17.0003
16.9479
16.8943
16.8395
16.7836
16.7265
16.6681
16.6086
16.5477
16.4856
16.4221
16.3574
16.2913
16.2238
16.155
16.0847
16.013
15.9398
15.8652
15.789
15.7114
15.6321
15.5513
15.4689
15.3849
15.2992
15.2119
15.1228
15.0321
14.9395
14.8452
14.7491
14.6512
14.5514
14.4497
14.3461
14.2405
14.133
18.5332
18.5245
18.5162
18.5061
18.495
18.483
18.4702
18.4566
18.4423
18.4274
18.4117
18.3954
18.3784
18.3608
18.3426
18.3237
18.3041
18.2839
18.2631
18.2416
18.2195
18.1967
18.1732
18.149
18.1242
18.0986
18.0724
18.0454
18.0177
17.9892
17.96
17.9301
17.8993
17.8678
17.8355
17.8024
17.7684
17.7336
17.698
17.6615
17.6241
17.5858
17.5467
17.5066
17.4655
17.4235
17.3806
17.3366
17.2917
17.2457
17.1987
17.1507
17.1015
17.0513
17
16.9476
16.894
16.8392
16.7833
16.7262
16.6679
16.6083
16.5474
16.4853
16.4219
16.3571
16.291
16.2235
16.1547
16.0844
16.0127
15.9396
15.8649
15.7888
15.7111
15.6319
15.5511
15.4687
15.3847
15.299
15.2116
15.1226
15.0318
14.9393
14.845
14.7489
14.6509
14.5511
14.4494
14.3458
14.2403
14.1328
18.5341
18.5253
18.5171
18.5069
18.4958
18.4838
18.471
18.4574
18.4431
18.428
18.4124
18.396
18.379
18.3614
18.3431
18.3241
18.3045
18.2843
18.2634
18.2419
18.2197
18.1969
18.1734
18.1492
18.1243
18.0987
18.0724
18.0454
18.0176
17.9892
17.9599
17.9299
17.8992
17.8677
17.8353
17.8022
17.7682
17.7334
17.6978
17.6612
17.6239
17.5856
17.5464
17.5063
17.4652
17.4232
17.3803
17.3363
17.2914
17.2454
17.1984
17.1504
17.1012
17.051
16.9997
16.9473
16.8937
16.839
16.783
16.7259
16.6676
16.608
16.5472
16.485
16.4216
16.3569
16.2908
16.2233
16.1544
16.0842
16.0125
15.9393
15.8647
15.7885
15.7109
15.6317
15.5509
15.4685
15.3844
15.2988
15.2114
15.1224
15.0316
14.9391
14.8447
14.7486
14.6507
14.5509
14.4492
14.3456
14.24
14.1325
18.5349
18.526
18.5178
18.5076
18.4965
18.4845
18.4716
18.458
18.4437
18.4286
18.4129
18.3965
18.3795
18.3618
18.3435
18.3245
18.3049
18.2847
18.2637
18.2422
18.22
18.1971
18.1735
18.1493
18.1244
18.0987
18.0724
18.0454
18.0176
17.9891
17.9599
17.9299
17.8991
17.8675
17.8352
17.802
17.768
17.7332
17.6976
17.661
17.6236
17.5853
17.5462
17.506
17.465
17.423
17.38
17.3361
17.2911
17.2452
17.1982
17.1501
17.101
17.0508
16.9995
16.947
16.8934
16.8387
16.7828
16.7257
16.6673
16.6077
16.5469
16.4848
16.4214
16.3566
16.2905
16.2231
16.1542
16.0839
16.0122
15.9391
15.8645
15.7883
15.7106
15.6314
15.5506
15.4682
15.3842
15.2985
15.2112
15.1221
15.0314
14.9388
14.8445
14.7484
14.6505
14.5507
14.449
14.3454
14.2398
14.1323
18.5355
18.5266
18.5184
18.5082
18.4971
18.485
18.4722
18.4585
18.4442
18.4291
18.4134
18.397
18.3799
18.3622
18.3439
18.3249
18.3052
18.2849
18.264
18.2424
18.2202
18.1973
18.1737
18.1494
18.1245
18.0988
18.0725
18.0454
18.0176
17.9891
17.9598
17.9298
17.899
17.8674
17.8351
17.8019
17.7679
17.7331
17.6974
17.6609
17.6235
17.5852
17.546
17.5058
17.4648
17.4228
17.3798
17.3358
17.2909
17.2449
17.1979
17.1499
17.1007
17.0505
16.9992
16.9468
16.8932
16.8385
16.7825
16.7254
16.6671
16.6075
16.5467
16.4845
16.4211
16.3564
16.2903
16.2228
16.154
16.0837
16.012
15.9389
15.8642
15.7881
15.7104
15.6312
15.5504
15.468
15.384
15.2983
15.211
15.1219
15.0312
14.9386
14.8443
14.7482
14.6503
14.5505
14.4488
14.3452
14.2396
14.1321
18.536
18.527
18.5189
18.5086
18.4975
18.4855
18.4726
18.459
18.4446
18.4295
18.4138
18.3974
18.3803
18.3626
18.3442
18.3252
18.3055
18.2852
18.2642
18.2426
18.2204
18.1974
18.1738
18.1495
18.1246
18.0989
18.0725
18.0455
18.0176
17.9891
17.9598
17.9298
17.899
17.8674
17.835
17.8018
17.7678
17.7329
17.6973
17.6607
17.6233
17.585
17.5458
17.5057
17.4646
17.4226
17.3796
17.3356
17.2907
17.2447
17.1977
17.1496
17.1005
17.0503
16.999
16.9466
16.893
16.8382
16.7823
16.7252
16.6669
16.6073
16.5465
16.4843
16.4209
16.3562
16.2901
16.2226
16.1538
16.0835
16.0118
15.9387
15.864
15.7879
15.7102
15.631
15.5502
15.4678
15.3838
15.2981
15.2108
15.1217
15.031
14.9384
14.8441
14.748
14.6501
14.5503
14.4486
14.345
14.2394
14.1319
18.5364
18.5274
18.5193
18.509
18.4979
18.4858
18.473
18.4593
18.4449
18.4299
18.4141
18.3977
18.3806
18.3628
18.3445
18.3254
18.3057
18.2854
18.2645
18.2428
18.2205
18.1976
18.174
18.1497
18.1247
18.099
18.0726
18.0455
18.0177
17.9891
17.9598
17.9298
17.8989
17.8673
17.8349
17.8017
17.7677
17.7328
17.6972
17.6606
17.6232
17.5849
17.5456
17.5055
17.4644
17.4224
17.3794
17.3355
17.2905
17.2445
17.1975
17.1494
17.1003
17.0501
16.9988
16.9464
16.8928
16.838
16.7821
16.725
16.6667
16.6071
16.5462
16.4841
16.4207
16.356
16.2899
16.2224
16.1536
16.0833
16.0116
15.9385
15.8638
15.7877
15.71
15.6308
15.55
15.4676
15.3836
15.298
15.2106
15.1216
15.0308
14.9383
14.844
14.7478
14.6499
14.5501
14.4484
14.3448
14.2392
14.1317
18.5367
18.5277
18.5196
18.5093
18.4982
18.4861
18.4732
18.4596
18.4452
18.4301
18.4144
18.3979
18.3808
18.3631
18.3447
18.3256
18.3059
18.2856
18.2646
18.243
18.2207
18.1977
18.1741
18.1498
18.1248
18.0991
18.0727
18.0456
18.0177
17.9891
17.9598
17.9298
17.8989
17.8673
17.8349
17.8017
17.7676
17.7328
17.6971
17.6605
17.6231
17.5847
17.5455
17.5054
17.4643
17.4223
17.3793
17.3353
17.2903
17.2444
17.1973
17.1493
17.1001
17.0499
16.9986
16.9462
16.8926
16.8379
16.7819
16.7248
16.6665
16.6069
16.5461
16.4839
16.4205
16.3558
16.2897
16.2222
16.1534
16.0831
16.0114
15.9383
15.8637
15.7875
15.7099
15.6307
15.5499
15.4675
15.3835
15.2978
15.2104
15.1214
15.0306
14.9381
14.8438
14.7477
14.6497
14.5499
14.4482
14.3446
14.2391
14.1316
18.537
18.5279
18.5198
18.5096
18.4984
18.4864
18.4735
18.4598
18.4454
18.4303
18.4146
18.3981
18.381
18.3633
18.3449
18.3258
18.3061
18.2858
18.2648
18.2431
18.2208
18.1978
18.1742
18.1499
18.1249
18.0991
18.0727
18.0456
18.0178
17.9892
17.9598
17.9298
17.8989
17.8673
17.8349
17.8016
17.7676
17.7327
17.697
17.6604
17.623
17.5846
17.5454
17.5053
17.4642
17.4221
17.3791
17.3352
17.2902
17.2442
17.1972
17.1491
17.1
17.0498
16.9985
16.946
16.8924
16.8377
16.7818
16.7246
16.6663
16.6067
16.5459
16.4838
16.4204
16.3556
16.2895
16.2221
16.1532
16.083
16.0113
15.9381
15.8635
15.7874
15.7097
15.6305
15.5497
15.4673
15.3833
15.2976
15.2103
15.1212
15.0305
14.9379
14.8436
14.7475
14.6496
14.5498
14.4481
14.3445
14.2389
14.1314
18.5372
18.5281
18.52
18.5098
18.4986
18.4866
18.4737
18.46
18.4456
18.4305
18.4148
18.3983
18.3812
18.3634
18.345
18.326
18.3063
18.2859
18.2649
18.2433
18.2209
18.1979
18.1743
18.15
18.1249
18.0992
18.0728
18.0457
18.0178
17.9892
17.9599
17.9298
17.8989
17.8673
17.8348
17.8016
17.7675
17.7327
17.6969
17.6604
17.6229
17.5846
17.5453
17.5052
17.4641
17.422
17.379
17.3351
17.2901
17.2441
17.1971
17.149
17.0999
17.0496
16.9983
16.9459
16.8923
16.8375
16.7816
16.7245
16.6662
16.6066
16.5457
16.4836
16.4202
16.3555
16.2894
16.2219
16.1531
16.0828
16.0111
15.938
15.8634
15.7872
15.7096
15.6304
15.5496
15.4672
15.3832
15.2975
15.2101
15.1211
15.0303
14.9378
14.8435
14.7474
14.6494
14.5496
14.448
14.3443
14.2388
14.1313
18.5374
18.5283
18.5202
18.5099
18.4988
18.4867
18.4739
18.4602
18.4458
18.4307
18.4149
18.3985
18.3813
18.3636
18.3452
18.3261
18.3064
18.286
18.265
18.2434
18.221
18.198
18.1744
18.15
18.125
18.0993
18.0728
18.0457
18.0178
17.9892
17.9599
17.9298
17.8989
17.8673
17.8348
17.8016
17.7675
17.7326
17.6969
17.6603
17.6229
17.5845
17.5453
17.5051
17.464
17.422
17.3789
17.335
17.29
17.244
17.197
17.1489
17.0997
17.0495
16.9982
16.9457
16.8922
16.8374
16.7815
16.7244
16.666
16.6064
16.5456
16.4835
16.4201
16.3553
16.2892
16.2218
16.1529
16.0827
16.011
15.9379
15.8632
15.7871
15.7094
15.6302
15.5494
15.467
15.383
15.2974
15.21
15.121
15.0302
14.9377
14.8434
14.7473
14.6493
14.5495
18.5375
18.5285
18.5203
18.5101
18.499
18.4869
18.474
18.4603
18.4459
18.4308
18.415
18.3986
18.3815
18.3637
18.3453
18.3262
18.3065
18.2861
18.2651
18.2435
18.2211
18.1981
18.1745
18.1501
18.1251
18.0993
18.0729
18.0457
18.0179
17.9893
17.9599
17.9298
17.8989
17.8673
17.8348
17.8016
17.7675
17.7326
17.6969
17.6603
17.6228
17.5845
17.5452
17.505
17.4639
17.4219
17.3789
17.3349
17.2899
17.2439
17.1969
17.1488
17.0996
17.0494
16.9981
16.9456
16.892
16.8373
16.7814
16.7243
16.6659
16.6063
16.5455
16.4834
16.42
16.3552
16.2891
16.2217
16.1528
16.0826
16.0109
15.9377
15.8631
15.787
15.7093
15.6301
15.5493
15.4669
15.3829
15.2972
15.2099
15.1209
15.0301
14.9376
14.8433
14.7472
14.6492
14.5494
18.5376
18.5286
18.5205
18.5102
18.4991
18.487
18.4741
18.4605
18.4461
18.431
18.4152
18.3987
18.3816
18.3638
18.3454
18.3263
18.3066
18.2862
18.2652
18.2435
18.2212
18.1982
18.1745
18.1502
18.1251
18.0994
18.073
18.0458
18.0179
17.9893
17.9599
17.9298
17.8989
17.8673
17.8348
17.8016
17.7675
17.7326
17.6969
17.6603
17.6228
17.5844
17.5452
17.505
17.4639
17.4218
17.3788
17.3348
17.2898
17.2438
17.1968
17.1487
17.0996
17.0493
16.998
16.9455
16.892
16.8372
16.7813
16.7242
16.6658
16.6062
16.5454
16.4833
16.4198
16.3551
16.289
16.2216
16.1527
16.0825
16.0108
15.9376
15.863
15.7869
15.7092
15.63
15.5492
15.4668
15.3828
15.2971
15.2098
15.1208
15.03
14.9375
14.8432
14.7471
14.6491
14.5493
18.5378
18.5287
18.5206
18.5103
18.4992
18.4871
18.4742
18.4606
18.4462
18.4311
18.4153
18.3988
18.3817
18.3639
18.3455
18.3264
18.3067
18.2863
18.2653
18.2436
18.2213
18.1983
18.1746
18.1502
18.1252
18.0995
18.073
18.0458
18.018
17.9893
17.96
17.9299
17.899
17.8673
17.8348
17.8016
17.7675
17.7326
17.6969
17.6602
17.6228
17.5844
17.5451
17.505
17.4638
17.4218
17.3788
17.3348
17.2898
17.2438
17.1967
17.1486
17.0995
17.0493
16.9979
16.9455
16.8919
16.8371
16.7812
16.7241
16.6657
16.6061
16.5453
16.4832
16.4198
16.355
16.2889
16.2215
16.1526
16.0824
16.0107
15.9375
15.8629
15.7868
15.7091
15.6299
15.5491
15.4667
15.3827
15.2971
15.2097
15.1207
15.0299
14.9374
14.8431
18.5379
18.5289
18.5207
18.5104
18.4993
18.4872
18.4743
18.4607
18.4463
18.4312
18.4154
18.3989
18.3818
18.364
18.3456
18.3265
18.3068
18.2864
18.2654
18.2437
18.2214
18.1983
18.1747
18.1503
18.1253
18.0995
18.0731
18.0459
18.018
17.9894
17.96
17.9299
17.899
17.8673
17.8349
17.8016
17.7675
17.7326
17.6969
17.6602
17.6228
17.5844
17.5451
17.5049
17.4638
17.4218
17.3787
17.3347
17.2897
17.2437
17.1967
17.1486
17.0994
17.0492
16.9979
16.9454
16.8918
16.8371
16.7811
16.724
16.6657
16.6061
16.5452
16.4831
16.4197
16.3549
16.2889
16.2214
16.1526
16.0823
16.0106
15.9375
15.8628
15.7867
15.709
15.6298
15.549
15.4667
15.3826
15.297
15.2096
15.1206
15.0298
14.9373
14.843
18.538
18.529
18.5208
18.5105
18.4994
18.4873
18.4744
18.4608
18.4464
18.4312
18.4154
18.399
18.3819
18.3641
18.3457
18.3266
18.3069
18.2865
18.2655
18.2438
18.2214
18.1984
18.1747
18.1504
18.1253
18.0996
18.0731
18.0459
18.018
17.9894
17.9601
17.9299
17.899
17.8674
17.8349
17.8016
17.7675
17.7326
17.6969
17.6603
17.6228
17.5844
17.5451
17.5049
17.4638
17.4218
17.3787
17.3347
17.2897
17.2437
17.1967
17.1486
17.0994
17.0492
16.9978
16.9454
16.8918
16.837
16.7811
16.724
16.6656
16.606
16.5452
16.4831
16.4196
16.3549
16.2888
16.2213
16.1525
16.0822
16.0105
15.9374
15.8628
15.7866
15.709
15.6298
15.549
15.4666
15.3826
15.2969
15.2096
15.1205
15.0298
14.9372
14.8429
18.5381
18.5291
18.5208
18.5106
18.4995
18.4874
18.4745
18.4608
18.4464
18.4313
18.4155
18.3991
18.3819
18.3642
18.3457
18.3267
18.3069
18.2866
18.2655
18.2438
18.2215
18.1985
18.1748
18.1504
18.1254
18.0996
18.0732
18.046
18.0181
17.9895
17.9601
17.93
17.8991
17.8674
17.8349
17.8017
17.7676
17.7326
17.6969
17.6603
17.6228
17.5844
17.5451
17.5049
17.4638
17.4218
17.3787
17.3347
17.2897
17.2437
17.1966
17.1485
17.0994
17.0492
16.9978
16.9453
16.8917
16.837
16.7811
16.7239
16.6656
16.606
16.5451
16.483
16.4196
16.3548
16.2887
16.2213
16.1524
16.0822
16.0105
15.9374
15.8627
15.7866
15.7089
15.6297
15.5489
15.4666
15.3825
15.2969
15.2095
15.1205
15.0297
14.9372
14.8429
18.5381
18.5292
18.5209
18.5107
18.4996
18.4875
18.4746
18.4609
18.4465
18.4314
18.4156
18.3992
18.382
18.3642
18.3458
18.3267
18.307
18.2866
18.2656
18.2439
18.2216
18.1985
18.1749
18.1505
18.1254
18.0997
18.0732
18.0461
18.0182
17.9895
17.9601
17.93
17.8991
17.8674
17.835
17.8017
17.7676
17.7327
17.6969
17.6603
17.6228
17.5844
17.5451
17.505
17.4638
17.4218
17.3787
17.3347
17.2897
17.2437
17.1966
17.1485
17.0994
17.0491
16.9978
16.9453
16.8917
16.837
16.781
16.7239
16.6656
16.606
16.5451
16.483
16.4196
16.3548
16.2887
16.2213
16.1524
16.0822
16.0105
15.9373
15.8627
15.7866
15.7089
15.6297
15.5489
15.4665
15.3825
15.2968
15.2095
15.1205
15.0297
14.9372
14.8429
18.5382
18.5293
18.521
18.5108
18.4997
18.4876
18.4747
18.461
18.4466
18.4315
18.4157
18.3992
18.3821
18.3643
18.3459
18.3268
18.3071
18.2867
18.2657
18.244
18.2216
18.1986
18.1749
18.1506
18.1255
18.0997
18.0733
18.0461
18.0182
17.9896
17.9602
17.9301
17.8992
17.8675
17.835
17.8017
17.7676
17.7327
17.697
17.6603
17.6228
17.5845
17.5452
17.505
17.4639
17.4218
17.3787
17.3347
17.2897
17.2437
17.1967
17.1486
17.0994
17.0491
16.9978
16.9453
16.8917
16.837
16.781
16.7239
16.6655
16.606
16.5451
16.483
16.4195
16.3548
16.2887
16.2212
16.1524
16.0821
16.0105
15.9373
15.8627
15.7865
15.7089
15.6297
15.5489
15.4665
15.3825
15.2968
15.2095
15.1204
15.0297
14.9371
14.8428
18.5383
18.5294
18.5211
18.5109
18.4997
18.4877
18.4748
18.4611
18.4467
18.4316
18.4158
18.3993
18.3822
18.3644
18.346
18.3269
18.3072
18.2868
18.2658
18.2441
18.2217
18.1987
18.175
18.1506
18.1256
18.0998
18.0734
18.0462
18.0183
17.9896
17.9603
17.9301
17.8992
17.8675
17.8351
17.8018
17.7677
17.7328
17.697
17.6604
17.6229
17.5845
17.5452
17.505
17.4639
17.4218
17.3788
17.3348
17.2898
17.2437
17.1967
17.1486
17.0994
17.0492
16.9978
16.9453
16.8917
16.837
16.781
16.7239
16.6655
16.606
16.5451
16.483
16.4196
16.3548
16.2887
16.2212
16.1524
16.0821
16.0104
15.9373
15.8627
15.7865
15.7089
15.6297
15.5489
15.4665
15.3825
15.2968
15.2095
15.1204
15.0297
14.9371
14.8428
18.5384
18.5295
18.5212
18.511
18.4998
18.4878
18.4749
18.4612
18.4468
18.4317
18.4159
18.3994
18.3823
18.3645
18.3461
18.327
18.3073
18.2869
18.2658
18.2441
18.2218
18.1988
18.1751
18.1507
18.1257
18.0999
18.0734
18.0463
18.0184
17.9897
17.9603
17.9302
17.8993
17.8676
17.8351
17.8019
17.7678
17.7328
17.6971
17.6604
17.6229
17.5846
17.5453
17.5051
17.4639
17.4219
17.3788
17.3348
17.2898
17.2438
17.1967
17.1486
17.0994
17.0492
16.9978
16.9454
16.8918
16.837
16.7811
16.7239
16.6656
16.606
16.5451
16.483
16.4196
16.3548
16.2887
16.2213
16.1524
16.0822
16.0105
15.9373
15.8627
15.7866
15.7089
15.6297
15.5489
15.4665
15.3825
15.2968
15.2095
15.1204
15.0297
14.9371
14.8428
18.5385
18.5296
18.5213
18.5111
18.4999
18.4879
18.475
18.4613
18.4469
18.4318
18.416
18.3995
18.3824
18.3646
18.3462
18.3271
18.3073
18.287
18.2659
18.2442
18.2219
18.1989
18.1752
18.1508
18.1257
18.1
18.0735
18.0463
18.0184
17.9898
17.9604
17.9303
17.8994
17.8677
17.8352
17.8019
17.7678
17.7329
17.6971
17.6605
17.623
17.5846
17.5453
17.5051
17.464
17.4219
17.3789
17.3349
17.2898
17.2438
17.1968
17.1487
17.0995
17.0492
16.9979
16.9454
16.8918
16.837
16.7811
16.724
16.6656
16.606
16.5452
16.483
16.4196
16.3548
16.2887
16.2213
16.1524
16.0822
16.0105
15.9373
15.8627
15.7866
15.7089
15.6297
15.5489
15.4665
15.3825
15.2968
15.2095
15.1205
15.0297
14.9372
14.8429
18.5386
18.5297
18.5214
18.5112
18.5
18.488
18.4751
18.4614
18.447
18.4319
18.4161
18.3996
18.3825
18.3647
18.3463
18.3272
18.3074
18.2871
18.266
18.2443
18.222
18.199
18.1753
18.1509
18.1258
18.1001
18.0736
18.0464
18.0185
17.9899
17.9605
17.9304
17.8995
17.8678
17.8353
17.802
17.7679
17.733
17.6972
17.6606
17.6231
17.5847
17.5454
17.5052
17.4641
17.422
17.3789
17.3349
17.2899
17.2439
17.1968
17.1487
17.0995
17.0493
16.9979
16.9455
16.8919
16.8371
16.7812
16.724
16.6657
16.6061
16.5452
16.4831
16.4196
16.3549
16.2888
16.2213
16.1525
16.0822
16.0105
15.9374
15.8627
15.7866
15.709
15.6297
15.549
15.4666
15.3825
15.2969
15.2095
15.1205
15.0297
14.9372
14.8429
18.5387
18.5298
18.5215
18.5113
18.5001
18.4881
18.4752
18.4615
18.4471
18.432
18.4162
18.3997
18.3826
18.3648
18.3464
18.3273
18.3075
18.2872
18.2661
18.2444
18.2221
18.1991
18.1754
18.151
18.1259
18.1002
18.0737
18.0465
18.0186
17.99
17.9606
17.9305
17.8995
17.8679
17.8354
17.8021
17.768
17.7331
17.6973
17.6607
17.6232
17.5848
17.5455
17.5053
17.4641
17.4221
17.379
17.335
17.29
17.244
17.1969
17.1488
17.0996
17.0494
16.998
16.9455
16.8919
16.8372
16.7812
16.7241
16.6657
16.6061
16.5453
16.4831
16.4197
16.3549
16.2888
16.2214
16.1525
16.0823
16.0106
15.9374
15.8628
15.7867
15.709
15.6298
15.549
15.4666
15.3826
15.2969
15.2096
15.1205
15.0298
14.9372
14.8429
18.5388
18.5299
18.5216
18.5114
18.5003
18.4882
18.4753
18.4616
18.4472
18.4321
18.4163
18.3998
18.3827
18.3649
18.3465
18.3274
18.3077
18.2873
18.2662
18.2445
18.2222
18.1992
18.1755
18.1511
18.126
18.1003
18.0738
18.0466
18.0187
17.9901
17.9607
17.9306
17.8996
17.868
17.8355
17.8022
17.7681
17.7332
17.6974
17.6608
17.6233
17.5849
17.5456
17.5054
17.4642
17.4222
17.3791
17.3351
17.2901
17.244
17.197
17.1489
17.0997
17.0494
16.9981
16.9456
16.892
16.8372
16.7813
16.7241
16.6658
16.6062
16.5453
16.4832
16.4198
16.355
16.2889
16.2215
16.1526
16.0823
16.0106
15.9375
15.8629
15.7867
15.7091
15.6299
15.5491
15.4667
15.3827
15.297
15.2096
15.1206
15.0298
14.9373
14.843
18.539
18.5301
18.5217
18.5116
18.5004
18.4883
18.4754
18.4617
18.4473
18.4322
18.4164
18.4
18.3828
18.365
18.3466
18.3275
18.3078
18.2874
18.2664
18.2447
18.2223
18.1993
18.1756
18.1512
18.1262
18.1004
18.0739
18.0467
18.0188
17.9902
17.9608
17.9307
17.8998
17.8681
17.8356
17.8023
17.7682
17.7333
17.6975
17.6609
17.6234
17.585
17.5457
17.5055
17.4643
17.4223
17.3792
17.3352
17.2902
17.2441
17.1971
17.149
17.0998
17.0495
16.9982
16.9457
16.8921
16.8373
16.7814
16.7242
16.6659
16.6063
16.5454
16.4833
16.4199
16.3551
16.289
16.2215
16.1527
16.0824
16.0107
15.9376
15.8629
15.7868
15.7091
15.6299
15.5491
15.4667
15.3827
15.2971
15.2097
15.1207
15.0299
14.9374
14.8431
18.5391
18.5302
18.5218
18.5117
18.5005
18.4885
18.4756
18.4619
18.4475
18.4324
18.4166
18.4001
18.383
18.3652
18.3467
18.3277
18.3079
18.2875
18.2665
18.2448
18.2224
18.1994
18.1757
18.1514
18.1263
18.1005
18.0741
18.0469
18.019
17.9903
17.9609
17.9308
17.8999
17.8682
17.8357
17.8024
17.7683
17.7334
17.6976
17.661
17.6235
17.5851
17.5458
17.5056
17.4645
17.4224
17.3793
17.3353
17.2903
17.2442
17.1972
17.1491
17.0999
17.0496
16.9983
16.9458
16.8922
16.8374
16.7815
16.7243
16.666
16.6064
16.5455
16.4834
16.4199
16.3552
16.2891
16.2216
16.1528
16.0825
16.0108
15.9377
15.863
15.7869
15.7092
15.63
15.5492
15.4668
15.3828
15.2972
15.2098
15.1208
15.03
14.9375
14.8432
18.5393
18.5304
18.522
18.5118
18.5007
18.4886
18.4757
18.462
18.4476
18.4325
18.4167
18.4002
18.3831
18.3653
18.3469
18.3278
18.3081
18.2877
18.2666
18.2449
18.2226
18.1996
18.1759
18.1515
18.1264
18.1007
18.0742
18.047
18.0191
17.9905
17.9611
17.9309
17.9
17.8683
17.8358
17.8026
17.7685
17.7335
17.6977
17.6611
17.6236
17.5852
17.5459
17.5057
17.4646
17.4225
17.3794
17.3354
17.2904
17.2444
17.1973
17.1492
17.1
17.0498
16.9984
16.9459
16.8923
16.8375
16.7816
16.7244
16.6661
16.6065
16.5456
16.4835
16.4201
16.3553
16.2892
16.2217
16.1529
16.0826
16.0109
15.9378
15.8631
15.787
15.7093
15.6301
15.5493
15.4669
15.3829
15.2973
15.2099
15.1209
15.0301
14.9376
14.8433
18.5394
18.5306
18.5221
18.512
18.5008
18.4888
18.4759
18.4622
18.4478
18.4327
18.4169
18.4004
18.3833
18.3655
18.347
18.3279
18.3082
18.2878
18.2668
18.2451
18.2227
18.1997
18.176
18.1516
18.1266
18.1008
18.0743
18.0472
18.0193
17.9906
17.9612
17.9311
17.9002
17.8685
17.836
17.8027
17.7686
17.7337
17.6979
17.6613
17.6237
17.5854
17.5461
17.5059
17.4647
17.4226
17.3796
17.3356
17.2905
17.2445
17.1974
17.1493
17.1002
17.0499
16.9985
16.9461
16.8924
16.8377
16.7817
16.7246
16.6662
16.6066
16.5458
16.4836
16.4202
16.3554
16.2893
16.2219
16.153
16.0827
16.011
15.9379
15.8632
15.7871
15.7094
15.6302
15.5494
15.467
15.383
15.2974
15.21
15.121
15.0302
14.9377
14.8434
18.5396
18.5307
18.5223
18.5122
18.501
18.4889
18.476
18.4624
18.4479
18.4328
18.417
18.4006
18.3834
18.3656
18.3472
18.3281
18.3084
18.288
18.267
18.2453
18.2229
18.1999
18.1762
18.1518
18.1267
18.101
18.0745
18.0473
18.0194
17.9908
17.9614
17.9312
17.9003
17.8686
17.8361
17.8029
17.7688
17.7338
17.698
17.6614
17.6239
17.5855
17.5462
17.506
17.4649
17.4228
17.3797
17.3357
17.2907
17.2446
17.1976
17.1495
17.1003
17.05
16.9987
16.9462
16.8926
16.8378
16.7819
16.7247
16.6663
16.6067
16.5459
16.4837
16.4203
16.3556
16.2894
16.222
16.1531
16.0829
16.0112
15.938
15.8634
15.7872
15.7096
15.6304
15.5496
15.4672
15.3832
15.2975
15.2101
15.1211
15.0303
14.9378
18.5398
18.5309
18.5225
18.5124
18.5012
18.4891
18.4762
18.4625
18.4481
18.433
18.4172
18.4007
18.3836
18.3658
18.3474
18.3283
18.3086
18.2882
18.2671
18.2454
18.2231
18.2001
18.1764
18.152
18.1269
18.1011
18.0747
18.0475
18.0196
17.9909
17.9615
17.9314
17.9005
17.8688
17.8363
17.803
17.7689
17.734
17.6982
17.6616
17.6241
17.5857
17.5464
17.5062
17.465
17.4229
17.3799
17.3359
17.2908
17.2448
17.1977
17.1496
17.1004
17.0502
16.9988
16.9464
16.8927
16.838
16.782
16.7249
16.6665
16.6069
16.546
16.4839
16.4205
16.3557
16.2896
16.2221
16.1533
16.083
16.0113
15.9381
15.8635
15.7874
15.7097
15.6305
15.5497
15.4673
15.3833
15.2976
15.2103
15.1212
15.0304
14.9379
18.5399
18.5311
18.5227
18.5125
18.5014
18.4893
18.4764
18.4627
18.4483
18.4332
18.4174
18.4009
18.3838
18.366
18.3476
18.3285
18.3087
18.2884
18.2673
18.2456
18.2233
18.2002
18.1765
18.1522
18.1271
18.1013
18.0749
18.0477
18.0198
17.9911
17.9617
17.9316
17.9007
17.869
17.8365
17.8032
17.7691
17.7342
17.6984
17.6617
17.6242
17.5858
17.5465
17.5063
17.4652
17.4231
17.3801
17.336
17.291
17.245
17.1979
17.1498
17.1006
17.0504
16.999
16.9465
16.8929
16.8381
16.7822
16.725
16.6667
16.6071
16.5462
16.4841
16.4206
16.3559
16.2897
16.2223
16.1534
16.0832
16.0115
15.9383
15.8637
15.7875
15.7099
15.6306
15.5498
15.4675
15.3834
15.2978
15.2104
15.1214
15.0306
14.9381
18.5402
18.5314
18.5229
18.5127
18.5016
18.4895
18.4766
18.4629
18.4485
18.4334
18.4176
18.4011
18.384
18.3662
18.3478
18.3287
18.3089
18.2886
18.2675
18.2458
18.2235
18.2004
18.1767
18.1524
18.1273
18.1015
18.0751
18.0479
18.02
17.9913
17.9619
17.9318
17.9009
17.8692
17.8367
17.8034
17.7693
17.7343
17.6986
17.6619
17.6244
17.586
17.5467
17.5065
17.4654
17.4233
17.3802
17.3362
17.2912
17.2451
17.1981
17.15
17.1008
17.0505
16.9992
16.9467
16.8931
16.8383
16.7823
16.7252
16.6668
16.6072
16.5464
16.4842
16.4208
16.356
16.2899
16.2224
16.1536
16.0833
16.0116
15.9385
15.8638
15.7877
15.71
15.6308
15.55
15.4676
15.3836
15.2979
15.2106
15.1215
15.0307
14.9382
18.5404
18.5316
18.5231
18.513
18.5018
18.4897
18.4768
18.4631
18.4487
18.4336
18.4178
18.4013
18.3842
18.3664
18.348
18.3289
18.3092
18.2888
18.2677
18.246
18.2237
18.2006
18.1769
18.1526
18.1275
18.1017
18.0753
18.0481
18.0202
17.9915
17.9621
17.932
17.9011
17.8694
17.8369
17.8036
17.7695
17.7345
17.6988
17.6621
17.6246
17.5862
17.5469
17.5067
17.4656
17.4235
17.3804
17.3364
17.2914
17.2453
17.1983
17.1502
17.101
17.0507
16.9994
16.9469
16.8933
16.8385
16.7825
16.7254
16.667
16.6074
16.5465
16.4844
16.421
16.3562
16.2901
16.2226
16.1538
16.0835
16.0118
15.9386
15.864
15.7879
15.7102
15.631
15.5502
15.4678
15.3838
15.2981
15.2107
15.1217
15.0309
14.9384
18.5406
18.5318
18.5233
18.5132
18.502
18.4899
18.477
18.4634
18.449
18.4338
18.418
18.4016
18.3844
18.3666
18.3482
18.3291
18.3094
18.289
18.2679
18.2462
18.2239
18.2009
18.1772
18.1528
18.1277
18.1019
18.0755
18.0483
18.0204
17.9917
17.9623
17.9322
17.9013
17.8696
17.8371
17.8038
17.7697
17.7348
17.699
17.6623
17.6248
17.5864
17.5471
17.5069
17.4658
17.4237
17.3806
17.3366
17.2916
17.2455
17.1985
17.1504
17.1012
17.0509
16.9996
16.9471
16.8935
16.8387
16.7827
16.7256
16.6672
16.6076
16.5467
16.4846
16.4212
16.3564
16.2903
16.2228
16.154
16.0837
16.012
15.9388
15.8642
15.788
15.7104
15.6312
15.5504
15.468
15.3839
15.2983
15.2109
15.1219
15.0311
14.9386
18.5408
18.5321
18.5235
18.5134
18.5023
18.4902
18.4773
18.4636
18.4492
18.4341
18.4183
18.4018
18.3847
18.3669
18.3484
18.3293
18.3096
18.2892
18.2682
18.2465
18.2241
18.2011
18.1774
18.153
18.1279
18.1022
18.0757
18.0485
18.0206
17.992
17.9626
17.9324
17.9015
17.8698
17.8373
17.804
17.7699
17.735
17.6992
17.6626
17.6251
17.5867
17.5474
17.5071
17.466
17.4239
17.3809
17.3368
17.2918
17.2458
17.1987
17.1506
17.1014
17.0511
16.9998
16.9473
16.8937
16.8389
16.7829
16.7258
16.6674
16.6078
16.5469
16.4848
16.4214
16.3566
16.2905
16.223
16.1542
16.0839
16.0122
15.939
15.8644
15.7882
15.7106
15.6314
15.5506
15.4682
15.3841
15.2985
15.2111
15.1221
15.0313
14.9387
18.5411
18.5323
18.5238
18.5137
18.5025
18.4904
18.4775
18.4639
18.4494
18.4343
18.4185
18.402
18.3849
18.3671
18.3487
18.3296
18.3099
18.2895
18.2684
18.2467
18.2244
18.2013
18.1776
18.1533
18.1282
18.1024
18.0759
18.0488
18.0208
17.9922
17.9628
17.9327
17.9017
17.87
17.8376
17.8043