/*--------------------------------*- C++ -*----------------------------------*\
  =========                 |
  \\      /  F ield         | OpenFOAM: The Open Source CFD Toolbox
   \\    /   O peration     | Website:  https://openfoam.org
    \\  /    A nd           | Version:  10
     \\/     M anipulation  |
\*---------------------------------------------------------------------------*/
FoamFile
{
    format      ascii;
    class       volVectorField;
    location    "72000";
    object      Urel;
}
// * * * * * * * * * * * * * * * * * * * * * * * * * * * * * * * * * * * * * //

dimensions      [0 1 -1 0 0 0 0];

internalField   nonuniform List<vector> 
17981
(
(0.171608 -0.470643 8.70199e-22)
(0.167794 -0.48333 -8.74786e-22)
(0.164041 -0.495732 0)
(0.160346 -0.507884 -5.56319e-21)
(0.156711 -0.519822 1.22873e-20)
(0.153138 -0.531578 -6.67628e-21)
(0.149629 -0.543182 0)
(0.146187 -0.55466 5.80944e-22)
(0.142816 -0.566032 0)
(0.139517 -0.577319 0)
(0.136294 -0.588532 -7.15588e-22)
(0.13315 -0.599683 1.32131e-20)
(0.130087 -0.610777 -1.19751e-20)
(0.127108 -0.621819 0)
(0.124213 -0.632808 0)
(0.121404 -0.643744 0)
(0.118681 -0.654623 0)
(0.116047 -0.66544 -1.3531e-20)
(0.113499 -0.67619 1.29626e-20)
(0.111038 -0.686866 2.69024e-20)
(0.108664 -0.697462 -2.53686e-20)
(0.106375 -0.70797 -4.06528e-22)
(0.104169 -0.718382 0)
(0.102046 -0.728693 0)
(0.100004 -0.738896 2.55406e-20)
(0.0980409 -0.748983 -2.4125e-20)
(0.0961544 -0.758949 2.4772e-20)
(0.0943427 -0.768788 -2.37949e-20)
(0.0926036 -0.778495 -3.69842e-22)
(0.0909349 -0.788066 0)
(0.0893343 -0.797496 1.78396e-22)
(0.0877996 -0.806782 -1.75048e-22)
(0.0863284 -0.81592 -1.71667e-22)
(0.0849185 -0.824907 2.15496e-20)
(0.0835676 -0.833742 -2.07559e-20)
(0.0822735 -0.842422 -1.61443e-22)
(0.0810339 -0.850946 0)
(0.0798468 -0.859312 0)
(0.0787101 -0.867521 1.51296e-22)
(0.0776216 -0.875571 -1.91996e-20)
(0.0765794 -0.883462 -8.69183e-23)
(0.0755816 -0.891195 1.78369e-20)
(0.0746263 -0.89877 6.90875e-23)
(0.0737116 -0.906188 0)
(0.0728359 -0.91345 0)
(0.0719974 -0.920556 0)
(0.0711945 -0.927509 0)
(0.0704256 -0.934309 -1.59375e-20)
(0.195635 -0.45108 -5.24389e-21)
(0.191603 -0.463435 0)
(0.187634 -0.475508 -1.53852e-20)
(0.183731 -0.487337 3.79743e-20)
(0.179897 -0.498963 -2.16414e-20)
(0.176134 -0.510421 3.27276e-20)
(0.172445 -0.521744 -3.17212e-20)
(0.168835 -0.532963 5.81113e-22)
(0.165306 -0.544102 1.29848e-21)
(0.161864 -0.555181 -4.71267e-20)
(0.158511 -0.566216 9.40691e-20)
(0.15525 -0.577219 -4.8292e-20)
(0.152084 -0.588195 0)
(0.149016 -0.599149 1.62896e-21)
(0.146046 -0.61008 -5.48269e-20)
(0.143176 -0.620986 5.25068e-20)
(0.140407 -0.631862 5.56696e-20)
(0.137738 -0.642702 -5.3295e-20)
(0.135169 -0.653499 8.50295e-22)
(0.132699 -0.664244 0)
(0.130327 -0.674929 -4.22969e-22)
(0.12805 -0.685545 5.49804e-20)
(0.125868 -0.696082 -5.14589e-20)
(0.123777 -0.706533 5.41506e-20)
(0.121776 -0.716888 -1.03765e-19)
(0.119862 -0.72714 5.00859e-20)
(0.118033 -0.737282 -5.10371e-20)
(0.116285 -0.747306 4.90174e-20)
(0.114615 -0.757206 3.81157e-22)
(0.113022 -0.766976 0)
(0.111503 -0.77661 1.83883e-22)
(0.110053 -0.786105 1.8038e-22)
(0.108672 -0.795456 -4.55296e-20)
(0.107355 -0.804659 4.41866e-20)
(0.1061 -0.813711 -5.09915e-22)
(0.104905 -0.82261 4.31119e-20)
(0.103767 -0.831353 -4.14019e-20)
(0.102684 -0.839939 0)
(0.101652 -0.848367 4.00657e-20)
(0.100671 -0.856635 -7.76867e-20)
(0.0997361 -0.864743 3.7518e-20)
(0.0988468 -0.872691 -3.74297e-20)
(0.0980006 -0.880479 -6.35727e-22)
(0.0971954 -0.888108 3.53327e-20)
(0.0964292 -0.895578 0)
(0.0957003 -0.902889 0)
(0.0950066 -0.910044 1.29962e-22)
(0.0943466 -0.917043 -6.42514e-23)
(0.217924 -0.429297 0)
(0.213613 -0.441321 8.50393e-21)
(0.209374 -0.453066 -9.09773e-21)
(0.205208 -0.464576 2.20681e-20)
(0.201121 -0.475893 -2.29634e-20)
(0.197115 -0.487059 -1.84854e-21)
(0.193197 -0.498112 0)
(0.18937 -0.509085 -1.24064e-21)
(0.18564 -0.520005 -4.00938e-21)
(0.182012 -0.530897 0)
(0.178489 -0.541777 1.53001e-21)
(0.175076 -0.552657 3.15378e-21)
(0.171775 -0.563544 0)
(0.168589 -0.574442 -1.44625e-23)
(0.165519 -0.585348 1.70465e-21)
(0.162565 -0.59626 0)
(0.159729 -0.607171 1.14477e-19)
(0.15701 -0.618072 -1.07769e-19)
(0.154405 -0.628955 -1.15348e-19)
(0.151914 -0.639809 1.09548e-19)
(0.149534 -0.650623 -1.7341e-21)
(0.147264 -0.661387 0)
(0.145099 -0.672089 8.51012e-22)
(0.143038 -0.682719 -8.44876e-22)
(0.141076 -0.693267 8.3315e-22)
(0.139212 -0.703724 -1.05849e-19)
(0.13744 -0.714079 1.02392e-19)
(0.135759 -0.724325 -7.97362e-22)
(0.134163 -0.734454 0)
(0.132651 -0.744459 9.89622e-20)
(0.131217 -0.754333 2.35613e-21)
(0.12986 -0.764071 -9.49385e-20)
(0.128574 -0.773668 0)
(0.127358 -0.783119 0)
(0.126208 -0.79242 -9.07662e-20)
(0.125121 -0.801568 8.78305e-20)
(0.124094 -0.81056 -3.3623e-22)
(0.123123 -0.819394 0)
(0.122206 -0.828068 3.22161e-22)
(0.121341 -0.836582 -3.14751e-22)
(0.120524 -0.844932 -7.93647e-20)
(0.119754 -0.853121 7.66475e-20)
(0.119027 -0.861146 1.47121e-22)
(0.118341 -0.869009 -1.4429e-22)
(0.117695 -0.876709 -2.81505e-22)
(0.117085 -0.884247 0)
(0.116511 -0.891625 -1.34063e-22)
(0.11597 -0.898843 -6.83926e-20)
(0.220292 -0.450669 -1.40365e-21)
(0.215991 -0.461551 1.93454e-21)
(0.211791 -0.472343 7.69929e-20)
(0.2077 -0.483084 -1.59779e-19)
(0.203722 -0.493805 8.50815e-20)
(0.199866 -0.504532 -2.91466e-21)
(0.196135 -0.515284 1.01029e-19)
(0.192534 -0.526073 -1.03018e-19)
(0.189067 -0.536907 0)
(0.185737 -0.547786 -1.73041e-21)
(0.182543 -0.558708 1.13888e-19)
(0.179487 -0.569669 -1.10555e-19)
(0.176567 -0.580658 -1.13875e-19)
(0.173783 -0.591666 -8.95253e-21)
(0.171133 -0.602681 1.12491e-19)
(0.168614 -0.61369 -1.16953e-19)
(0.166222 -0.624679 1.1192e-19)
(0.163954 -0.635637 0)
(0.161807 -0.646549 1.12236e-19)
(0.159776 -0.657403 -2.21883e-19)
(0.157856 -0.668188 1.05438e-19)
(0.156045 -0.678891 1.08744e-19)
(0.154337 -0.689502 -1.03525e-19)
(0.152728 -0.700011 -8.19178e-22)
(0.151214 -0.710409 -1.04401e-19)
(0.14979 -0.720688 -6.18397e-22)
(0.148452 -0.73084 -3.61122e-21)
(0.147196 -0.740858 9.84452e-20)
(0.146018 -0.750736 9.6935e-20)
(0.144913 -0.760469 -1.88399e-19)
(0.143879 -0.770052 9.2294e-20)
(0.142911 -0.779482 -9.12266e-20)
(0.142006 -0.788754 8.83222e-20)
(0.14116 -0.797867 -8.74505e-20)
(0.14037 -0.806817 -2.18292e-21)
(0.139633 -0.815603 8.2618e-20)
(0.138947 -0.824224 9.53921e-22)
(0.138307 -0.832678 -7.97681e-20)
(0.137711 -0.840966 7.70721e-20)
(0.137158 -0.849087 2.96978e-22)
(0.136643 -0.857041 2.90265e-22)
(0.136166 -0.864829 7.27708e-20)
(0.135723 -0.872452 -7.06599e-20)
(0.135313 -0.879911 0)
(0.237284 -0.42336 -3.80484e-20)
(0.232627 -0.433964 -3.70711e-21)
(0.22809 -0.444509 0)
(0.223679 -0.455037 8.69806e-20)
(0.219406 -0.465584 -8.35423e-20)
(0.215277 -0.476178 5.99354e-21)
(0.211299 -0.486838 6.34814e-21)
(0.207476 -0.497577 0)
(0.203814 -0.508402 0)
(0.200314 -0.519311 -3.50509e-21)
(0.196976 -0.530301 0)
(0.193801 -0.541362 0)
(0.190787 -0.552484 -3.67433e-21)
(0.187931 -0.563653 1.8434e-21)
(0.185229 -0.574854 -1.20303e-19)
(0.182679 -0.586072 1.1503e-19)
(0.180275 -0.597291 -1.17224e-19)
(0.178013 -0.608495 1.1395e-19)
(0.175888 -0.61967 1.79442e-21)
(0.173894 -0.630799 0)
(0.172025 -0.64187 -1.14054e-19)
(0.170277 -0.652868 -4.78513e-21)
(0.168643 -0.663782 -4.5476e-21)
(0.167119 -0.6746 1.08106e-19)
(0.165698 -0.685311 -1.07266e-19)
(0.164377 -0.695906 -3.10298e-21)
(0.163148 -0.706377 1.03824e-19)
(0.162008 -0.716714 -1.02444e-19)
(0.160952 -0.726912 9.78923e-20)
(0.159975 -0.736965 0)
(0.159072 -0.746866 9.59021e-20)
(0.158239 -0.756611 -9.39273e-20)
(0.157472 -0.766197 0)
(0.156767 -0.775619 6.997e-22)
(0.15612 -0.784876 6.84216e-22)
(0.155528 -0.793964 6.70897e-22)
(0.154987 -0.802883 8.38607e-20)
(0.154494 -0.811631 -1.65297e-19)
(0.154046 -0.820208 8.08447e-20)
(0.15364 -0.828612 0)
(0.153273 -0.836845 0)
(0.152943 -0.844906 7.58117e-20)
(0.152646 -0.852796 -7.30608e-20)
(0.152382 -0.860516 0)
(0.251965 -0.393989 -3.96794e-20)
(0.246885 -0.404326 -6.38275e-20)
(0.241945 -0.414642 1.43797e-19)
(0.23716 -0.424984 -7.55297e-20)
(0.23254 -0.435392 -9.61399e-20)
(0.228094 -0.445894 8.89456e-20)
(0.223832 -0.456512 -3.25657e-21)
(0.219758 -0.467255 0)
(0.215876 -0.478129 -1.16295e-19)
(0.212188 -0.489129 2.33536e-19)
(0.208694 -0.500248 7.3433e-21)
(0.205391 -0.511475 -1.15328e-19)
(0.202277 -0.522793 -3.7285e-21)
(0.199348 -0.534187 -1.2312e-19)
(0.196598 -0.545638 1.17628e-19)
(0.194023 -0.557128 -1.22546e-19)
(0.191616 -0.568637 -4.60514e-21)
(0.18937 -0.580148 1.1658e-19)
(0.187278 -0.591642 -5.51542e-21)
(0.185335 -0.603103 0)
(0.183532 -0.614514 2.58658e-24)
(0.181863 -0.62586 1.77831e-21)
(0.180321 -0.637128 1.13673e-19)
(0.178899 -0.648303 2.74024e-21)
(0.177591 -0.659374 -2.17744e-19)
(0.176391 -0.670331 1.0426e-19)
(0.175292 -0.681163 -3.29163e-21)
(0.174288 -0.691862 0)
(0.173374 -0.70242 -2.05235e-19)
(0.172543 -0.71283 1.97781e-19)
(0.171792 -0.723086 0)
(0.171114 -0.733183 7.49828e-22)
(0.170506 -0.743116 1.89764e-19)
(0.169962 -0.752881 -1.83892e-19)
(0.169478 -0.762475 0)
(0.16905 -0.771896 -6.91151e-22)
(0.168675 -0.781142 6.77882e-22)
(0.168347 -0.790211 6.62335e-22)
(0.168065 -0.799103 -1.67705e-19)
(0.167825 -0.807816 1.61553e-19)
(0.167624 -0.816351 -6.2145e-22)
(0.167458 -0.824708 -1.56821e-19)
(0.167326 -0.832888 1.51173e-19)
(0.167224 -0.840891 0)
(0.258542 -0.372655 -3.62343e-21)
(0.253136 -0.382776 -4.39007e-21)
(0.247919 -0.392977 0)
(0.242906 -0.4033 -5.6184e-21)
(0.238107 -0.413773 -6.09425e-21)
(0.233531 -0.424415 0)
(0.229184 -0.435235 -1.14688e-19)
(0.225069 -0.446232 1.09356e-19)
(0.221186 -0.4574 0)
(0.217532 -0.468726 -2.46199e-19)
(0.214105 -0.480195 2.3857e-19)
(0.210899 -0.491786 3.82589e-21)
(0.207907 -0.50348 0)
(0.205123 -0.515253 0)
(0.202539 -0.527085 -3.82246e-21)
(0.200147 -0.538953 0)
(0.197937 -0.550836 2.47141e-19)
(0.195901 -0.562714 -4.81584e-19)
(0.194031 -0.574567 4.77043e-19)
(0.192318 -0.586377 -2.30561e-19)
(0.190753 -0.598126 0)
(0.189328 -0.6098 2.3134e-19)
(0.188034 -0.621384 -2.24024e-19)
(0.186865 -0.632865 0)
(0.185812 -0.64423 2.24235e-19)
(0.184868 -0.655469 -4.31288e-19)
(0.184026 -0.666572 2.09051e-19)
(0.18328 -0.677531 -2.11172e-19)
(0.182623 -0.688337 2.0197e-19)
(0.182048 -0.698985 -2.03432e-19)
(0.181551 -0.709469 1.96286e-19)
(0.181126 -0.719782 0)
(0.180768 -0.729923 1.90292e-19)
(0.180471 -0.739886 -1.85252e-19)
(0.180231 -0.749669 0)
(0.180044 -0.75927 -1.80958e-19)
(0.179906 -0.768687 1.74972e-19)
(0.179812 -0.777919 -6.71373e-22)
(0.17976 -0.786966 -1.69009e-19)
(0.179746 -0.795827 3.28873e-19)
(0.179766 -0.804503 -1.59392e-19)
(0.179818 -0.812994 1.5874e-19)
(0.179899 -0.8213 1.50716e-21)
(0.255681 -0.359095 -5.04587e-21)
(0.250243 -0.369411 1.67306e-22)
(0.245071 -0.379939 6.28746e-21)
(0.240171 -0.390696 0)
(0.235549 -0.401683 -2.39395e-19)
(0.231205 -0.412897 4.54413e-19)
(0.227137 -0.424324 1.72391e-20)
(0.22334 -0.435948 1.59065e-20)
(0.219808 -0.447747 -2.50058e-19)
(0.216532 -0.459697 -3.86472e-21)
(0.213505 -0.471773 0)
(0.210715 -0.483948 -2.56023e-19)
(0.208152 -0.496199 -6.8024e-21)
(0.205806 -0.508498 2.48159e-19)
(0.203665 -0.520823 0)
(0.201719 -0.53315 1.02257e-23)
(0.199956 -0.545457 3.80807e-21)
(0.198366 -0.557725 -3.77057e-21)
(0.196939 -0.569935 0)
(0.195666 -0.58207 2.37193e-19)
(0.194534 -0.594114 -2.29776e-19)
(0.193537 -0.606052 0)
(0.192665 -0.617872 1.76593e-21)
(0.191909 -0.629562 2.24921e-19)
(0.191262 -0.641112 -2.13291e-19)
(0.190716 -0.652511 0)
(0.190263 -0.663753 2.13518e-19)
(0.189896 -0.674829 -2.06021e-19)
(0.18961 -0.685734 1.59526e-21)
(0.189397 -0.696462 0)
(0.189253 -0.707009 1.53401e-21)
(0.189171 -0.71737 0)
(0.189147 -0.727544 -1.90221e-19)
(0.189175 -0.737527 3.7031e-19)
(0.189252 -0.747318 -3.62813e-19)
(0.189373 -0.756916 1.78004e-19)
(0.189534 -0.766319 0)
(0.189731 -0.775529 6.64643e-22)
(0.18996 -0.784544 -1.67576e-19)
(0.19022 -0.793366 3.25575e-19)
(0.190506 -0.801995 -1.61085e-19)
(0.254266 -0.33393 -1.91013e-19)
(0.248728 -0.344623 1.81195e-19)
(0.243522 -0.355603 0)
(0.238648 -0.366867 7.0749e-21)
(0.234104 -0.378404 1.10747e-22)
(0.229885 -0.390195 0)
(0.225983 -0.402216 0)
(0.222386 -0.414441 1.55944e-20)
(0.219084 -0.426841 3.95686e-21)
(0.216063 -0.439386 3.95369e-21)
(0.213312 -0.452046 0)
(0.210815 -0.464792 -2.60349e-19)
(0.20856 -0.477597 2.45072e-19)
(0.206532 -0.490433 2.5785e-19)
(0.20472 -0.503275 -2.43133e-19)
(0.203108 -0.516099 -3.90327e-21)
(0.201686 -0.528885 3.86636e-21)
(0.20044 -0.54161 0)
(0.199358 -0.554257 3.78043e-21)
(0.198432 -0.56681 2.41874e-19)
(0.197647 -0.579252 -2.32764e-19)
(0.196995 -0.591569 -2.38598e-19)
(0.196467 -0.60375 2.28172e-19)
(0.196052 -0.615784 -3.52094e-21)
(0.195742 -0.627659 0)
(0.19553 -0.639369 3.40734e-21)
(0.195407 -0.650906 2.17924e-19)
(0.195366 -0.662263 -2.10489e-19)
(0.195401 -0.673435 2.08486e-19)
(0.195504 -0.684416 -4.06089e-19)
(0.19567 -0.695203 1.978e-19)
(0.195893 -0.705793 -1.96802e-19)
(0.196168 -0.716183 1.90389e-19)
(0.19649 -0.726371 -7.33227e-22)
(0.196854 -0.736356 1.3666e-24)
(0.197255 -0.746137 7.05294e-22)
(0.197691 -0.755715 0)
(0.198157 -0.765089 -6.76425e-22)
(0.19865 -0.774259 0)
(0.199166 -0.783228 6.57466e-22)
(0.243399 -0.319479 0)
(0.238328 -0.331137 6.98716e-21)
(0.233643 -0.343109 7.41229e-21)
(0.229333 -0.35537 0)
(0.225385 -0.367889 -2.57161e-19)
(0.221785 -0.380635 2.37035e-19)
(0.218518 -0.393574 -7.96328e-21)
(0.215566 -0.406671 -4.04603e-21)
(0.212913 -0.419893 -2.65388e-19)
(0.210542 -0.433208 -1.15522e-20)
(0.208436 -0.446586 2.57887e-19)
(0.206579 -0.459997 0)
(0.204956 -0.473413 -2.61584e-19)
(0.20355 -0.486811 -8.5373e-21)
(0.202348 -0.500166 5.1021e-19)
(0.201335 -0.513456 -2.47043e-19)
(0.200497 -0.526663 -2.51507e-19)
(0.199823 -0.539769 4.86586e-19)
(0.199299 -0.552757 -2.42962e-19)
(0.198915 -0.565613 -1.86583e-21)
(0.198658 -0.578325 -1.84062e-21)
(0.198522 -0.590881 -2.30933e-19)
(0.198493 -0.60327 -4.50839e-21)
(0.198564 -0.615484 2.21135e-19)
(0.198725 -0.627514 -1.72847e-21)
(0.198969 -0.639353 0)
(0.199288 -0.650995 -1.67175e-21)
(0.199675 -0.662437 0)
(0.200124 -0.673673 0)
(0.200628 -0.684701 0)
(0.201182 -0.695518 1.55336e-21)
(0.20178 -0.706122 0)
(0.202418 -0.716513 -7.45689e-22)
(0.20309 -0.726689 1.3802e-24)
(0.203793 -0.73665 -7.17612e-22)
(0.204523 -0.746398 1.82155e-19)
(0.205275 -0.755932 -1.75179e-19)
(0.206047 -0.765253 1.75764e-19)
(0.221578 -0.333408 2.60098e-19)
(0.218058 -0.346764 -2.3981e-19)
(0.214906 -0.360323 8.1481e-21)
(0.212101 -0.374048 0)
(0.209623 -0.387903 -2.70006e-19)
(0.207451 -0.401852 2.58239e-19)
(0.205567 -0.415862 -2.12455e-23)
(0.203951 -0.429903 4.11135e-21)
(0.202584 -0.443946 0)
(0.201449 -0.457965 -4.07439e-21)
(0.200529 -0.471934 -4.0568e-21)
(0.199808 -0.485832 -2.60976e-19)
(0.199272 -0.499638 2.51111e-19)
(0.198906 -0.513335 3.93971e-21)
(0.198697 -0.526905 3.49299e-24)
(0.198631 -0.540332 2.5278e-19)
(0.198696 -0.553604 -2.4013e-19)
(0.198881 -0.566707 -1.87092e-21)
(0.199176 -0.579633 -1.84418e-21)
(0.199571 -0.592371 0)
(0.200056 -0.604914 2.30948e-19)
(0.200624 -0.617254 -2.23294e-19)
(0.201265 -0.629387 2.23293e-19)
(0.201972 -0.641307 -2.17748e-19)
(0.202739 -0.65301 -2.1552e-19)
(0.203558 -0.664493 2.10294e-19)
(0.204424 -0.675753 -1.61053e-21)
(0.20533 -0.686789 -2.02195e-19)
(0.206272 -0.6976 1.9588e-19)
(0.207245 -0.708184 -1.95211e-19)
(0.208244 -0.718543 1.91442e-19)
(0.209264 -0.728676 1.87506e-19)
(0.210303 -0.738584 -1.83232e-19)
(0.211356 -0.748269 -7.11453e-22)
(0.214661 -0.299239 0)
(0.211316 -0.31328 -9.83185e-23)
(0.20837 -0.32753 2.7093e-19)
(0.205799 -0.341946 -2.66972e-19)
(0.203579 -0.35649 0)
(0.201687 -0.371125 -8.38161e-21)
(0.200099 -0.385817 4.17571e-21)
(0.198795 -0.400532 2.74745e-19)
(0.197753 -0.415241 9.96032e-21)
(0.196954 -0.429916 -2.58698e-19)
(0.19638 -0.444533 -2.6609e-19)
(0.196012 -0.459067 2.60015e-19)
(0.195835 -0.473499 2.65524e-19)
(0.195831 -0.487809 -2.51797e-19)
(0.195988 -0.501981 2.63863e-19)
(0.19629 -0.515998 -2.54656e-19)
(0.196726 -0.529848 -3.91508e-21)
(0.197282 -0.543518 2.50066e-19)
(0.197948 -0.556999 -4.82464e-19)
(0.198713 -0.57028 -6.48271e-21)
(0.199566 -0.583354 2.34951e-19)
(0.2005 -0.596213 -2.35501e-19)
(0.201504 -0.608852 2.29714e-19)
(0.202571 -0.621265 -2.26071e-19)
(0.203693 -0.633448 4.44589e-19)
(0.204864 -0.645399 -2.16933e-19)
(0.206077 -0.657114 0)
(0.207326 -0.668593 -1.64577e-21)
(0.208605 -0.679834 1.61557e-21)
(0.209909 -0.690837 -3.17314e-21)
(0.211234 -0.701601 -2.01131e-19)
(0.212575 -0.712128 1.9585e-19)
(0.213928 -0.722419 1.4964e-21)
(0.21529 -0.732475 0)
(0.204868 -0.265833 -2.46053e-19)
(0.201803 -0.280617 2.6249e-19)
(0.199163 -0.295606 -5.41376e-19)
(0.196921 -0.310758 2.70984e-19)
(0.195049 -0.326031 -8.48253e-21)
(0.193521 -0.341387 -2.72206e-19)
(0.19231 -0.35679 2.6055e-19)
(0.191394 -0.372207 2.7674e-19)
(0.19075 -0.387607 -2.74234e-19)
(0.190356 -0.402963 2.74883e-19)
(0.190193 -0.418249 -2.72869e-19)
(0.19024 -0.433441 0)
(0.190481 -0.448518 -4.206e-21)
(0.190898 -0.463462 2.66742e-19)
(0.191477 -0.478254 -5.2961e-19)
(0.192201 -0.492879 2.58943e-19)
(0.193057 -0.507324 3.60216e-24)
(0.194033 -0.521576 0)
(0.195116 -0.535625 -7.9033e-21)
(0.196295 -0.549461 2.53941e-19)
(0.197559 -0.563076 -4.92246e-19)
(0.198899 -0.576462 2.4046e-19)
(0.200305 -0.589615 0)
(0.201769 -0.602528 0)
(0.203283 -0.615199 -2.33225e-19)
(0.20484 -0.627624 4.53589e-19)
(0.206432 -0.639801 -2.22315e-19)
(0.208055 -0.651727 2.21407e-19)
(0.209701 -0.663403 -2.14739e-19)
(0.211366 -0.674828 -2.11301e-24)
(0.213045 -0.686003 -2.09456e-19)
(0.214733 -0.696927 2.01653e-19)
(0.216426 -0.707603 -7.82404e-22)
(0.218121 -0.718032 -2.00404e-19)
(0.192526 -0.233646 7.98849e-21)
(0.189853 -0.249205 0)
(0.187624 -0.264961 8.49446e-21)
(0.185807 -0.280871 0)
(0.184374 -0.296892 2.9365e-19)
(0.183294 -0.312985 -2.8176e-19)
(0.182541 -0.329113 0)
(0.182089 -0.345244 8.78592e-21)
(0.181914 -0.361346 2.92017e-19)
(0.181992 -0.377391 -2.723e-19)
(0.182303 -0.393353 -4.38023e-21)
(0.182825 -0.409209 4.3616e-21)
(0.183542 -0.424937 2.86422e-19)
(0.184434 -0.440518 -5.52072e-19)
(0.185485 -0.455935 2.70247e-19)
(0.18668 -0.471171 2.83114e-19)
(0.188003 -0.486214 -2.61311e-19)
(0.189443 -0.501051 -2.68611e-19)
(0.190985 -0.515671 5.33487e-19)
(0.192618 -0.530064 -2.56879e-19)
(0.194331 -0.544223 0)
(0.196114 -0.55814 0)
(0.197957 -0.571809 0)
(0.199851 -0.585226 0)
(0.201789 -0.598386 1.88803e-21)
(0.203763 -0.611287 0)
(0.205765 -0.623926 -1.82854e-21)
(0.207789 -0.636302 2.33404e-19)
(0.20983 -0.648414 -2.24753e-19)
(0.211882 -0.660262 -1.71087e-24)
(0.21394 -0.671847 -2.19505e-19)
(0.215999 -0.683169 2.13103e-19)
(0.218056 -0.69423 1.64383e-21)
(0.220106 -0.705031 0)
(0.175881 -0.219409 2.58153e-19)
(0.174161 -0.235936 -2.83097e-19)
(0.172861 -0.252604 5.58276e-19)
(0.171951 -0.269372 -2.66544e-19)
(0.171399 -0.286198 8.97221e-21)
(0.171177 -0.303049 0)
(0.171257 -0.319888 -5.956e-23)
(0.171614 -0.336687 -9.03214e-21)
(0.172225 -0.353415 2.95257e-19)
(0.173067 -0.370048 -2.75534e-19)
(0.174119 -0.386562 -1.68798e-23)
(0.175361 -0.402935 4.48212e-21)
(0.176776 -0.419149 0)
(0.178346 -0.435186 2.87485e-19)
(0.180055 -0.45103 -2.82419e-19)
(0.181887 -0.466666 2.82285e-19)
(0.183829 -0.482084 -5.52614e-19)
(0.185868 -0.497271 2.66264e-19)
(0.187992 -0.512218 4.22156e-21)
(0.190188 -0.526917 0)
(0.192447 -0.541361 0)
(0.194759 -0.555543 -2.62373e-19)
(0.197115 -0.56946 2.545e-19)
(0.199505 -0.583107 -1.97521e-21)
(0.201923 -0.596481 0)
(0.204362 -0.609579 1.91528e-21)
(0.206814 -0.622402 -1.88461e-21)
(0.209274 -0.634947 0)
(0.211736 -0.647215 2.34748e-19)
(0.214195 -0.659206 -4.56828e-19)
(0.216647 -0.670922 2.24014e-19)
(0.219087 -0.682364 2.20626e-19)
(0.221512 -0.693535 -2.17418e-19)
(0.160368 -0.19152 2.72995e-19)
(0.159244 -0.208795 -2.69105e-19)
(0.158542 -0.2262 8.82978e-21)
(0.158229 -0.243691 2.96939e-19)
(0.158273 -0.26123 -2.76066e-19)
(0.158644 -0.27878 -9.19067e-21)
(0.159315 -0.296308 2.94364e-19)
(0.160261 -0.313782 2.13268e-20)
(0.161455 -0.331175 -2.93471e-19)
(0.162876 -0.348461 -1.40069e-20)
(0.164503 -0.365616 -9.33108e-21)
(0.166314 -0.38262 -3.069e-19)
(0.168292 -0.399452 5.92856e-19)
(0.170418 -0.416094 -5.89562e-19)
(0.172677 -0.432532 2.84561e-19)
(0.175053 -0.448751 -2.94014e-19)
(0.177531 -0.464738 2.84836e-19)
(0.180098 -0.480482 4.45477e-21)
(0.182741 -0.495973 -2.85222e-19)
(0.18545 -0.511203 2.76616e-19)
(0.188212 -0.526166 4.31031e-21)
(0.191019 -0.540854 0)
(0.19386 -0.555263 0)
(0.196727 -0.569389 -2.67358e-19)
(0.199613 -0.583229 2.59611e-19)
(0.202509 -0.59678 2.5746e-19)
(0.20541 -0.610042 -2.52036e-19)
(0.208309 -0.623014 0)
(0.2112 -0.635696 3.83829e-21)
(0.214079 -0.648088 -2.42964e-19)
(0.21694 -0.660192 2.37959e-19)
(0.219781 -0.672009 2.34492e-19)
(0.222596 -0.683542 -2.33017e-19)
(0.143827 -0.165728 2.73147e-19)
(0.14337 -0.18371 0)
(0.143329 -0.201809 -9.12545e-21)
(0.143671 -0.219985 -1.04431e-22)
(0.144365 -0.238197 -9.42476e-21)
(0.14538 -0.256411 3.20401e-19)
(0.146688 -0.274592 -6.1237e-19)
(0.148264 -0.292711 3.11304e-19)
(0.150082 -0.310738 0)
(0.152119 -0.328649 3.15262e-19)
(0.154354 -0.34642 -2.90127e-19)
(0.156767 -0.364029 0)
(0.159339 -0.381456 3.17635e-19)
(0.162052 -0.398684 -6.14116e-19)
(0.164888 -0.415697 6.15565e-19)
(0.167833 -0.43248 7.29985e-21)
(0.170872 -0.449019 -6.02261e-19)
(0.173991 -0.465305 2.95383e-19)
(0.177178 -0.481326 -7.11924e-24)
(0.18042 -0.497075 2.95637e-19)
(0.183706 -0.512543 -2.96062e-19)
(0.187027 -0.527725 0)
(0.190373 -0.542616 0)
(0.193735 -0.557211 -2.83494e-19)
(0.197106 -0.571507 -4.08401e-21)
(0.200477 -0.585502 2.71697e-19)
(0.203842 -0.599194 0)
(0.207195 -0.612584 0)
(0.21053 -0.625671 -2.02594e-21)
(0.213842 -0.638455 -1.99313e-21)
(0.217126 -0.650938 -3.92022e-21)
(0.220379 -0.663123 2.49876e-19)
(0.223596 -0.67501 -4.93573e-19)
(0.127032 -0.160752 2.78584e-19)
(0.127699 -0.179489 3.06355e-19)
(0.128738 -0.198295 -3.03905e-19)
(0.130119 -0.21713 -3.07251e-19)
(0.131812 -0.235959 2.95435e-19)
(0.133788 -0.254749 0)
(0.136022 -0.27347 -9.99494e-21)
(0.13849 -0.292094 3.26714e-19)
(0.141169 -0.310594 2.16733e-20)
(0.144036 -0.328947 -6.54421e-19)
(0.147073 -0.347131 3.12079e-19)
(0.150259 -0.365125 3.21358e-19)
(0.153576 -0.382912 -3.16307e-19)
(0.157009 -0.400475 0)
(0.160541 -0.4178 -3.21572e-19)
(0.164157 -0.434872 6.31338e-19)
(0.167844 -0.45168 -3.14842e-19)
(0.171589 -0.468213 -4.85968e-21)
(0.175379 -0.484464 0)
(0.179204 -0.500423 4.76616e-21)
(0.183053 -0.516085 0)
(0.186916 -0.531443 0)
(0.190785 -0.546495 -2.94511e-19)
(0.194652 -0.561235 2.90826e-19)
(0.198509 -0.575662 0)
(0.202349 -0.589775 0)
(0.206166 -0.603572 -2.17679e-21)
(0.209955 -0.617054 -2.78329e-19)
(0.213709 -0.630221 2.68591e-19)
(0.217425 -0.643074 3.52156e-25)
(0.221098 -0.655616 -2.64818e-19)
(0.224725 -0.667849 2.61308e-19)
(0.110693 -0.139904 3.06208e-19)
(0.112094 -0.159211 -2.84729e-19)
(0.113854 -0.178582 3.11531e-19)
(0.115943 -0.19798 -3.29253e-19)
(0.118331 -0.217369 -3.21235e-19)
(0.120992 -0.236716 3.09663e-19)
(0.1239 -0.255991 0)
(0.127032 -0.275165 0)
(0.130364 -0.294213 -3.41073e-19)
(0.133875 -0.31311 3.30275e-19)
(0.137545 -0.331834 1.57612e-20)
(0.141355 -0.350363 5.24602e-21)
(0.145288 -0.368679 5.23893e-21)
(0.149326 -0.386765 -3.39385e-19)
(0.153453 -0.404606 -8.25156e-21)
(0.157655 -0.422187 3.27974e-19)
(0.161917 -0.439496 3.33369e-19)
(0.166228 -0.456522 -3.23939e-19)
(0.170573 -0.473256 0)
(0.174943 -0.48969 0)
(0.179327 -0.505816 -3.21275e-19)
(0.183715 -0.521628 3.17278e-19)
(0.188098 -0.537122 3.13813e-19)
(0.192467 -0.552294 -6.17447e-19)
(0.196816 -0.567142 3.01375e-19)
(0.201137 -0.581663 -3.01506e-19)
(0.205423 -0.595857 5.92788e-19)
(0.20967 -0.609723 -2.86837e-19)
(0.213871 -0.623262 0)
(0.218023 -0.636475 2.85811e-19)
(0.22212 -0.649365 -5.54891e-19)
(0.226161 -0.661933 2.73169e-19)
(0.0947651 -0.121074 -2.91112e-19)
(0.0969083 -0.140875 -9.84601e-21)
(0.0993955 -0.160741 1.01103e-20)
(0.102197 -0.180635 3.38193e-19)
(0.105285 -0.200522 -3.15926e-19)
(0.108632 -0.220369 2.12501e-20)
(0.112216 -0.240145 -3.51593e-19)
(0.116012 -0.259822 -1.39971e-20)
(0.119998 -0.279372 3.32321e-19)
(0.124153 -0.298772 1.09519e-20)
(0.128457 -0.317996 -1.10442e-20)
(0.132891 -0.337025 -5.52792e-21)
(0.137438 -0.355839 -5.52532e-21)
(0.142081 -0.374418 -5.49429e-21)
(0.146804 -0.392748 0)
(0.151592 -0.410814 0)
(0.15643 -0.428602 -5.42527e-21)
(0.161306 -0.4461 0)
(0.166208 -0.463299 -3.51524e-19)
(0.171124 -0.480189 -1.16941e-20)
(0.176044 -0.496763 6.6815e-19)
(0.180956 -0.513014 -6.71829e-19)
(0.185853 -0.528937 3.27056e-19)
(0.190726 -0.544528 -5.08821e-21)
(0.195567 -0.559783 -2.5132e-21)
(0.200369 -0.574701 0)
(0.205126 -0.589281 3.15553e-19)
(0.209831 -0.603521 -6.18162e-19)
(0.21448 -0.617422 3.02734e-19)
(0.219067 -0.630986 0)
(0.223589 -0.644213 2.99119e-19)
(0.228043 -0.657108 -2.90763e-19)
(0.0796004 -0.104111 -3.23186e-19)
(0.0824775 -0.124325 6.35054e-19)
(0.085682 -0.144612 -3.21897e-19)
(0.0891857 -0.164934 1.07135e-20)
(0.092962 -0.185254 -3.68151e-19)
(0.0969859 -0.205541 -1.71806e-20)
(0.101234 -0.225763 7.29315e-19)
(0.105683 -0.245891 -3.66958e-19)
(0.110313 -0.265897 3.73326e-19)
(0.115101 -0.285755 -3.73692e-19)
(0.120029 -0.305442 0)
(0.125079 -0.324934 0)
(0.130232 -0.344211 -5.79036e-21)
(0.135471 -0.363254 3.81879e-19)
(0.140781 -0.382046 -3.655e-19)
(0.146147 -0.400571 -5.75433e-21)
(0.151555 -0.418815 -3.71328e-19)
(0.156991 -0.436764 3.61246e-19)
(0.162443 -0.454409 -3.55009e-19)
(0.1679 -0.471739 3.62161e-19)
(0.173349 -0.488745 3.65699e-19)
(0.178782 -0.50542 6.03153e-21)
(0.184189 -0.521759 -3.4719e-19)
(0.189561 -0.537756 5.41418e-21)
(0.194891 -0.553408 -3.4205e-19)
(0.20017 -0.568712 3.33042e-19)
(0.205393 -0.583666 -2.60483e-21)
(0.210554 -0.59827 0)
(0.215646 -0.612524 -3.26431e-19)
(0.220666 -0.626429 -3.66944e-21)
(0.22561 -0.639986 -5.91057e-21)
(0.230473 -0.653198 3.12615e-19)
(0.0654828 -0.0888217 3.4338e-19)
(0.0690706 -0.109369 -3.10964e-19)
(0.0729691 -0.130001 1.07041e-20)
(0.0771518 -0.150679 1.10127e-20)
(0.0815937 -0.171367 1.12777e-20)
(0.0862712 -0.192033 3.67283e-19)
(0.0911617 -0.212644 -7.63269e-19)
(0.0962436 -0.233171 3.84641e-19)
(0.101496 -0.253585 1.2057e-20)
(0.106898 -0.273859 0)
(0.112432 -0.293967 -4.08063e-19)
(0.118078 -0.313886 -1.22214e-20)
(0.12382 -0.333594 3.91847e-19)
(0.12964 -0.35307 0)
(0.135523 -0.372297 -3.96161e-19)
(0.141453 -0.391256 3.9158e-19)
(0.147417 -0.409933 1.21498e-20)
(0.153401 -0.428314 3.91141e-19)
(0.159391 -0.446386 1.79375e-21)
(0.165377 -0.464138 -3.72542e-19)
(0.171347 -0.481562 0)
(0.177291 -0.498648 -3.79246e-19)
(0.183199 -0.51539 -6.0842e-21)
(0.189062 -0.531782 3.71579e-19)
(0.194872 -0.54782 -3.61638e-19)
(0.200621 -0.5635 3.60672e-19)
(0.206303 -0.578821 2.78268e-21)
(0.211912 -0.59378 0)
(0.217442 -0.608379 0)
(0.222888 -0.622617 2.66572e-21)
(0.228246 -0.636495 2.62595e-21)
(0.233512 -0.650017 0)
(0.0526265 -0.0749911 3.55107e-19)
(0.0568895 -0.0957916 -3.22274e-19)
(0.0614471 -0.116693 3.59102e-19)
(0.0662746 -0.137656 -3.69962e-19)
(0.0713489 -0.158647 -1.21169e-22)
(0.0766475 -0.17963 0)
(0.0821493 -0.200575 0)
(0.0878334 -0.221449 4.08036e-19)
(0.0936796 -0.242223 -8.20645e-19)
(0.0996683 -0.262868 4.0017e-19)
(0.105781 -0.283358 1.2861e-20)
(0.111999 -0.303667 0)
(0.118306 -0.323772 -4.1978e-19)
(0.124684 -0.343652 -1.15111e-20)
(0.131118 -0.363286 8.28582e-19)
(0.137593 -0.382656 -4.15131e-19)
(0.144094 -0.401745 4.17422e-19)
(0.150607 -0.420537 -4.00251e-19)
(0.15712 -0.43902 0)
(0.16362 -0.45718 -1.27096e-20)
(0.170096 -0.475007 6.30258e-21)
(0.176537 -0.492491 4.04226e-19)
(0.182933 -0.509625 -3.8777e-19)
(0.189275 -0.526403 -6.15395e-21)
(0.195554 -0.542818 -1.21665e-20)
(0.201762 -0.558866 -3.87707e-19)
(0.207894 -0.574546 3.7784e-19)
(0.213941 -0.589854 3.77987e-19)
(0.219898 -0.60479 7.41041e-21)
(0.225761 -0.619355 -3.66119e-19)
(0.231525 -0.633549 -3.6766e-19)
(0.237186 -0.647374 -3.80889e-21)
(0.0411774 -0.0623959 -2.00614e-19)
(0.0460705 -0.0833704 1.61634e-19)
(0.051243 -0.104466 1.93224e-19)
(0.0566725 -0.125646 -1.87161e-19)
(0.0623372 -0.146874 3.95524e-19)
(0.0682165 -0.168115 -3.95548e-19)
(0.0742904 -0.189337 0)
(0.080539 -0.210506 1.30809e-20)
(0.0869429 -0.231592 4.34215e-19)
(0.0934831 -0.252565 -4.22082e-19)
(0.100141 -0.273397 0)
(0.1069 -0.29406 1.35978e-20)
(0.113742 -0.31453 1.366e-20)
(0.12065 -0.334784 0)
(0.127609 -0.3548 0)
(0.134603 -0.374557 6.88467e-21)
(0.141618 -0.394038 -1.37199e-20)
(0.14864 -0.413224 4.35738e-19)
(0.155654 -0.432101 -4.24686e-19)
(0.162649 -0.450654 2.0323e-23)
(0.169613 -0.468873 -1.34709e-20)
(0.176534 -0.486745 0)
(0.183402 -0.504263 4.21383e-19)
(0.190208 -0.521417 -4.17342e-19)
(0.196942 -0.538202 6.51489e-21)
(0.203597 -0.554612 -3.21547e-21)
(0.210165 -0.570645 0)
(0.216638 -0.586296 -3.13972e-21)
(0.223013 -0.601566 -5.76118e-24)
(0.229281 -0.616453 -3.90847e-19)
(0.235441 -0.630958 3.83834e-19)
(0.241486 -0.645083 0)
(0.0312176 -0.0508203 -2.21254e-20)
(0.0366887 -0.0718919 1.94635e-19)
(0.0424253 -0.0931105 -2.00636e-19)
(0.0484069 -0.114438 2.21038e-19)
(0.0546137 -0.135838 -1.89177e-19)
(0.0610268 -0.157277 -2.1875e-19)
(0.0676274 -0.178719 2.12475e-19)
(0.0743967 -0.200132 -2.54057e-19)
(0.0813162 -0.221483 2.48268e-19)
(0.0883678 -0.242741 1.417e-20)
(0.0955335 -0.263875 1.43101e-20)
(0.102796 -0.284857 -2.89199e-20)
(0.110139 -0.30566 -1.45771e-20)
(0.117544 -0.32626 -4.73716e-19)
(0.124997 -0.346632 9.43467e-19)
(0.132482 -0.366754 -4.69833e-19)
(0.139983 -0.386607 -4.66254e-19)
(0.147487 -0.40617 -1.03754e-20)
(0.154979 -0.425427 4.53412e-19)
(0.162447 -0.444362 7.25358e-21)
(0.169878 -0.462961 7.21269e-21)
(0.17726 -0.481213 0)
(0.184583 -0.499106 -7.09092e-21)
(0.191836 -0.516631 0)
(0.199009 -0.533781 -6.96477e-21)
(0.206095 -0.550549 4.55189e-19)
(0.213085 -0.566931 -8.73498e-19)
(0.219972 -0.582923 4.28736e-19)
(0.22675 -0.598523 4.25334e-19)
(0.233414 -0.613731 -4.21112e-19)
(0.239957 -0.628545 3.23997e-21)
(0.246376 -0.642967 -3.23151e-21)
(0.0227733 -0.0400664 2.00931e-19)
(0.0287654 -0.0611601 0)
(0.0350102 -0.0824298 -2.11468e-19)