/*--------------------------------*- C++ -*----------------------------------*\
  =========                 |
  \\      /  F ield         | OpenFOAM: The Open Source CFD Toolbox
   \\    /   O peration     | Website:  https://openfoam.org
    \\  /    A nd           | Version:  10
     \\/     M anipulation  |
\*---------------------------------------------------------------------------*/
FoamFile
{
    format      ascii;
    class       volScalarField;
    location    "72000";
    object      yPlus;
}
// * * * * * * * * * * * * * * * * * * * * * * * * * * * * * * * * * * * * * //

dimensions      [0 0 0 0 0 0 0];

internalField   uniform 0;

boundaryField
{
    right
    {
        type            cyclic;
    }
    left
    {
        type            cyclic;
    }
    outerWall
    {
        type            calculated;
        value           nonuniform List<scalar> 0();
    }
    stirrerWall
    {
        type            calculated;
        value           nonuniform List<scalar> 
98
(
3.14706
2.95017
2.76067
2.58293
2.42146
2.27942
2.15826
2.05833
1.97955
1.92172
1.88566
1.90032
1.98163
2.09976
2.25801
2.46599
2.77009
3.32993
5.20723
12.3409
19.533
11.7826
11.6818
12.2875
12.8368
13.0816
13.1861
13.1664
13.06
12.8794
12.6768
12.4302
12.1629
11.9116
11.6801
11.5416
11.9525
12.0048
11.9788
11.9326
11.8873
11.8502
11.8236
11.8078
11.8018
11.8044
11.815
11.8322
11.8559
11.8869
11.9199
11.267
11.1239
11.1044
11.1189
11.1456
11.1774
12.0752
11.469
11.2969
21.4443
21.7126
21.9841
22.2575
22.5372
22.8221
23.113
23.4107
23.7153
24.0275
24.3479
24.6774
25.0159
25.3642
25.7244
26.0978
26.4837
26.8817
27.2958
27.7355
28.2041
28.6821
29.1707
29.661
30.215
30.8282
31.4954
32.2184
32.973
33.7163
34.5132
35.4271
36.5028
37.7654
39.1655
40.6126
42.2609
44.399
)
;
    }
    top
    {
        type            empty;
    }
    bottom
    {
        type            empty;
    }
    procBoundary0to1
    {
        type            processor;
        value           uniform 0;
    }
    procBoundary0to3
    {
        type            processor;
        value           uniform 0;
    }
}


// ************************************************************************* //
