/*--------------------------------*- C++ -*----------------------------------*\
  =========                 |
  \\      /  F ield         | OpenFOAM: The Open Source CFD Toolbox
   \\    /   O peration     | Website:  https://openfoam.org
    \\  /    A nd           | Version:  10
     \\/     M anipulation  |
\*---------------------------------------------------------------------------*/
FoamFile
{
    format      ascii;
    class       volScalarField;
    location    "3700";
    object      k;
}
// * * * * * * * * * * * * * * * * * * * * * * * * * * * * * * * * * * * * * //

dimensions      [0 2 -2 0 0 0 0];

internalField   nonuniform List<scalar> 
420
(
2.22045e-16
2.22045e-16
2.22045e-16
2.22045e-16
2.22045e-16
2.22045e-16
2.22045e-16
2.22045e-16
2.22045e-16
2.22045e-16
2.22045e-16
2.22045e-16
2.22045e-16
2.22045e-16
2.22045e-16
2.22045e-16
2.22045e-16
2.22045e-16
2.22045e-16
2.22045e-16
2.22045e-16
2.22045e-16
2.22045e-16
2.22045e-16
2.22045e-16
2.22045e-16
2.22045e-16
2.22045e-16
2.22045e-16
2.22045e-16
2.22045e-16
2.22045e-16
2.22045e-16
2.22045e-16
2.22045e-16
2.22045e-16
2.22045e-16
2.22045e-16
2.22045e-16
2.22045e-16
2.22045e-16
2.22045e-16
2.22045e-16
2.22045e-16
2.22045e-16
2.22045e-16
2.22045e-16
2.22045e-16
2.22045e-16
2.22045e-16
2.22045e-16
2.22045e-16
2.22045e-16
2.22045e-16
2.22045e-16
2.22045e-16
2.22045e-16
2.22045e-16
2.22045e-16
2.22045e-16
2.22045e-16
2.22045e-16
2.22045e-16
2.22045e-16
2.22045e-16
2.22045e-16
2.22045e-16
2.22045e-16
2.22045e-16
2.22045e-16
2.22045e-16
2.22045e-16
2.22045e-16
2.22045e-16
2.22045e-16
2.22045e-16
2.22045e-16
2.22045e-16
2.22045e-16
2.22045e-16
2.22045e-16
2.22045e-16
2.22045e-16
2.22045e-16
2.22045e-16
2.22045e-16
2.22045e-16
2.22045e-16
2.22045e-16
2.22045e-16
2.22045e-16
2.22045e-16
2.22045e-16
2.22045e-16
2.22045e-16
2.22045e-16
2.22045e-16
2.22045e-16
2.22045e-16
2.22045e-16
2.22045e-16
2.22045e-16
2.22045e-16
2.74462e-16
3.07428e-16
2.77978e-16
2.26805e-16
2.56115e-16
3.14739e-16
2.56883e-16
2.22045e-16
2.22045e-16
2.22045e-16
2.7402e-16
3.07407e-16
2.79431e-16
2.25743e-16
2.42898e-16
3.16848e-16
2.58986e-16
2.22045e-16
2.22045e-16
2.22045e-16
2.71779e-16
3.06444e-16
2.81227e-16
2.26432e-16
2.34782e-16
3.15259e-16
2.62012e-16
2.22045e-16
2.22045e-16
2.22045e-16
2.69728e-16
3.04931e-16
2.82449e-16
2.27381e-16
2.30125e-16
3.10966e-16
2.62449e-16
2.22045e-16
2.22045e-16
2.22045e-16
2.68008e-16
3.02514e-16
2.83071e-16
2.28207e-16
2.26965e-16
3.05946e-16
2.61434e-16
2.22045e-16
2.22045e-16
2.22045e-16
2.67087e-16
3.01646e-16
2.83773e-16
2.28666e-16
2.2375e-16
3.00235e-16
2.58664e-16
2.22045e-16
2.22045e-16
2.22045e-16
2.68713e-16
3.02064e-16
2.84733e-16
2.28864e-16
2.22045e-16
2.92671e-16
2.53819e-16
2.22045e-16
2.22045e-16
2.22045e-16
2.72689e-16
3.03438e-16
2.86168e-16
2.28932e-16
2.22045e-16
2.82662e-16
2.47379e-16
2.22045e-16
2.22045e-16
2.22045e-16
2.78924e-16
3.0581e-16
2.88133e-16
2.29011e-16
2.22045e-16
2.70871e-16
2.4058e-16
2.22045e-16
2.22045e-16
2.237e-16
2.85969e-16
3.08213e-16
2.89815e-16
2.29029e-16
2.22045e-16
2.60297e-16
2.36613e-16
2.22045e-16
2.22045e-16
2.44672e-16
2.85755e-16
3.04509e-16
2.86109e-16
2.26646e-16
2.22045e-16
2.53789e-16
2.35526e-16
2.22045e-16
2.22045e-16
2.48954e-16
2.80759e-16
3.00811e-16
2.84527e-16
2.25317e-16
2.22045e-16
2.46983e-16
2.32737e-16
2.22045e-16
2.22045e-16
2.54597e-16
2.81204e-16
3.03317e-16
2.88814e-16
2.26189e-16
2.22045e-16
2.37036e-16
2.26232e-16
2.22045e-16
2.4717e-16
2.6263e-16
2.85862e-16
3.10809e-16
2.95472e-16
2.28363e-16
2.22045e-16
2.24738e-16
2.22045e-16
2.414e-16
2.50408e-16
2.59179e-16
2.85657e-16
3.14374e-16
2.97922e-16
2.29674e-16
2.22045e-16
2.22045e-16
2.22045e-16
2.39967e-16
2.44156e-16
2.54312e-16
2.85376e-16
3.17904e-16
2.99984e-16
2.31564e-16
2.22045e-16
2.22045e-16
2.22045e-16
2.34785e-16
2.38488e-16
2.50499e-16
2.85437e-16
3.2126e-16
3.01406e-16
2.34e-16
2.22045e-16
2.22045e-16
2.22045e-16
2.30689e-16
2.3421e-16
2.47278e-16
2.84858e-16
3.23103e-16
3.0112e-16
2.36654e-16
2.22045e-16
2.22045e-16
2.22045e-16
2.27361e-16
2.30465e-16
2.43601e-16
2.83492e-16
3.22046e-16
2.98389e-16
2.39327e-16
2.22045e-16
2.22045e-16
2.22045e-16
2.2379e-16
2.25847e-16
2.38677e-16
2.80041e-16
3.18291e-16
2.93869e-16
2.41119e-16
2.27257e-16
2.32458e-16
2.22373e-16
2.22045e-16
2.22045e-16
2.31235e-16
2.73688e-16
3.11579e-16
2.87238e-16
2.40806e-16
2.38934e-16
2.59609e-16
2.33008e-16
2.22045e-16
2.22045e-16
2.24473e-16
2.69861e-16
3.11311e-16
2.88083e-16
2.42361e-16
2.45446e-16
3.04392e-16
2.38072e-16
2.22045e-16
2.22045e-16
2.22045e-16
2.32356e-16
2.30168e-16
2.27061e-16
2.25004e-16
2.23274e-16
2.22045e-16
2.22045e-16
2.22045e-16
2.22045e-16
2.22045e-16
2.22045e-16
2.22045e-16
2.22045e-16
2.22045e-16
2.22045e-16
2.22045e-16
2.22045e-16
2.22045e-16
2.22045e-16
2.22045e-16
2.22045e-16
2.22045e-16
2.22045e-16
2.22045e-16
2.22045e-16
2.22045e-16
2.22045e-16
2.22045e-16
2.22045e-16
2.22045e-16
2.22045e-16
2.22045e-16
2.22045e-16
2.22045e-16
2.22045e-16
2.22045e-16
2.22045e-16
2.22045e-16
2.22045e-16
2.22045e-16
2.22045e-16
2.22045e-16
2.22045e-16
2.22045e-16
2.22045e-16
2.22045e-16
2.22045e-16
2.22045e-16
2.22045e-16
2.22045e-16
2.22045e-16
2.22045e-16
2.22045e-16
2.22045e-16
2.22045e-16
2.22045e-16
2.22045e-16
2.22045e-16
2.22045e-16
2.22045e-16
2.22045e-16
2.22045e-16
2.22045e-16
2.22045e-16
2.22045e-16
2.22045e-16
2.22045e-16
2.22045e-16
2.22045e-16
2.22045e-16
2.22045e-16
2.22045e-16
2.22045e-16
2.22045e-16
2.22045e-16
2.22045e-16
2.22045e-16
2.22045e-16
2.22045e-16
2.22045e-16
2.22045e-16
2.22045e-16
2.22045e-16
2.22045e-16
2.22045e-16
2.22045e-16
2.22045e-16
2.22045e-16
2.22045e-16
2.22045e-16
2.22045e-16
2.22045e-16
2.22045e-16
2.22045e-16
2.22045e-16
2.22045e-16
2.22045e-16
)
;

boundaryField
{
    right
    {
        type            cyclic;
    }
    left
    {
        type            cyclic;
    }
    outerWall
    {
        type            kqRWallFunction;
        value           nonuniform List<scalar> 
22
(
2.56883e-16
2.58986e-16
2.62012e-16
2.62449e-16
2.61434e-16
2.58664e-16
2.53819e-16
2.47379e-16
2.4058e-16
2.36613e-16
2.35526e-16
2.32737e-16
2.26232e-16
2.22045e-16
2.22045e-16
2.22045e-16
2.22045e-16
2.22045e-16
2.22045e-16
2.22373e-16
2.33008e-16
2.38072e-16
)
;
    }
    stirrerWall
    {
        type            kqRWallFunction;
        value           uniform 2.22045e-16;
    }
    top
    {
        type            empty;
    }
    bottom
    {
        type            empty;
    }
}


// ************************************************************************* //
