/*--------------------------------*- C++ -*----------------------------------*\
  =========                 |
  \\      /  F ield         | OpenFOAM: The Open Source CFD Toolbox
   \\    /   O peration     | Website:  https://openfoam.org
    \\  /    A nd           | Version:  10
     \\/     M anipulation  |
\*---------------------------------------------------------------------------*/
FoamFile
{
    format      ascii;
    class       volScalarField;
    location    "3700";
    object      nut;
}
// * * * * * * * * * * * * * * * * * * * * * * * * * * * * * * * * * * * * * //

dimensions      [0 2 -1 0 0 0 0];

internalField   nonuniform List<scalar> 
420
(
1.04478e-20
4.64588e-20
1.24153e-19
2.40943e-19
3.83063e-19
5.32459e-19
6.65905e-19
7.48999e-19
7.37813e-19
6.39647e-19
1.04473e-20
4.94306e-20
1.27087e-19
2.39541e-19
3.76008e-19
5.20995e-19
6.4957e-19
7.22327e-19
6.94018e-19
5.80854e-19
1.04471e-20
5.43402e-20
1.38252e-19
2.51028e-19
3.82189e-19
5.19525e-19
6.38755e-19
6.953e-19
6.43716e-19
5.15262e-19
1.04472e-20
5.84223e-20
1.51643e-19
2.68376e-19
3.95306e-19
5.22861e-19
6.28054e-19
6.63007e-19
5.84614e-19
4.43527e-19
1.04476e-20
6.15357e-20
1.63373e-19
2.82349e-19
4.01472e-19
5.14418e-19
6.01039e-19
6.13632e-19
5.12705e-19
3.73456e-19
1.04483e-20
6.27602e-20
1.64431e-19
2.69985e-19
3.6646e-19
4.54996e-19
5.23307e-19
5.309e-19
4.36413e-19
3.06831e-19
1.04493e-20
6.01323e-20
1.36612e-19
2.021e-19
2.59774e-19
3.16788e-19
3.69477e-19
3.94007e-19
3.45843e-19
2.3802e-19
1.04506e-20
4.76572e-20
7.95915e-20
1.04213e-19
1.28798e-19
1.56046e-19
1.85527e-19
2.10423e-19
2.10043e-19
1.59387e-19
1.04522e-20
2.14745e-20
2.7922e-20
3.46314e-20
4.20547e-20
5.03746e-20
5.96e-20
6.91478e-20
7.65573e-20
7.26761e-20
2.82342e-21
3.6643e-21
4.61494e-21
5.67535e-21
6.84552e-21
8.12545e-21
9.51514e-21
1.10146e-20
1.26238e-20
1.43428e-20
5.26634e-19
4.63933e-19
4.9483e-19
7.9038e-19
1.13233e-18
1.10761e-18
7.34381e-19
3.1899e-19
1.70739e-19
6.72588e-20
4.67578e-19
4.15911e-19
4.60651e-19
7.69573e-19
1.12856e-18
1.12554e-18
7.73818e-19
3.54303e-19
1.73552e-19
6.77211e-20
4.06262e-19
3.67663e-19
4.26334e-19
7.44492e-19
1.11965e-18
1.13537e-18
7.97249e-19
3.69385e-19
1.6934e-19
6.65291e-20
3.45147e-19
3.18442e-19
3.91432e-19
7.20357e-19
1.10756e-18
1.13631e-18
8.0657e-19
3.69842e-19
1.63793e-19
6.58766e-20
2.84624e-19
2.69152e-19
3.5711e-19
6.98409e-19
1.09198e-18
1.13117e-18
8.05919e-19
3.6902e-19
1.59088e-19
6.5015e-20
2.24096e-19
2.21535e-19
3.24911e-19
6.79454e-19
1.08237e-18
1.1253e-18
7.99982e-19
3.6737e-19
1.53543e-19
6.39631e-20
1.64714e-19
1.77738e-19
2.94534e-19
6.71997e-19
1.08015e-18
1.12043e-18
7.91665e-19
3.68856e-19
1.4771e-19
6.30232e-20
1.09593e-19
1.38375e-19
2.69708e-19
6.8129e-19
1.08558e-18
1.11711e-18
7.81239e-19
3.76125e-19
1.42831e-19
6.25456e-20
6.30091e-20
1.04834e-19
2.55975e-19
7.16698e-19
1.10026e-18
1.11521e-18
7.68817e-19
3.8713e-19
1.41828e-19
6.33924e-20
2.86226e-20
7.99079e-20
2.69371e-19
7.50065e-19
8.52368e-19
8.2819e-19
7.53886e-19
4.20212e-19
1.49209e-19
6.44261e-20
1.03958e-20
7.46318e-20
3.91192e-19
7.06108e-19
8.06225e-19
7.96584e-19
7.3297e-19
4.23545e-19
1.44815e-19
6.26759e-20
1.03958e-20
9.62172e-20
4.74674e-19
8.98823e-19
1.1191e-18
1.09138e-18
7.24267e-19
4.18083e-19
1.33112e-19
5.96779e-20
5.45786e-20
2.13692e-19
6.02582e-19
9.07749e-19
1.11677e-18
1.09357e-18
7.17823e-19
3.81048e-19
1.29658e-19
5.93608e-20
2.61953e-19
5.34895e-19
6.2833e-19
7.93335e-19
9.81392e-19
9.72411e-19
7.03783e-19
3.97056e-19
1.30898e-19
6.19801e-20
5.3116e-19
5.60957e-19
6.14739e-19
7.67133e-19
9.5196e-19
9.35216e-19
6.86451e-19
3.78521e-19
1.39115e-19
6.19873e-20
6.12324e-19
5.8292e-19
6.14605e-19
7.59991e-19
9.40973e-19
9.14498e-19
6.69455e-19
3.57922e-19
1.51289e-19
6.19932e-20
6.39801e-19
5.84795e-19
6.04045e-19
7.43001e-19
9.18314e-19
8.88335e-19
6.52968e-19
3.36085e-19
1.61998e-19
6.19978e-20
6.36367e-19
5.74617e-19
5.94511e-19
7.40201e-19
9.25456e-19
8.46084e-19
6.37579e-19
3.14627e-19
1.49786e-19
6.20012e-20
6.26011e-19
5.90911e-19
6.50432e-19
8.21571e-19
1.0107e-18
7.89096e-19
6.23848e-19
2.95197e-19
1.37175e-19
6.20033e-20
6.464e-19
5.88936e-19
6.33307e-19
8.67604e-19
1.01465e-18
7.43021e-19
6.22588e-19
2.8726e-19
1.31163e-19
6.20958e-20
6.15564e-19
5.51127e-19
5.9119e-19
8.39654e-19
1.14785e-18
9.27207e-19
6.45226e-19
3.04181e-19
1.40855e-19
6.50649e-20
5.8205e-19
5.14197e-19
5.42178e-19
8.07056e-19
1.15228e-18
1.12488e-18
7.18211e-19
2.62229e-19
1.54958e-19
5.65957e-20
1.43428e-20
1.15722e-19
4.20147e-19
6.37831e-19
7.12244e-19
7.28677e-19
7.16703e-19
7.0662e-19
7.22547e-19
6.90786e-19
1.26238e-20
8.65719e-20
3.08984e-19
5.95e-19
7.49783e-19
7.98433e-19
7.90433e-19
7.7731e-19
7.86065e-19
7.72691e-19
1.10146e-20
6.61057e-20
2.19289e-19
4.47678e-19
6.33981e-19
7.3408e-19
7.70539e-19
7.79556e-19
7.76153e-19
7.67943e-19
9.51514e-21
5.1829e-20
1.45726e-19
2.91196e-19
4.49136e-19
5.73529e-19
6.45278e-19
6.74698e-19
6.79689e-19
6.76598e-19
8.12545e-21
4.38656e-20
1.12294e-19
2.06557e-19
3.12407e-19
4.11424e-19
4.8944e-19
5.34262e-19
5.47286e-19
5.437e-19
6.84552e-21
3.78774e-20
9.52834e-20
1.67504e-19
2.44765e-19
3.17344e-19
3.75112e-19
4.06702e-19
4.10342e-19
3.98244e-19
5.67535e-21
3.23208e-20
8.32456e-20
1.44157e-19
2.03086e-19
2.51383e-19
2.80525e-19
2.86867e-19
2.75523e-19
2.56637e-19
4.61494e-21
2.66237e-20
6.91544e-20
1.13863e-19
1.4632e-19
1.63727e-19
1.66589e-19
1.60649e-19
1.4913e-19
1.35113e-19
3.6643e-21
2.0659e-20
4.31307e-20
5.5183e-20
6.00128e-20
6.13948e-20
6.11967e-20
5.98052e-20
5.67878e-20
5.1753e-20
2.82342e-21
1.04522e-20
1.04506e-20
1.04493e-20
1.04483e-20
1.04476e-20
1.04472e-20
1.04471e-20
1.04473e-20
1.04478e-20
)
;

boundaryField
{
    right
    {
        type            cyclic;
    }
    left
    {
        type            cyclic;
    }
    outerWall
    {
        type            nutkWallFunction;
        Cmu             0.09;
        kappa           0.41;
        E               9.8;
        value           uniform 0;
    }
    stirrerWall
    {
        type            nutkWallFunction;
        Cmu             0.09;
        kappa           0.41;
        E               9.8;
        value           uniform 0;
    }
    top
    {
        type            empty;
    }
    bottom
    {
        type            empty;
    }
}


// ************************************************************************* //
