/*--------------------------------*- C++ -*----------------------------------*\
  =========                 |
  \\      /  F ield         | OpenFOAM: The Open Source CFD Toolbox
   \\    /   O peration     | Website:  https://openfoam.org
    \\  /    A nd           | Version:  10
     \\/     M anipulation  |
\*---------------------------------------------------------------------------*/
FoamFile
{
    format      ascii;
    class       volScalarField;
    location    "3700";
    object      omega;
}
// * * * * * * * * * * * * * * * * * * * * * * * * * * * * * * * * * * * * * //

dimensions      [0 0 -1 0 0 0 0];

internalField   nonuniform List<scalar> 
420
(
21252.7
4779.39
1788.48
921.563
579.655
417.017
333.448
296.455
300.95
347.136
21253.7
4492.04
1747.19
926.96
590.531
426.194
341.833
307.402
319.941
382.273
21254.2
4086.19
1606.09
884.543
580.981
427.399
347.621
319.351
344.942
430.935
21254
3800.68
1464.26
827.363
561.704
424.672
353.544
334.906
379.814
500.634
21253.2
3608.39
1359.13
786.419
553.077
431.642
369.435
361.853
433.084
594.568
21251.7
3537.98
1350.38
822.434
605.918
488.015
424.311
418.242
508.794
723.672
21249.7
3692.6
1625.37
1098.69
854.761
700.925
600.97
563.555
642.038
932.882
21247.1
4659.2
2789.8
2130.68
1723.98
1422.95
1196.83
1055.23
1057.14
1393.12
21243.8
10339.9
7952.33
6411.65
5279.91
4407.87
3725.58
3211.16
2900.37
3055.26
78643.9
60596.7
48114.3
39124.4
32436.5
27327.1
23335.9
20159.1
17589.3
15481.3
421.63
478.613
448.729
347.253
271.501
250.971
308.838
593.121
1435.66
3581.27
474.882
533.876
482.023
356.067
272.39
248.264
291.727
521.99
1304.67
3581.17
546.555
603.934
520.823
365.053
273.697
247.696
284.017
487.273
1257.64
3581.13
643.334
697.285
567.262
374.437
275.316
248.566
281.91
474.488
1248.52
3581.18
780.134
824.978
621.783
383.741
277.032
250.247
283.164
473.892
1233.15
3581.3
990.847
1002.3
683.402
393.091
278.69
252.176
285.839
475.211
1218.52
3581.49
1348.06
1249.28
753.884
399.872
279.65
254.129
289.092
478.623
1203.26
3581.76
2026.08
1604.66
823.278
400.254
279.517
256.168
293.037
484.421
1187.33
3582.1
3524.01
2118.07
867.446
389.18
277.944
258.366
297.874
493.07
1173.88
3582.51
7757.67
2778.76
830.454
360.876
274.66
260.528
303.798
505.514
1173.36
3582.99
21359.1
2975.2
625.453
319.516
269.156
260.24
309.217
524.253
1203.76
3575.63
21359.1
2307.74
524.472
312.363
268.797
260.703
311.096
531.102
1197.27
3575.63
4068.35
1039.09
422.51
309.781
271.602
264.101
315.105
538.599
1178.94
3582.99
847.651
447.099
347.223
307.047
274.82
268.757
324.479
559.227
1193.4
3582.51
387.14
349.478
337.307
308.617
275.941
271.564
334.581
586.611
1230.19
3582.1
324.7
340.634
341.314
311.429
276.713
274.141
345.9
620.371
1286.65
3581.76
319.353
346.399
348.429
314.53
277.31
276.641
358.365
660.68
1370.66
3581.49
325.015
356.175
356.592
317.475
277.594
278.779
371.176
705.739
1482.41
3581.3
334.417
368.412
365.86
320.184
277.182
280.085
383.631
752.191
1618.7
3581.18
346.209
383.484
376.874
322.775
275.228
277.264
387.285
791.119
1772.28
3581.13
360.717
402.892
391.135
325.954
271.446
268.265
373.211
785.498
1843.1
3581.17
381.487
431.828
414.02
334.377
270.17
256.101
337.451
710.954
1734.51
3581.27
15481.3
1918.78
528.493
327.336
293.986
289.782
292.849
298.84
307.308
321.437
17589.3
2564.86
718.627
373.184
296.145
276.89
273.867
275.759
280.054
287.365
20159.1
3358.93
1012.57
495.991
350.238
302.48
288.168
284.835
286.084
289.142
23335.9
4284.17
1523.71
762.527
494.382
387.155
344.107
329.102
326.686
328.178
27327.1
5061.94
1977.36
1074.98
710.755
539.698
453.67
415.61
405.72
408.396
32436.5
5862.19
2330.36
1325.61
907.175
699.697
591.943
545.963
541.121
557.559
39124.4
6870.03
2667.34
1540.29
1093.35
883.292
791.533
774.032
805.903
865.21
48114.3
8340.13
3210.85
1950.1
1517.53
1356.19
1332.89
1382.17
1488.93
1643.4
60596.7
10748.1
5148.18
4023.79
3699.96
3616.67
3628.37
3712.8
3910.08
4290.46
78643.9
21243.8
21247.1
21249.7
21251.7
21253.2
21254
21254.2
21253.7
21252.7
)
;

boundaryField
{
    right
    {
        type            cyclic;
    }
    left
    {
        type            cyclic;
    }
    outerWall
    {
        beta1           0.075;
        blended         0;
        type            omegaWallFunction;
        value           nonuniform List<scalar> 
22
(
3581.27
3581.17
3581.13
3581.18
3581.3
3581.49
3581.76
3582.1
3582.51
3582.99
3575.63
3575.63
3582.99
3582.51
3582.1
3581.76
3581.49
3581.3
3581.18
3581.13
3581.17
3581.27
)
;
    }
    stirrerWall
    {
        beta1           0.075;
        blended         0;
        type            omegaWallFunction;
        value           nonuniform List<scalar> 
42
(
21252.7
21253.7
21254.2
21254
21253.2
21251.7
21249.7
21247.1
21243.8
78643.9
78643.9
60596.7
48114.3
39124.4
32436.5
27327.1
23335.9
20159.1
17589.3
15481.3
21359.1
21359.1
15481.3
17589.3
20159.1
23335.9
27327.1
32436.5
39124.4
48114.3
60596.7
78643.9
78643.9
21243.8
21247.1
21249.7
21251.7
21253.2
21254
21254.2
21253.7
21252.7
)
;
    }
    top
    {
        type            empty;
    }
    bottom
    {
        type            empty;
    }
}


// ************************************************************************* //
