/*--------------------------------*- C++ -*----------------------------------*\
  =========                 |
  \\      /  F ield         | OpenFOAM: The Open Source CFD Toolbox
   \\    /   O peration     | Website:  https://openfoam.org
    \\  /    A nd           | Version:  10
     \\/     M anipulation  |
\*---------------------------------------------------------------------------*/
FoamFile
{
    format      ascii;
    class       volScalarField;
    location    "3700";
    object      p;
}
// * * * * * * * * * * * * * * * * * * * * * * * * * * * * * * * * * * * * * //

dimensions      [0 2 -2 0 0 0 0];

internalField   nonuniform List<scalar> 
420
(
-1.37574
12.333
28.4716
47.1977
67.7527
89.51
111.864
133.995
155.333
175.358
-3.52839
11.4113
27.5657
46.1601
66.5716
88.2409
110.574
132.749
154.109
174.175
-4.71729
10.5953
26.6437
45.0315
65.2286
86.7354
108.975
131.123
152.516
172.712
-5.28548
9.96446
25.7681
43.8355
63.7057
84.9275
106.985
129.104
150.631
171.096
-5.5433
9.52808
25.0047
42.6421
62.0601
82.8868
104.705
126.823
148.609
169.487
-5.64483
9.28659
24.4138
41.5523
60.4282
80.7805
102.307
124.468
146.631
168.049
-5.66535
9.23419
24.0416
40.6623
58.9582
78.7917
99.9854
122.188
144.797
166.903
-5.64673
9.35636
23.9083
40.0308
57.7587
77.0536
97.8499
119.974
142.973
165.869
-5.6631
9.64617
24.0033
39.6798
56.9067
75.68
95.9792
117.718
140.611
163.82
-5.78332
10.0468
24.1135
39.4385
56.3309
74.7453
94.6307
115.83
137.886
160.169
193.848
211.541
228.641
244.805
260.267
275.739
289.771
301.45
304.06
393.377
192.739
210.435
227.324
243.001
257.679
271.888
283.895
292.321
292.435
378.727
191.428
209.143
225.771
240.93
254.805
267.804
277.978
283.918
283.326
368.742
190.052
207.778
224.095
238.743
251.884
263.848
272.565
276.775
277.072
361.139
188.759
206.475
222.453
236.649
249.153
260.276
267.928
271.115
272.481
354.52
187.708
205.356
220.994
234.845
246.832
257.315
264.255
266.915
269.113
349.097
187.059
204.466
219.735
233.41
245.064
255.147
261.707
264.239
267.096
345.199
186.805
203.796
218.647
232.372
243.97
253.931
260.441
263.269
267.224
342.9
186.258
203.593
218.084
231.905
243.628
253.649
260.429
264.264
270.342
342.483
184.777
204.53
218.771
232.373
244.183
254.364
261.535
266.623
273.648
344.573
184.877
205.715
220.236
233.766
245.596
256.178
263.788
269.037
268.61
350.797
186.715
206.467
221.455
234.919
246.807
257.659
265.888
271.408
269.082
354.031
192.249
207.97
222.93
236.594
248.755
259.862
269.008
275.493
279.578
355.66
192.633
208.738
224.072
238.283
251.045
262.852
273.193
281.446
288.098
357.937
192.482
209.268
225.177
240.044
253.572
266.31
278.16
288.531
296.282
362.277
192.739
209.895
226.335
241.865
256.207
269.939
283.296
295.558
304.346
368.07
193.328
210.711
227.579
243.715
258.857
273.652
288.612
302.788
312.71
374.506
194.008
211.567
228.756
245.369
261.212
277.107
293.748
309.887
321.757
383.747
194.586
212.272
229.661
246.567
262.903
279.683
297.569
315.201
331.492
399.668
194.93
212.679
230.141
247.146
263.697
280.809
298.714
316.334
337.999
418.243
194.96
212.702
230.103
247.014
263.521
280.466
297.426
313.409
334.146
424.478
194.606
212.307
229.56
246.119
262.205
278.717
294.607
308.945
318.56
410.841
176.259
174.484
173.997
174.34
174.985
175.657
176.192
176.494
176.499
176.139
150.565
151.703
152.892
154.024
155.036
155.844
156.386
156.626
156.541
156.114
123.628
127.137
130.127
132.279
133.821
134.871
135.469
135.647
135.42
134.848
99.3666
103.197
106.981
109.826
111.822
113.109
113.779
113.913
113.573
112.853
77.9603
81.0816
84.5926
87.5256
89.6494
91.0224
91.71
91.799
91.3809
90.5728
58.9422
61.1285
63.8029
66.2545
68.141
69.385
70.0004
70.0413
69.5965
68.7917
42.0316
43.3531
45.0115
46.6645
48.0106
48.9052
49.3226
49.2843
48.8478
48.1213
27.0424
27.635
28.3449
29.0964
29.7448
30.1771
30.3352
30.2063
29.8171
29.2273
13.8918
13.785
13.7274
13.7555
13.8229
13.8534
13.7918
13.6142
13.3231
12.9111
1.77353
0.574466
-0.398553
-0.978907
-1.3309
-1.59365
-1.8403
-2.08434
-2.25384
-2.18178
)
;

boundaryField
{
    right
    {
        type            cyclic;
    }
    left
    {
        type            cyclic;
    }
    outerWall
    {
        type            zeroGradient;
    }
    stirrerWall
    {
        type            zeroGradient;
    }
    top
    {
        type            empty;
    }
    bottom
    {
        type            empty;
    }
}


// ************************************************************************* //
