/*--------------------------------*- C++ -*----------------------------------*\
  =========                 |
  \\      /  F ield         | OpenFOAM: The Open Source CFD Toolbox
   \\    /   O peration     | Website:  https://openfoam.org
    \\  /    A nd           | Version:  10
     \\/     M anipulation  |
\*---------------------------------------------------------------------------*/
FoamFile
{
    format      ascii;
    class       surfaceScalarField;
    location    "3700";
    object      phi;
}
// * * * * * * * * * * * * * * * * * * * * * * * * * * * * * * * * * * * * * //

dimensions      [0 3 -1 0 0 0 0];

internalField   nonuniform List<scalar> 
788
(
6.67057e-06
1.09271e-06
5.75784e-06
5.82127e-06
6.65762e-06
1.19081e-05
8.1085e-06
1.43822e-05
9.41548e-06
1.34254e-05
9.94501e-06
9.56312e-06
9.28872e-06
2.72498e-06
7.93625e-06
-6.09938e-06
6.23744e-06
-1.76627e-05
-3.11436e-05
4.00049e-06
4.26004e-06
-3.14372e-06
5.1398e-06
4.99434e-06
6.33765e-06
1.07853e-05
7.83701e-06
1.29498e-05
9.13221e-06
1.21522e-05
9.8859e-06
8.78785e-06
9.61302e-06
2.96531e-06
8.59659e-06
-5.05399e-06
6.58791e-06
-1.55198e-05
-2.79448e-05
3.60677e-06
2.17031e-06
-5.29598e-06
3.58127e-06
3.66681e-06
5.30819e-06
9.17391e-06
7.19043e-06
1.1147e-05
8.72502e-06
1.06387e-05
9.61819e-06
7.88056e-06
9.34325e-06
3.23321e-06
7.83785e-06
-3.49043e-06
4.84348e-06
-1.23702e-05
-2.40609e-05
1.20758e-06
1.10806e-06
-6.37455e-06
2.28927e-06
2.6102e-06
4.25032e-06
7.35604e-06
6.37537e-06
9.1088e-06
8.06213e-06
8.97778e-06
8.78727e-06
7.15251e-06
8.05659e-06
3.97171e-06
5.54489e-06
-9.24493e-07
1.49021e-06
-8.19587e-06
-2.0142e-05
-2.25195e-06
3.89274e-07
-6.71703e-06
1.18157e-06
1.97708e-06
3.0858e-06
5.61875e-06
5.17433e-06
7.12105e-06
6.71499e-06
7.47937e-06
7.00606e-06
6.87414e-06
5.52998e-06
5.45853e-06
2.00707e-06
2.62941e-06
-2.50796e-06
-3.60399e-06
-1.72089e-05
-5.32177e-06
-2.34518e-07
-6.42186e-06
2.08487e-07
1.72136e-06
1.91072e-06
4.11291e-06
3.79917e-06
5.35907e-06
5.1208e-06
6.21875e-06
5.12212e-06
6.87719e-06
3.25297e-06
7.28281e-06
-4.80545e-07
6.29594e-06
-4.33341e-06
2.12526e-07
-1.58424e-05
-5.68977e-06
-7.88861e-07
-5.56053e-06
-5.48474e-07
1.69611e-06
9.54394e-07
2.84236e-06
2.69907e-06
3.76989e-06
4.0747e-06
4.90564e-06
4.48986e-06
6.41144e-06
3.48487e-06
8.12085e-06
1.17614e-06
8.37467e-06
-1.49188e-06
2.68305e-06
-1.4268e-05
-3.18497e-06
-1.33255e-06
-4.14435e-06
-1.08065e-06
1.6874e-06
3.28141e-07
1.69944e-06
2.03254e-06
2.23704e-06
3.74662e-06
3.22253e-06
5.26428e-06
4.74069e-06
6.382e-06
6.67175e-06
6.6405e-06
7.6987e-06
4.89072e-06
4.07351e-06
-1.03413e-05
7.4441e-07
-1.9445e-06
-2.1063e-06
-1.29741e-06
1.28271e-06
-5.5441e-08
6.93625e-07
1.38905e-06
9.15521e-07
3.11289e-06
1.45454e-06
5.3177e-06
2.28362e-06
8.35515e-06
3.19686e-06
1.20273e-05
3.51711e-06
1.34701e-05
2.22451e-06
-4.38522e-06
7.34288e-06
-2.02895e-06
-6.36472e-07
1.18718e-07
1.01886e-06
2.35544e-06
4.42634e-06
7.37478e-06
1.06848e-05
1.28219e-05
8.49818e-06
1.26855e-06
-4.74975e-05
-1.78118e-06
-7.52267e-05
-4.96998e-06
-0.000116237
-9.24091e-06
-0.000171458
-1.51233e-05
-0.000238184
-2.22089e-05
-0.0003195
-3.50254e-05
-0.000416455
-4.95454e-05
-0.000497531
-4.73594e-05
-0.000544913
-0.00121304
6.23801e-07
-4.42694e-05
-1.84781e-06
-7.26633e-05
-3.92187e-06
-0.000114499
-6.95871e-06
-0.000169298
-1.1158e-05
-0.000235008
-1.53696e-05
-0.000315662
-2.13704e-05
-0.000410117
-2.50602e-05
-0.000494203
-1.44386e-05
-0.000555572
-0.00122804
-1.44237e-06
-4.13397e-05
-2.63517e-06
-7.13128e-05
-3.08432e-06
-0.000114208
-4.44593e-06
-0.000168411
-6.47288e-06
-0.000233353
-7.77562e-06
-0.00031426
-1.04978e-05
-0.000407712
-9.38119e-06
-0.000495814
3.16672e-06
-0.000568738
-0.0012248
-3.72049e-06
-3.97153e-05
-3.09433e-06
-7.19639e-05
-1.91266e-06
-0.000115703
-1.76662e-06
-0.000169004
-2.01826e-06
-0.000233177
-1.52009e-06
-0.000314404
-2.58788e-06
-0.000407357
-3.09662e-07
-0.000497896
9.64968e-06
-0.000579016
-0.00121495
-4.89702e-06
-4.00712e-05
-2.48487e-06
-7.45238e-05
-7.88217e-08
-0.000118534
1.19015e-06
-0.00017075
2.15465e-06
-0.000234159
3.56622e-06
-0.000315438
3.67304e-06
-0.000407964
5.87612e-06
-0.000499767
1.39257e-05
-0.000587341
-0.00120091
-3.79565e-06
-4.20026e-05
-4.5456e-07
-7.81132e-05
2.45252e-06
-0.000121947
4.39801e-06
-0.000173235
6.15858e-06
-0.000236062
8.07024e-06
-0.000317315
9.32147e-06
-0.000409686
1.17174e-05
-0.000501935
2.03883e-05
-0.000596451
-0.00118052
-1.08255e-06
-4.42107e-05
2.46711e-06
-8.19258e-05
5.44566e-06
-0.000125416
7.79142e-06
-0.000176111
1.01163e-05
-0.000238614
1.23796e-05
-0.000319843
1.45816e-05
-0.000412433
1.74366e-05
-0.000504678
2.7023e-05
-0.000606618
-0.00115359
2.72173e-06
-4.62739e-05
5.9099e-06
-8.52631e-05
8.69479e-06
-0.000128533
1.12993e-05
-0.000179093
1.40385e-05
-0.000241505
1.65948e-05
-0.000322745
1.95037e-05
-0.000415902
2.23595e-05
-0.000507434
3.32365e-05
-0.000618071
-0.00112059
7.90226e-06
-4.67811e-05
9.89167e-06
-8.72216e-05
1.19852e-05
-0.000130743
1.45641e-05
-0.000181832
1.77415e-05
-0.000244664
2.09115e-05
-0.000326181
2.49057e-05
-0.000420409
2.644e-05
-0.000508859
3.52309e-05
-0.000627189
-0.00108569
1.38833e-05
-5.20475e-05
1.28745e-05
-8.60566e-05
1.30423e-05
-0.000130908
1.50706e-05
-0.000183913
1.84233e-05
-0.000247941
2.18495e-05
-0.000329716
2.96014e-05
-0.000428317
3.7804e-05
-0.000517174
2.22336e-05
-0.000612028
-0.00106297
2.15439e-06
-5.40755e-05
1.35004e-06
-8.51859e-05
9.54204e-08
-0.000129697
-5.59133e-07
-0.000183224
-4.8234e-07
-0.000247799
-5.55498e-08
-0.000330283
1.69425e-09
-0.000428601
4.49883e-06
-0.000521765
3.14206e-05
-0.000639412
-0.0010314
2.26365e-06
-5.63105e-05
3.39434e-06
-8.64061e-05
2.72675e-06
-0.000129213
2.35611e-06
-0.000182849
2.33965e-06
-0.000247498
2.65828e-06
-0.000330765
1.90907e-06
-0.000428106
3.56429e-06
-0.000523219
3.0284e-05
-0.000666221
-0.00100148
1.01268e-05
-5.33324e-05
-1.31011e-05
1.10134e-05
-8.77617e-05
1.2603e-05
-0.000131152
1.50642e-05
-0.000185456
1.85571e-05
-0.00025083
2.20997e-05
-0.00033448
2.88761e-05
-0.00043493
2.98012e-05
-0.000524304
5.85448e-06
-0.000642379
-0.000995419
7.2531e-06
-5.66616e-05
-4.19116e-06
9.00928e-06
-9.0181e-05
1.13017e-05
-0.000133848
1.42719e-05
-0.000188563
1.80521e-05
-0.000254412
2.17514e-05
-0.000338508
2.75345e-05
-0.000440895
3.161e-05
-0.000528483
3.20685e-05
-0.000643208
-0.000963188
3.28286e-06
-6.05474e-05
2.3484e-07
5.62924e-06
-9.30766e-05
7.92097e-06
-0.000136489
1.08122e-05
-0.000191585
1.45748e-05
-0.000258002
1.83616e-05
-0.000342682
2.40798e-05
-0.000447087
3.10191e-05
-0.000534989
3.88644e-05
-0.000651384
-0.00092428
1.5363e-06
-6.29428e-05
5.65056e-07
3.15745e-06
-9.50358e-05
4.79143e-06
-0.000138389
7.11424e-06
-0.000193991
1.04518e-05
-0.000261121
1.41758e-05
-0.000346587
2.0243e-05
-0.000453535
2.90623e-05
-0.000543513
3.71053e-05
-0.00065979
-0.000887222
4.26676e-07
-6.37402e-05
2.07569e-07
8.70463e-07
-9.561e-05
1.32751e-06
-0.000139038
2.52899e-06
-0.000195231
4.84774e-06
-0.000263236
7.66617e-06
-0.000349593
1.29672e-05
-0.00045917
2.24095e-05
-0.00055277
2.96618e-05
-0.000667505
-0.000857699
-7.09385e-07
-6.3129e-05
4.92939e-08
-1.52606e-06
-9.47645e-05
-2.50379e-06
-0.00013821
-2.84917e-06
-0.000194888
-2.15925e-06
-0.000263686
-1.12542e-06
-0.000350795
1.88677e-06
-0.000462564
9.82337e-06
-0.000560697
1.65165e-05
-0.000674811
-0.000841283
-2.07529e-06
-6.13127e-05
3.22992e-07
-4.14583e-06
-9.25258e-05
-6.73323e-06
-0.000135723
-9.05044e-06
-0.000192535
-1.07697e-05
-0.000261709
-1.23765e-05
-0.000349384
-1.27822e-05
-0.000462713
-9.29873e-06
-0.0005644
-4.14629e-06
-0.000680594
-0.000845142
-3.32762e-06
-5.827e-05
4.58273e-07
-6.89698e-06
-8.86714e-05
-1.14106e-05
-0.000131223
-1.61425e-05
-0.000187708
-2.11452e-05
-0.000256461
-2.67711e-05
-0.000344055
-3.16513e-05
-0.000458581
-3.76275e-05
-0.000558633
-5.56496e-05
-0.000662707
-0.000900043
-3.60146e-06
-5.41585e-05
-2.47509e-07
-8.77296e-06
-8.31221e-05
-1.54531e-05
-0.000124394
-2.29118e-05
-0.000179982
-3.15677e-05
-0.0002475
-4.26985e-05
-0.000333275
-5.42486e-05
-0.000447638
-6.78475e-05
-0.000544021
-0.000130211
-0.000598325
-0.00103285
5.63235e-07
-2.8626e-06
-2.46068e-06
-6.53262e-06
-1.15119e-05
-1.73448e-05
-2.6674e-05
-4.50264e-05
-7.39721e-05
-0.000133168
-2.19752e-05
8.56739e-06
-3.37643e-05
6.97044e-06
-4.00759e-05
5.8859e-06
-4.3521e-05
3.60723e-06
-4.48603e-05
1.36892e-06
-4.44861e-05
-2.87383e-07
-4.27245e-05
-1.19309e-06
-3.98984e-05
-1.93489e-06
-3.64848e-05
-3.04901e-06
-4.61627e-06
-5.35621e-06
1.37906e-05
-1.50709e-05
1.62303e-05
-2.20016e-05
1.23032e-05
-2.62597e-05
7.55951e-06
-2.83764e-05
3.34885e-06
-2.86308e-05
-3.96275e-08
-2.72787e-05
-2.46282e-06
-2.47881e-05
-4.30619e-06
-2.17954e-05
-5.92586e-06
-6.89397e-06
1.25266e-06
1.2357e-05
-2.13411e-06
1.9127e-05
-6.74374e-06
1.6417e-05
-1.04626e-05
1.09491e-05
-1.27203e-05
5.38649e-06
-1.34831e-05
5.87311e-07
-1.28646e-05
-3.14803e-06
-1.12925e-05
-5.9014e-06
-9.20352e-06
-8.03185e-06
-8.94655e-06
3.49031e-06
8.68852e-06
5.83682e-06
1.63801e-05
5.46758e-06
1.6457e-05
4.02872e-06
1.21645e-05
2.41638e-06
6.83499e-06
1.21576e-06
1.6752e-06
7.17711e-07
-2.70992e-06
9.00645e-07
-6.10996e-06
1.49192e-06
-8.65764e-06
-9.79185e-06
3.47011e-06
5.09339e-06
8.82232e-06
1.08316e-05
1.22616e-05
1.29771e-05
1.36555e-05
1.07511e-05
1.37428e-05
6.74044e-06
1.31419e-05
2.28663e-06
1.23197e-05
-1.8532e-06
1.15119e-05
-5.25769e-06
1.07312e-05
-7.85917e-06
-9.14931e-06
2.67719e-06
2.37287e-06
8.23203e-06
5.30512e-06
1.34866e-05
7.97525e-06
1.68678e-05
7.55455e-06
1.85818e-05
5.18397e-06
1.90071e-05
2.00753e-06
1.85163e-05
-1.22346e-06
1.74309e-05
-4.0542e-06
1.59695e-05
-6.32223e-06
-7.64939e-06
1.80502e-06
6.00639e-07
6.17879e-06
1.17053e-06
1.14261e-05
3.21803e-06
1.55629e-05
3.76778e-06
1.8172e-05
2.86542e-06
1.93439e-05
1.08933e-06
1.93363e-05
-9.97609e-07
1.84379e-05
-2.98474e-06
1.69696e-05
-4.72986e-06
-6.04426e-06
1.22971e-06
-5.53345e-07
4.07348e-06
-1.28402e-06
7.99257e-06
-8.13113e-08
1.14931e-05
7.19041e-07
1.40033e-05
7.2821e-07
1.5315e-05
9.27772e-08
1.54744e-05
-8.995e-07
1.47106e-05
-2.02368e-06
1.34905e-05
-3.35219e-06
-4.71339e-06
7.20507e-07
-1.19056e-06
2.08368e-06
-2.2055e-06
4.11065e-06
-1.56655e-06
6.08496e-06
-8.4248e-07
7.60109e-06
-4.46498e-07
8.34814e-06
-3.70981e-07
8.19565e-06
-5.21603e-07
7.2062e-06
-8.62229e-07
5.61452e-06
-1.62579e-06
-3.3353e-06
-1.12601e-06
-3.07276e-06
-4.45371e-06
-5.14693e-06
-5.4707e-06
-5.74259e-06
-6.18676e-06
-6.9889e-06
-8.57286e-06
)
;

boundaryField
{
    right
    {
        type            cyclic;
        value           nonuniform List<scalar> 
20
(
0.0011666
0.000538977
0.000513921
0.000430717
0.000327142
0.000244256
0.00017624
0.000120426
7.94087e-05
5.10742e-05
3.3833e-05
1.94347e-05
7.27798e-06
-2.22397e-06
-1.00934e-05
-1.45882e-05
-1.55832e-05
-1.24775e-05
-4.52718e-06
1.17991e-05
)
;
    }
    left
    {
        type            cyclic;
        value           nonuniform List<scalar> 
20
(
-0.0011666
-0.000538977
-0.000513921
-0.000430717
-0.000327142
-0.000244256
-0.00017624
-0.000120426
-7.94087e-05
-5.10742e-05
-3.3833e-05
-1.94347e-05
-7.27798e-06
2.22397e-06
1.00934e-05
1.45882e-05
1.55832e-05
1.24775e-05
4.52718e-06
-1.17991e-05
)
;
    }
    outerWall
    {
        type            calculated;
        value           uniform 0;
    }
    stirrerWall
    {
        type            calculated;
        value           uniform 0;
    }
    top
    {
        type            empty;
        value           nonuniform List<scalar> 0();
    }
    bottom
    {
        type            empty;
        value           nonuniform List<scalar> 0();
    }
}


// ************************************************************************* //
