/*--------------------------------*- C++ -*----------------------------------*\
  =========                 |
  \\      /  F ield         | OpenFOAM: The Open Source CFD Toolbox
   \\    /   O peration     | Website:  https://openfoam.org
    \\  /    A nd           | Version:  10
     \\/     M anipulation  |
\*---------------------------------------------------------------------------*/
FoamFile
{
    format      ascii;
    class       volVectorField;
    location    "3700";
    object      U;
}
// * * * * * * * * * * * * * * * * * * * * * * * * * * * * * * * * * * * * * //

dimensions      [0 1 -1 0 0 0 0];

internalField   nonuniform List<vector> 
420
(
(0.969194 8.60441 3.4444e-18)
(0.531905 10.636 -3.02494e-17)
(0.279919 12.5271 -1.68946e-16)
(0.326502 14.0374 4.87269e-17)
(0.354093 15.2215 -3.66793e-16)
(0.341097 16.1443 0)
(0.229879 16.8046 0)
(0.0502521 17.2991 4.35131e-16)
(-0.162717 17.5244 -4.63277e-16)
(-0.312975 17.5867 0)
(0.209262 8.98245 6.87588e-18)
(-0.556495 10.7316 -4.2234e-17)
(-0.695937 12.4842 4.57829e-16)
(-0.74049 13.9493 -7.96394e-16)
(-0.801676 15.139 2.49227e-16)
(-0.876205 16.0965 1.33215e-17)
(-1.00994 16.798 2.37612e-15)
(-1.20764 17.2991 -5.88998e-16)
(-1.42709 17.5827 9.31571e-16)
(-1.6273 17.739 0)
(-0.635982 8.7286 -1.63054e-16)
(-1.63767 10.5297 -8.9001e-17)
(-1.73811 12.251 4.43049e-16)
(-1.82607 13.6813 9.25082e-16)
(-1.94171 14.8786 -6.08217e-16)
(-2.07895 15.8542 3.03975e-15)
(-2.27069 16.6328 1.32171e-15)
(-2.53768 17.2144 3.5535e-15)
(-2.84064 17.61 -1.42085e-15)
(-3.11739 17.8334 -3.38496e-15)
(-1.37482 8.46975 1.389e-16)
(-2.58142 10.2236 1.19501e-16)
(-2.73373 11.9121 -5.52268e-16)
(-2.8852 13.318 6.15984e-16)
(-3.06616 14.526 -1.18502e-15)
(-3.2931 15.5471 1.32431e-15)
(-3.58709 16.4107 -7.92608e-15)
(-3.97703 17.0904 0)
(-4.39766 17.5913 -3.27774e-15)
(-4.73036 17.8232 3.24301e-15)
(-2.05484 8.2478 0)
(-3.44914 9.88 1.78035e-16)
(-3.68705 11.4886 -1.65754e-16)
(-3.93055 12.8623 0)
(-4.20915 14.087 -2.2286e-16)
(-4.56235 15.1673 -3.12613e-16)
(-4.99346 16.1283 2.82191e-15)
(-5.54216 16.9215 -3.19618e-15)
(-6.05302 17.5034 0)
(-6.35425 17.657 -1.47904e-14)
(-2.70496 8.04479 -4.54187e-17)
(-4.27488 9.51137 0)
(-4.59588 11.0085 0)
(-4.94716 12.3391 1.05298e-15)
(-5.34381 13.5801 -1.82367e-15)
(-5.83544 14.7313 2.16767e-15)
(-6.41268 15.8056 6.2611e-16)
(-7.08004 16.7265 8.22177e-15)
(-7.60307 17.3474 -1.13674e-14)
(-7.77337 17.307 7.82482e-15)
(-3.35008 7.84763 0)
(-5.05358 9.11183 -1.98369e-16)
(-5.44577 10.4874 -1.52628e-15)
(-5.89979 11.7687 -7.01148e-16)
(-6.40664 13.0193 -3.29195e-15)
(-7.00634 14.2408 2.27617e-15)
(-7.67887 15.4357 -5.94664e-15)
(-8.35201 16.4976 8.10273e-16)
(-8.78679 17.1178 -3.64308e-15)
(-8.90567 16.8562 -1.14041e-14)
(-4.00542 7.63811 8.6384e-17)
(-5.78011 8.6708 2.0652e-16)
(-6.22728 9.93002 2.04786e-15)
(-6.76457 11.1529 5.4553e-16)
(-7.35729 12.3887 2.0504e-15)
(-8.01233 13.6479 0)
(-8.69394 14.9316 6.09411e-15)
(-9.30191 16.1241 7.86681e-15)
(-9.68218 16.8554 1.02779e-14)
(-9.93195 16.5225 8.28611e-15)
(-4.69749 7.38701 8.73938e-17)
(-6.42638 8.18168 2.16266e-16)
(-6.92227 9.32659 -2.29981e-16)
(-7.52911 10.4532 -1.54484e-15)
(-8.18263 11.5937 5.21773e-15)
(-8.85608 12.7734 7.67151e-15)
(-9.49917 14.0148 -2.71474e-15)
(-10.0437 15.256 0)
(-10.4032 16.3055 0)
(-10.8728 16.4239 -8.46996e-15)
(-5.51857 7.03436 -2.43897e-16)
(-6.93408 7.74863 4.68031e-16)
(-7.53958 8.78431 0)
(-8.28399 9.83255 0)
(-9.04753 10.8882 -3.16907e-15)
(-9.77413 11.9649 -2.07009e-17)
(-10.4255 13.052 5.85291e-15)
(-10.9849 14.1201 -1.25069e-14)
(-11.5283 15.0706 1.45642e-14)
(-12.2186 15.3806 1.18175e-15)
(-0.452138 17.4902 0)
(-0.620253 17.1439 0)
(-0.833341 16.42 0)
(-1.02376 15.4444 -1.02371e-15)
(-1.23065 14.574 0)
(-1.40101 13.7736 0)
(-1.29233 13.0932 1.49486e-15)
(-1.97417 13.9845 0)
(-9.93231 16.8969 0)
(19.9899 1.70209 0)
(-1.80787 17.682 1.51407e-15)
(-1.9459 17.3011 2.92349e-15)
(-2.04693 16.5176 2.8455e-16)
(-2.08945 15.5438 1.2567e-15)
(-2.16841 14.7021 2.25029e-16)
(-2.1808 13.9411 1.75641e-15)
(-1.81803 13.421 2.44227e-16)
(-2.39265 14.2836 1.62308e-16)
(-9.58984 16.1524 -5.27394e-15)
(19.3981 1.99012 -4.01961e-15)
(-3.30722 17.7304 1.33116e-15)
(-3.3526 17.2404 0)
(-3.27826 16.3834 -2.44291e-15)
(-3.14687 15.4502 -2.2615e-15)
(-3.09301 14.6599 6.40802e-15)
(-2.93072 13.9156 -1.5059e-15)
(-2.4046 13.5321 2.45603e-15)
(-3.10763 14.1456 0)
(-9.83063 15.1197 3.32704e-15)
(19.5912 3.58762 4.39662e-16)
(-4.85664 17.5859 3.13117e-15)
(-4.72837 16.9481 8.44687e-15)
(-4.44614 16.0552 -8.90562e-15)
(-4.16483 15.2068 3.49788e-15)
(-4.00336 14.4806 -2.36117e-16)
(-3.7112 13.7515 0)
(-3.07891 13.4592 -2.42681e-15)
(-3.98766 13.8446 -3.40283e-15)
(-10.3625 14.0553 -3.25618e-15)
(19.779 5.23054 1.26399e-14)
(-6.32313 17.1924 2.83953e-15)
(-5.9643 16.42 -2.73985e-15)
(-5.49507 15.5596 8.54821e-15)
(-5.11745 14.8303 -3.53547e-15)
(-4.8822 14.1792 2.91783e-15)
(-4.50596 13.4787 -4.50795e-15)
(-3.80426 13.2803 3.88771e-15)
(-4.90038 13.4616 2.98329e-15)
(-10.9252 13.0541 0)
(19.7432 7.10435 -2.6766e-14)
(-7.5528 16.5725 3.67609e-15)
(-6.9961 15.7394 -1.53033e-14)
(-6.41292 14.9665 -4.3932e-15)
(-5.99949 14.3548 9.29416e-15)
(-5.71771 13.7776 7.70624e-15)
(-5.29158 13.1164 1.29288e-16)
(-4.53054 13.0137 -2.54149e-16)
(-5.77283 13.0266 -2.61537e-15)
(-11.4424 12.0504 -3.22627e-15)
(19.6307 9.44012 2.05832e-14)
(-8.5809 15.841 3.41275e-15)
(-7.86216 14.9938 4.99678e-15)
(-7.22711 14.3275 0)
(-6.81469 13.8077 -3.03873e-15)
(-6.50148 13.2963 -4.58831e-15)
(-6.04446 12.6771 -4.65132e-17)
(-5.2379 12.6604 -8.19953e-15)
(-6.58171 12.5333 -2.02993e-15)
(-11.8636 11.0031 3.64133e-15)
(19.1983 11.9196 -9.04984e-15)
(-9.50346 15.1345 1.17938e-14)
(-8.63294 14.2349 -4.47456e-15)
(-7.96571 13.6671 0)
(-7.56547 13.2115 -1.60573e-16)
(-7.23159 12.7537 1.62719e-14)
(-6.76046 12.1746 -5.87851e-15)
(-5.91868 12.2425 -3.27677e-15)
(-7.33638 11.9786 2.93346e-15)
(-12.1505 9.95798 -3.85234e-17)
(18.1265 14.3638 0)
(-10.162 14.4877 2.32439e-16)
(-9.37457 13.4918 -4.22972e-15)
(-8.65907 12.9997 0)
(-8.25693 12.5587 4.53511e-15)
(-7.90036 12.1341 -1.11658e-14)
(-7.41164 11.58 5.22745e-15)
(-6.51993 11.7224 1.98597e-15)
(-8.02647 11.4425 0)
(-12.3829 9.04479 6.65589e-16)
(16.1161 16.3304 1.06831e-14)
(-10.3932 14.1251 3.61626e-16)
(-10.3095 12.8624 -9.42306e-17)
(-9.54911 12.3688 0)
(-9.091 11.8909 -9.24393e-15)
(-8.69621 11.4748 3.85264e-15)
(-8.20741 10.9571 -1.98933e-15)
(-7.22019 11.1157 1.03393e-15)
(-8.62364 10.973 -1.62799e-15)
(-12.661 8.62814 -5.97646e-16)
(12.9706 17.0801 -9.5585e-15)
(-10.8518 13.3631 2.73434e-15)
(-11.2821 12.0576 -4.14787e-15)
(-10.6737 11.3984 0)
(-10.1811 10.8308 0)
(-9.79695 10.3131 0)
(-9.33144 9.72153 -9.2583e-16)
(-8.41628 9.77486 3.37937e-15)
(-9.68668 9.35992 0)
(-12.5775 7.62176 0)
(10.0156 18.6698 0)
(-11.6221 12.4246 -2.67975e-15)
(-11.7955 11.5584 -4.07521e-15)
(-11.2452 10.9156 0)
(-10.678 10.3694 2.15495e-15)
(-10.2534 9.85457 -1.65915e-15)
(-9.77011 9.23043 8.67595e-16)
(-8.79527 9.40548 1.20796e-15)
(-10.1045 8.76141 5.18434e-16)
(-12.5615 6.44718 -1.98712e-16)
(9.84564 19.8899 0)
(-12.6124 11.6928 1.6346e-16)
(-12.1302 11.1265 -3.01532e-18)
(-11.5033 10.6307 0)
(-10.8159 10.2097 -2.42075e-16)
(-10.26 9.82483 2.64292e-15)
(-9.68332 9.24613 -2.47919e-15)
(-8.568 9.62406 -3.55037e-15)
(-9.94522 8.96159 7.06713e-16)
(-13.0946 4.96368 -1.80248e-15)
(9.57482 21.1325 1.10012e-14)
(-13.5558 10.3149 -1.01847e-14)
(-12.8859 9.99452 3.77729e-15)
(-12.1741 9.58936 0)
(-11.431 9.23485 -4.46558e-15)
(-10.8155 8.91726 -3.10793e-15)
(-10.2237 8.35591 4.15377e-15)
(-9.09283 8.72012 1.34335e-15)
(-10.4314 8.25787 0)
(-13.5892 4.89422 -4.14656e-16)
(6.24437 22.0375 -3.86982e-15)
(-14.14 8.90534 -3.49199e-17)
(-13.501 8.71369 3.70026e-15)
(-12.7778 8.39072 0)
(-12.0013 8.09513 9.11361e-15)
(-11.3417 7.83682 1.81474e-16)
(-10.722 7.29658 3.32916e-16)
(-9.55781 7.70498 2.71592e-15)
(-10.7574 7.34938 -1.82244e-15)
(-13.5018 4.02817 7.47054e-16)
(2.77742 21.9605 0)
(-14.5683 7.66407 -2.36569e-15)
(-14.0125 7.49451 8.12827e-15)
(-13.3092 7.20866 6.50328e-15)
(-12.5159 6.94371 -7.67573e-15)
(-11.8239 6.72866 -1.15251e-14)
(-11.1622 6.20656 2.904e-16)
(-9.95982 6.65847 -1.88429e-15)
(-11.0311 6.38316 -1.44124e-15)
(-13.3861 3.1044 -2.21922e-15)
(-0.661634 21.364 -1.45664e-14)
(-14.9859 6.49227 -7.96124e-15)
(-14.4872 6.30211 4.35674e-15)
(-13.798 6.0143 -3.44328e-15)
(-12.9879 5.74675 -8.6178e-15)
(-12.2639 5.54591 6.54716e-15)
(-11.5526 5.03552 1.22121e-16)
(-10.3217 5.4777 4.9112e-15)
(-11.2324 5.22498 7.74022e-16)
(-13.2862 2.03587 2.32274e-15)
(-3.76639 20.325 2.08561e-15)
(-15.4321 5.33567 2.48073e-15)
(-14.9632 5.11279 -2.36535e-15)
(-14.2751 4.8048 -2.49522e-16)
(-13.4418 4.51315 9.12256e-15)
(-12.6834 4.29932 -1.27195e-14)
(-11.9217 3.79819 3.95746e-15)
(-10.6811 4.18231 -3.29321e-15)
(-11.4217 3.85723 7.89208e-15)
(-13.2298 0.838209 0)
(-6.51751 18.9365 -1.56698e-15)
(-15.8918 4.15307 2.9505e-15)
(-15.4421 3.90394 2.42792e-15)
(-14.7513 3.56819 4.29673e-15)
(-13.892 3.23585 -6.853e-15)
(-13.0978 2.98454 2.47169e-15)
(-12.2874 2.46503 0)
(-11.0423 2.779 -2.27097e-15)
(-11.6124 2.2287 -6.63498e-15)
(-13.1628 -0.49774 -5.46027e-16)
(-8.48284 17.2324 1.41301e-14)
(-16.3685 2.95756 1.38881e-15)
(-15.9263 2.67304 0)
(-15.2371 2.29202 2.35072e-15)
(-14.3704 1.90499 2.16485e-15)
(-13.5646 1.60352 1.79662e-17)
(-12.6963 1.0055 -1.43566e-15)
(-11.4693 1.21065 2.29254e-15)
(-11.9956 0.412449 0)
(-13.3983 -2.55311 3.26221e-15)
(-9.30957 14.765 1.94258e-14)
(-16.8234 1.78354 1.56023e-15)
(-16.4113 1.46876 -2.90258e-15)
(-15.719 1.01777 -2.66294e-16)
(-14.833 0.555911 7.82832e-16)
(-14.0615 0.19077 -2.14004e-16)
(-13.1968 -0.443561 1.24292e-15)
(-11.9029 -0.596481 -3.21006e-15)
(-12.5768 -1.35395 -4.26064e-16)
(-15.0821 -6.45368 5.41996e-15)
(-12.7436 15.4219 -1.24462e-14)
(-17.2058 0.760739 2.20837e-29)
(-16.8549 0.601148 0)
(-16.1966 0.321606 0)
(-15.255 0.0049516 -1.01693e-15)
(-14.3674 -0.264479 0)
(-13.5128 -0.521922 0)
(-12.4113 -0.807055 1.46052e-15)
(-13.1695 -1.68364 0)
(-17.3104 -10.5514 0)
(2.74194 18.6911 -6.44683e-29)
(-14.1543 12.3674 8.96269e-16)
(-14.4153 10.5887 -6.04189e-15)
(-14.6858 8.94761 5.9215e-15)
(-14.942 7.67541 -8.46519e-15)
(-15.2619 6.53525 5.95552e-15)
(-15.6513 5.42433 -1.30711e-14)
(-16.0859 4.28851 3.39923e-15)
(-16.5682 3.14946 -3.68565e-15)
(-17.0136 2.00542 0)
(-17.3528 0.878439 -3.92142e-16)
(-14.887 11.8399 1.37778e-14)
(-15.1649 10.1407 0)
(-15.1477 8.71514 6.38136e-15)
(-15.2347 7.55839 -2.68175e-15)
(-15.4301 6.50765 -9.63869e-15)
(-15.7207 5.47336 0)
(-16.0903 4.40882 -3.99632e-15)
(-16.5437 3.32905 -1.69635e-15)
(-16.9758 2.21618 1.06647e-15)
(-17.3233 1.03345 -4.24222e-16)
(-14.5846 10.9865 -1.13849e-14)
(-15.2891 9.40093 0)
(-15.3786 8.26052 5.9936e-15)
(-15.4187 7.29548 6.33483e-16)
(-15.5445 6.38534 8.32733e-15)
(-15.7508 5.46719 -4.10894e-15)
(-16.0383 4.50281 0)
(-16.4156 3.49724 4.65009e-15)
(-16.7557 2.44044 -6.84267e-16)
(-17.0833 1.28101 5.47761e-16)
(-13.4963 10.243 5.20193e-15)
(-14.7575 8.77955 -1.83317e-15)
(-15.2581 7.7678 4.40814e-15)
(-15.4771 6.96914 -4.69108e-15)
(-15.6195 6.2044 5.27886e-16)
(-15.7709 5.41032 3.16904e-15)
(-15.9549 4.54978 -1.02166e-14)
(-16.2064 3.60943 1.64605e-15)
(-16.424 2.59373 2.55322e-15)
(-16.6431 1.45574 7.68206e-17)
(-12.235 9.55973 -7.71126e-15)
(-13.6084 8.33126 5.29637e-15)
(-14.5444 7.37654 0)
(-15.0379 6.6353 1.83124e-15)
(-15.3474 5.93866 1.99923e-15)
(-15.5565 5.21523 -2.78801e-16)
(-15.7256 4.42877 1.5939e-15)
(-15.8867 3.55733 3.39753e-15)
(-15.9963 2.60146 -4.66973e-18)
(-16.0889 1.52123 2.9473e-16)
(-11.0063 8.87415 -3.06258e-15)
(-12.2118 7.91013 4.13536e-15)
(-13.3127 7.01246 1.65118e-15)
(-14.0335 6.27608 -2.70414e-15)
(-14.5066 5.59998 -1.68507e-15)
(-14.8236 4.91194 -2.29055e-16)
(-15.0352 4.17178 -3.06537e-15)
(-15.1702 3.35422 9.25932e-16)
(-15.2245 2.46002 2.55676e-16)
(-15.242 1.45096 -2.98384e-16)
(-9.85138 8.16683 0)
(-10.7871 7.45882 -1.42042e-15)
(-11.8261 6.63962 4.08357e-16)
(-12.6504 5.91148 -6.54594e-16)
(-13.2292 5.22842 1.06187e-15)
(-13.6286 4.54677 0)
(-13.8872 3.82861 7.03261e-16)
(-14.0343 3.05352 1.0004e-15)
(-14.0794 2.22013 -8.56687e-16)
(-14.0788 1.31381 -2.81738e-17)
(-8.76391 7.4438 0)
(-9.46364 6.93891 -3.3709e-16)
(-10.3077 6.21538 2.32786e-15)
(-11.0712 5.51374 -1.70024e-15)
(-11.6588 4.82467 0)
(-12.0835 4.13677 -2.74646e-16)
(-12.3629 3.4235 -7.39616e-16)
(-12.5121 2.67266 6.01339e-16)
(-12.5589 1.90136 5.65639e-16)
(-12.5582 1.12074 -2.16496e-16)
(-7.71786 6.67294 -6.84067e-16)
(-8.25719 6.29831 3.39666e-16)
(-8.89817 5.61853 3.25163e-16)
(-9.51125 4.92076 -3.14685e-16)
(-10.0074 4.22129 0)
(-10.376 3.52136 3.04968e-16)
(-10.6139 2.81517 3.78276e-16)
(-10.7182 2.11006 -4.15896e-16)
(-10.7246 1.4572 -8.57858e-17)
(-10.6444 0.88961 3.41543e-18)
(-6.3426 6.2483 -8.14255e-17)
(-6.513 6.02569 1.94175e-17)
(-6.8417 5.45668 4.58872e-18)
(-7.19838 4.82148 0)
(-7.53085 4.1898 4.54077e-18)
(-7.8164 3.56668 0)
(-8.03856 2.94519 4.7971e-17)
(-8.17846 2.33013 -1.65637e-18)
(-8.22018 1.7583 1.63868e-17)
(-8.09409 1.29174 -1.77701e-18)
)
;

boundaryField
{
    right
    {
        type            cyclic;
    }
    left
    {
        type            cyclic;
    }
    outerWall
    {
        type            calculated;
        value           nonuniform List<vector> 
22
(
(-1.55201 41.8305 0)
(-4.64749 41.6006 0)
(-7.71741 41.1419 0)
(-10.7449 40.4569 0)
(-13.7132 39.5492 0)
(-16.6061 38.424 0)
(-19.4075 37.0874 0)
(-22.1022 35.5467 0)
(-24.6752 33.8104 0)
(-27.1124 31.8882 0)
(-28.9573 30.2506 0)
(-30.2506 28.9573 0)
(-31.8882 27.1124 0)
(-33.8104 24.6752 0)
(-35.5467 22.1022 0)
(-37.0874 19.4075 0)
(-38.424 16.6061 0)
(-39.5492 13.7132 0)
(-40.4569 10.7449 0)
(-41.1419 7.71741 0)
(-41.6006 4.64749 0)
(-41.8305 1.55201 0)
)
;
    }
    stirrerWall
    {
        type            calculated;
        value           nonuniform List<vector> 
42
(
(-0.310178 8.3662 0)
(-0.928834 8.32046 0)
(-1.54239 8.22894 0)
(-2.14746 8.09214 0)
(-2.74072 7.91082 0)
(-3.31888 7.68598 0)
(-3.87877 7.41885 0)
(-4.41729 7.11092 0)
(-4.93148 6.76387 0)
(-5.4185 6.37963 0)
(-6.07951 6.64185 0)
(-6.92878 7.56862 0)
(-7.77806 8.49539 0)
(-8.62734 9.42216 0)
(-9.47661 10.3489 0)
(-10.3259 11.2757 0)
(-11.1752 12.2025 0)
(-12.0244 13.1292 0)
(-12.8737 14.056 0)
(-13.723 14.9828 0)
(-14.4723 15.1215 0)
(-15.1215 14.4723 0)
(-14.9828 13.723 0)
(-14.056 12.8737 0)
(-13.1292 12.0244 0)
(-12.2025 11.1752 0)
(-11.2757 10.3259 0)
(-10.3489 9.47661 0)
(-9.42216 8.62734 0)
(-8.49539 7.77806 0)
(-7.56862 6.92878 0)
(-6.64185 6.07951 0)
(-6.37963 5.4185 0)
(-6.76387 4.93148 0)
(-7.11092 4.41729 0)
(-7.41885 3.87877 0)
(-7.68598 3.31888 0)
(-7.91082 2.74072 0)
(-8.09214 2.14746 0)
(-8.22894 1.54239 0)
(-8.32046 0.928834 0)
(-8.3662 0.310178 0)
)
;
    }
    top
    {
        type            empty;
    }
    bottom
    {
        type            empty;
    }
}


// ************************************************************************* //
