/*--------------------------------*- C++ -*----------------------------------*\
  =========                 |
  \\      /  F ield         | OpenFOAM: The Open Source CFD Toolbox
   \\    /   O peration     | Website:  https://openfoam.org
    \\  /    A nd           | Version:  10
     \\/     M anipulation  |
\*---------------------------------------------------------------------------*/
FoamFile
{
    format      ascii;
    class       volVectorField;
    location    "3700";
    object      Urel;
}
// * * * * * * * * * * * * * * * * * * * * * * * * * * * * * * * * * * * * * //

dimensions      [0 1 -1 0 0 0 0];

internalField   nonuniform List<vector> 
420
(
(1.30319 -0.403844 3.4444e-18)
(0.912406 0.374692 -3.02494e-17)
(0.706934 1.01224 -1.68946e-16)
(0.800043 1.26879 4.87269e-17)
(0.874166 1.19897 -3.66793e-16)
(0.907709 0.867646 0)
(0.843034 0.27367 0)
(0.709953 -0.486106 4.35131e-16)
(0.543533 -1.51521 -4.63277e-16)
(0.439827 -2.70745 0)
(1.20944 0.0234862 6.87588e-18)
(0.582927 0.526492 -4.2234e-17)
(0.582774 1.03251 4.57829e-16)
(0.67754 1.25075 -7.96394e-16)
(0.755696 1.19345 2.49227e-16)
(0.820526 0.903779 1.33215e-17)
(0.82616 0.357905 2.37612e-15)
(0.767846 -0.388417 -5.88998e-16)
(0.687783 -1.3522 9.31571e-16)
(0.626978 -2.44347 0)
(1.02488 -0.131786 -1.63054e-16)
(0.254419 0.436935 -8.9001e-17)
(0.385272 0.925372 4.43049e-16)
(0.528663 1.1226 9.25082e-16)
(0.644408 1.08664 -6.08217e-16)
(0.738583 0.828822 3.03975e-15)
(0.778274 0.373917 1.32171e-15)
(0.74273 -0.278161 3.5535e-15)
(0.671239 -1.11625 -1.42085e-15)
(0.625964 -2.12659 -3.38496e-15)
(0.937597 -0.243325 1.389e-16)
(0.0529318 0.298623 1.19501e-16)
(0.22265 0.774866 -5.52268e-16)
(0.393291 0.968272 6.15984e-16)
(0.534492 0.963496 -1.18502e-15)
(0.62975 0.771696 1.32431e-15)
(0.657987 0.422315 -7.92608e-15)
(0.590294 -0.111095 0)
(0.491931 -0.823298 -3.27774e-15)
(0.481518 -1.80458 3.24301e-15)
(0.896402 -0.270034 0)
(-0.087018 0.177453 1.78035e-16)
(0.0860763 0.600993 -1.65754e-16)
(0.253683 0.789357 0)
(0.38625 0.828484 -2.2286e-16)
(0.444257 0.723055 -3.12613e-16)
(0.424403 0.498258 2.82191e-15)
(0.286984 0.105601 -3.19618e-15)
(0.187432 -0.498458 0)
(0.29753 -1.5309 -1.47904e-14)
(0.868871 -0.230948 -4.54187e-17)
(-0.203481 0.0845886 0)
(-0.0267518 0.430328 0)
(0.119811 0.609241 1.05298e-15)
(0.221074 0.698441 -1.82367e-15)
(0.227428 0.697585 2.16767e-15)
(0.148205 0.61983 6.2611e-16)
(-0.0210882 0.388551 8.22177e-15)
(-0.0460254 -0.142746 -1.13674e-14)
(0.281783 -1.33545 7.82482e-15)
(0.826655 -0.140491 0)
(-0.295303 0.0126485 -1.98369e-16)
(-0.105772 0.276842 -1.52628e-15)
(0.0220558 0.446451 -7.01148e-16)
(0.0971517 0.58524 -3.29195e-15)
(0.0794694 0.694814 2.27617e-15)
(-0.0109936 0.777591 -5.94664e-15)
(-0.102024 0.727372 8.10273e-16)
(0.0453426 0.235352 -3.64308e-15)
(0.50863 -1.13851 -1.14041e-14)
(0.751226 -0.0184663 8.6384e-17)
(-0.361142 -0.050752 2.0652e-16)
(-0.145781 0.14317 2.04786e-15)
(-0.0203971 0.300541 5.4553e-16)
(0.0496642 0.470626 2.0504e-15)
(0.0574788 0.663922 0)
(0.0387907 0.88168 6.09411e-15)
(0.0937991 1.00816 7.86681e-15)
(0.376534 0.673407 1.02779e-14)
(0.789807 -0.725577 8.28611e-15)
(0.612876 0.104093 8.73938e-17)
(-0.376544 -0.114288 2.16266e-16)
(-0.132724 0.0172714 -2.29981e-16)
(0.000301817 0.13031 -1.54484e-15)
(0.0867754 0.257027 5.21773e-15)
(0.153401 0.422895 7.67151e-15)
(0.250454 0.650367 -2.71474e-15)
(0.446174 0.877504 0)
(0.826836 0.912918 0)
(1.09755 0.0171564 -8.46996e-15)
(0.316269 0.165139 -2.43897e-16)
(-0.286664 -0.0761425 4.68031e-16)
(-0.0793343 0.00369364 0)
(-0.0107318 0.0958766 0)
(0.0388667 0.195328 -3.16907e-15)
(0.125507 0.315663 -2.07009e-17)
(0.28745 0.446343 5.85291e-15)
(0.541438 0.558042 -1.25069e-14)
(0.811411 0.551947 1.45642e-14)
(0.93458 -0.0945897 1.18175e-15)
(0.347469 -4.06505 0)
(0.228963 -5.74819 0)
(0.0708002 -7.95218 0)
(-0.0588052 -10.5665 -1.02371e-15)
(-0.198366 -13.2513 0)
(-0.294173 -16.0606 0)
(-0.102959 -18.9652 1.49486e-15)
(-0.693413 -20.5365 0)
(-8.55037 -20.3507 0)
(21.4839 -38.5643 0)
(0.586545 -3.75469 1.51407e-15)
(0.597074 -5.46509 2.92349e-15)
(0.660518 -7.72054 2.8455e-16)
(0.800102 -10.3241 1.2567e-15)
(0.922765 -12.9702 2.25029e-16)
(1.13361 -15.7291 1.75641e-15)
(1.74355 -18.4612 2.44227e-16)
(1.44258 -20.0477 1.62308e-16)
(-5.45162 -20.8905 -5.27394e-15)
(23.8718 -38.055 -4.01961e-15)
(0.668846 -3.46994 1.33116e-15)
(0.870148 -5.27471 0)
(1.21761 -7.5875 -2.44291e-15)
(1.65139 -10.1325 -2.2615e-15)
(2.04006 -12.7073 6.40802e-15)
(2.57304 -15.4275 -1.5059e-15)
(3.5096 -17.9985 2.45603e-15)
(3.26099 -19.8071 0)
(-2.95888 -21.5148 3.32704e-15)
(27.02 -36.016 4.39662e-16)
(0.679246 -3.26159 3.13117e-15)
(1.15095 -5.19235 8.44687e-15)
(1.81344 -7.51673 -8.90562e-15)
(2.51578 -9.95009 3.49788e-15)
(3.14339 -12.4311 -2.36117e-16)
(3.95166 -15.1031 0)
(5.15538 -17.5466 -2.42681e-15)
(4.87932 -19.5429 -3.40283e-15)
(-0.795036 -21.9693 -3.25618e-15)
(30.1221 -33.7136 1.26399e-14)
(0.742161 -3.18776 2.83953e-15)
(1.53931 -5.22402 -2.73985e-15)
(2.49384 -7.48379 8.54821e-15)
(3.40878 -9.76248 -3.53547e-15)
(4.23894 -12.129 2.91783e-15)
(5.27386 -14.7287 -4.50795e-15)
(6.70485 -17.03 3.88771e-15)
(6.41618 -19.177 2.98329e-15)
(1.28531 -22.1623 0)
(32.9435 -30.9661 -2.6766e-14)
(1.00309 -3.22844 3.67609e-15)
(2.09056 -5.28942 -1.53033e-14)
(3.26141 -7.42176 -4.3932e-15)
(4.3255 -9.53873 9.29416e-15)
(5.32769 -11.7825 7.70624e-15)
(6.55143 -14.2889 1.29288e-16)
(8.19558 -16.4345 -2.54149e-16)
(7.93107 -18.6835 -2.61537e-15)
(3.3441 -22.1641 -3.22627e-15)
(35.6157 -27.5473 2.05832e-14)
(1.41862 -3.27189 3.41275e-15)
(2.75766 -5.30418 4.99678e-15)
(4.0795 -7.28262 0)
(5.25233 -9.25521 -3.03873e-15)
(6.40745 -11.3752 -4.58831e-15)
(7.79663 -13.7753 -4.65132e-17)
(9.63526 -15.7638 -8.19953e-15)
(9.43413 -18.074 -2.02993e-15)
(5.41737 -22.0214 3.64133e-15)
(37.88 -23.7812 -9.04984e-15)
(1.88478 -3.18533 1.17938e-14)
(3.4617 -5.22071 -4.47456e-15)
(4.91106 -7.04608 0)
(6.17725 -8.89405 -1.60573e-16)
(7.46992 -10.8935 1.62719e-14)
(9.00259 -13.1795 -5.87851e-15)
(11.0197 -15.0013 -3.27677e-15)
(10.9033 -17.3576 2.93346e-15)
(7.52997 -21.6949 -3.85234e-17)
(39.4022 -19.854 0)
(2.55243 -2.9384 2.32439e-16)
(4.12847 -5.01456 -4.22972e-15)
(5.71711 -6.70275 0)
(7.08597 -8.46803 4.53511e-15)
(8.5129 -10.3588 -1.11658e-14)
(10.1867 -12.5363 5.22745e-15)
(12.3905 -14.1913 1.98597e-15)
(12.3367 -16.4612 0)
(9.58878 -21.0623 6.65589e-16)
(39.8686 -16.2162 1.06831e-14)
(3.57765 -2.31152 3.61626e-16)
(4.52772 -4.59303 -9.42306e-17)
(6.2475 -6.21459 0)
(7.76778 -7.94133 -9.24393e-15)
(9.33859 -9.74022 3.85264e-15)
(11.1295 -11.7888 -1.98933e-15)
(13.5583 -13.3253 1.03393e-15)
(13.751 -15.3448 -1.62799e-15)
(11.4809 -19.7675 -5.97646e-16)
(39.0692 -13.6162 -9.5585e-15)
(4.06395 -2.22137 2.73434e-15)
(4.55937 -4.49378 -4.14787e-15)
(6.19283 -6.22363 0)
(7.82035 -7.97664 0)
(9.46109 -9.80679 0)
(11.3179 -11.8514 -9.2583e-16)
(13.7734 -13.407 3.37937e-15)
(14.2085 -15.6032 0)
(13.206 -19.3136 0)
(37.8897 -10.4492 0)
(3.96234 -2.49113 -2.67975e-15)
(4.75597 -4.28313 -4.07521e-15)
(6.37684 -5.95093 0)
(8.1294 -7.6321 2.15495e-15)
(9.86643 -9.40347 -1.65915e-15)
(11.8029 -11.4189 8.67595e-16)
(14.3866 -12.7842 1.20796e-15)
(14.8587 -15.1338 5.18434e-16)
(14.3739 -19.3363 -1.98712e-16)
(38.9647 -7.98422 0)
(3.82422 -2.27797 1.6346e-16)
(5.3252 -3.71078 -3.01532e-18)
(7.08006 -5.16593 0)
(9.01631 -6.64908 -2.42075e-16)
(10.955 -8.20997 2.64292e-15)
(13.0626 -10.0907 -2.47919e-15)
(15.873 -11.1545 -3.55037e-15)
(16.3725 -13.4131 7.06713e-16)
(15.3011 -19.1782 -1.80248e-15)
(40.2711 -4.96605 1.10012e-14)
(3.87029 -2.39953 -1.01847e-14)
(5.62046 -3.50852 3.77729e-15)
(7.52828 -4.78681 0)
(9.59571 -6.10806 -4.46558e-15)
(11.6774 -7.496 -3.10793e-15)
(13.8926 -9.24244 4.15377e-15)
(16.8208 -10.1903 1.34335e-15)
(17.4723 -12.1053 0)
(16.5179 -17.0774 -4.14656e-16)
(38.7909 -1.71499 -3.86982e-15)
(4.17978 -2.4829 -3.49199e-17)
(5.9546 -3.38095 3.70026e-15)
(7.93534 -4.48605 0)
(10.1043 -5.6476 9.11361e-15)
(12.3054 -6.86468 1.81474e-16)
(14.632 -8.46647 3.32916e-16)
(17.686 -9.2334 2.71592e-15)
(18.5788 -10.8903 -1.82244e-15)
(18.1511 -15.6523 7.47054e-16)
(36.9952 0.684772 0)
(4.54453 -2.33545 -2.36569e-15)
(6.28545 -3.12532 8.12827e-15)
(8.30094 -4.09795 6.50328e-15)
(10.5471 -5.1233 -7.67573e-15)
(12.8476 -6.18027 -1.15251e-14)
(15.2901 -7.63452 2.904e-16)
(18.4644 -8.21468 -1.88429e-15)
(19.5763 -9.63268 -1.44124e-15)
(19.6384 -14.1766 -2.21922e-15)
(35.0391 2.68219 -1.45664e-14)
(4.81499 -2.06363 -7.96124e-15)
(6.54158 -2.78456 4.35674e-15)
(8.59026 -3.66003 -3.44328e-15)
(10.9056 -4.57824 -8.6178e-15)
(13.2961 -5.49948 6.54716e-15)
(15.8527 -6.80749 1.22121e-16)
(19.1265 -7.24843 4.9112e-15)
(20.4778 -8.47891 7.74022e-16)
(20.9284 -12.7506 2.32274e-15)
(33.221 4.33994 2.08561e-15)
(4.9481 -1.72962 2.48073e-15)
(6.68087 -2.39082 -2.36535e-15)
(8.76832 -3.18411 -2.49522e-16)
(11.151 -4.01307 9.12256e-15)
(13.6248 -4.82182 -1.27195e-14)
(16.2858 -5.98163 3.95746e-15)
(19.6292 -6.3268 -3.29321e-15)
(21.2169 -7.45932 7.89208e-15)
(21.9866 -11.3723 0)
(31.553 5.73617 -1.56698e-15)
(4.95569 -1.38281 2.9505e-15)
(6.69834 -1.97538 2.42792e-15)
(8.82061 -2.6914 4.29673e-15)
(11.2648 -3.44475 -6.853e-15)
(13.8138 -4.16221 2.47169e-15)
(16.5672 -5.19783 0)
(19.9635 -5.45529 -2.27097e-15)
(21.7751 -6.63827 -6.63498e-15)
(22.8617 -10.0652 -5.46027e-16)
(30.4613 6.88938 1.41301e-14)
(4.83181 -1.01851 1.38881e-15)
(6.58879 -1.5497 0)
(8.73378 -2.20384 2.35072e-15)
(11.2123 -2.89327 2.16485e-15)
(13.8026 -3.52955 1.79662e-17)
(16.6468 -4.49827 -1.43566e-15)
(20.0614 -4.70355 2.29254e-15)
(21.9572 -5.95617 0)
(23.2362 -9.42486 3.26221e-15)
(30.294 7.33624 1.94258e-14)
(4.61326 -0.61088 1.56023e-15)
(6.35487 -1.07421 -2.90258e-15)
(8.5191 -1.68967 -2.66294e-16)
(11.0348 -2.33364 7.82832e-16)
(13.6108 -2.90041 -2.14004e-16)
(16.4734 -3.75797 1.24292e-15)
(19.9793 -4.15806 -3.21006e-15)
(21.7545 -5.18918 -4.26064e-16)
(21.9608 -10.5919 5.41996e-15)
(27.3016 10.9482 -1.24462e-14)
(4.34941 -0.0388689 2.20837e-29)
(6.03716 -0.248068 0)
(8.1756 -0.582536 0)
(10.756 -0.960003 -1.01693e-15)
(13.458 -1.29677 0)
(16.3214 -1.62876 0)
(19.6471 -1.99643 1.46052e-15)
(21.3515 -2.9644 0)
(19.9372 -11.9333 0)
(43.0083 17.1971 -6.44683e-29)
(1.32092 -0.78577 8.96269e-16)
(1.99147 -1.38166 -6.04189e-15)
(2.56227 -1.77415 5.9215e-15)
(3.05276 -1.73889 -8.46519e-15)
(3.38064 -1.51991 5.95552e-15)
(3.5366 -1.22745 -1.30711e-14)
(3.54187 -0.923373 3.39923e-15)
(3.39173 -0.593896 -3.68565e-15)
(3.16888 -0.248854 0)
(2.94127 0.125637 -3.92142e-16)
(-0.368386 -0.499864 1.37778e-14)
(0.227729 -1.08941 0)
(1.03433 -1.34358 6.38136e-15)
(1.64777 -1.27374 -2.68175e-15)
(2.06012 -1.04939 -9.63869e-15)
(2.28116 -0.767097 0)
(2.32428 -0.480773 -3.99632e-15)
(2.18249 -0.182827 -1.69635e-15)
(1.95915 0.101302 1.06647e-15)
(1.71637 0.327204 -4.24222e-16)
(-1.02254 -0.539782 -1.13849e-14)
(-0.910582 -1.08889 0)
(-0.262663 -1.13518 5.9936e-15)
(0.351556 -0.954502 6.33483e-16)
(0.793483 -0.67361 8.32733e-15)
(1.0651 -0.361959 -4.10894e-15)
(1.16316 -0.0645172 0)
(1.0769 0.21682 4.65009e-15)
(0.931726 0.464956 -6.84267e-16)
(0.701959 0.62131 5.47761e-16)
(-0.89068 -0.469955 5.20193e-15)
(-1.39305 -0.970071 -1.83317e-15)
(-1.20818 -0.964938 4.40814e-15)
(-0.818978 -0.698733 -4.69108e-15)
(-0.433702 -0.356491 5.27886e-16)
(-0.140925 -0.00754163 3.16904e-15)
(0.0334923 0.304703 -1.02166e-14)
(0.0524753 0.560469 1.64605e-15)
(0.016093 0.757626 2.55322e-15)
(-0.112143 0.842586 7.68206e-17)
(-0.585765 -0.339915 -7.71126e-15)
(-1.25785 -0.678223 5.29637e-15)
(-1.56044 -0.693272 0)
(-1.49191 -0.45051 1.83124e-15)
(-1.31372 -0.124207 1.99923e-15)
(-1.11232 0.208619 -2.78801e-16)
(-0.950196 0.505927 1.5939e-15)
(-0.861362 0.739798 3.39753e-15)
(-0.803496 0.904731 -4.66973e-18)
(-0.812234 0.954613 2.9473e-16)
(-0.313464 -0.212255 -3.06258e-15)
(-0.875153 -0.359273 4.13536e-15)
(-1.39463 -0.394495 1.65118e-15)
(-1.59943 -0.227713 -2.70414e-15)
(-1.62491 0.0350929 -1.68507e-15)
(-1.56508 0.31655 -2.29055e-16)
(-1.47268 0.571131 -3.06537e-15)
(-1.3783 0.768101 9.25932e-16)
(-1.27887 0.902648 2.55676e-16)
(-1.21941 0.930886 -2.98384e-16)
(-0.114705 -0.106428 0)
(-0.464192 -0.0705925 -1.42042e-15)
(-0.973704 -0.104552 4.08357e-16)
(-1.3282 -0.0103696 -6.54594e-16)
(-1.49934 0.16145 1.06187e-15)
(-1.55558 0.362542 0)
(-1.53748 0.550118 7.03261e-16)
(-1.47562 0.698787 1.0004e-15)
(-1.38085 0.802104 -8.56687e-16)
(-1.31021 0.840271 -2.81738e-17)
(0.0167014 -0.0164516 0)
(-0.154321 0.149367 -3.3709e-16)
(-0.520834 0.13388 2.32786e-15)
(-0.8606 0.173744 -1.70024e-15)
(-1.08057 0.255545 0)
(-1.19581 0.363634 -2.74646e-16)
(-1.22571 0.467119 -7.39616e-16)
(-1.18651 0.549277 6.01339e-16)
(-1.10725 0.62265 5.65639e-16)
(-1.04335 0.693722 -2.16496e-16)
(0.106908 0.0255209 -6.84067e-16)
(0.0387767 0.248464 3.39666e-16)
(-0.176618 0.199564 3.25163e-16)
(-0.412066 0.162486 -3.14685e-16)
(-0.580626 0.149888 0)
(-0.673466 0.159234 3.04968e-16)
(-0.688975 0.180816 3.78276e-16)
(-0.625402 0.217972 -4.15896e-16)
(-0.519415 0.31778 -8.57858e-17)
(-0.383042 0.50911 3.41543e-18)
(0.526617 0.413457 -8.14255e-17)
(0.769919 0.71532 1.94175e-17)
(0.814872 0.700033 4.58872e-18)
(0.789743 0.644745 0)
(0.744882 0.615978 4.54077e-18)
(0.701426 0.615437 0)
(0.674509 0.632776 4.7971e-17)
(0.681923 0.669268 -1.65637e-18)
(0.738784 0.758123 1.63868e-17)
(0.914161 0.957737 -1.77701e-18)
)
;

boundaryField
{
    right
    {
        type            cyclic;
    }
    left
    {
        type            cyclic;
    }
    outerWall
    {
        type            noSlip;
    }
    stirrerWall
    {
        type            noSlip;
    }
    top
    {
        type            empty;
    }
    bottom
    {
        type            empty;
    }
}


// ************************************************************************* //
