/*--------------------------------*- C++ -*----------------------------------*\
  =========                 |
  \\      /  F ield         | OpenFOAM: The Open Source CFD Toolbox
   \\    /   O peration     | Website:  https://openfoam.org
    \\  /    A nd           | Version:  10
     \\/     M anipulation  |
\*---------------------------------------------------------------------------*/
FoamFile
{
    format      ascii;
    class       volScalarField;
    location    "51000";
    object      k;
}
// * * * * * * * * * * * * * * * * * * * * * * * * * * * * * * * * * * * * * //

dimensions      [0 2 -2 0 0 0 0];

internalField   nonuniform List<scalar> 
17969
(
2.08833e-05
0.000496496
0.00128793
0.00232229
0.00343158
0.00470285
0.00624886
0.00816724
0.0104283
0.0127795
0.0148551
0.0164092
0.0173942
0.0178957
0.0180616
0.0180469
0.0179883
0.017966
0.0180351
0.0182562
0.0186436
0.0191863
0.01986
0.0206359
0.021485
0.0223804
0.0232992
0.0242235
0.0251402
0.0260401
0.0269173
0.0277681
0.0285904
0.0293831
0.0301459
0.0308788
0.0315821
0.0322559
0.0329008
0.0335169
0.0341046
0.0346641
0.0351956
0.0356991
0.0361749
0.036623
0.0370436
0.0374368
0.0378027
0.0381416
0.0384536
0.0387393
0.0389989
0.039233
0.0394421
0.039627
0.0397884
0.0399271
0.0400443
0.0401409
0.0402181
0.0402771
0.0403193
0.040346
0.0403586
0.0403584
0.0403468
0.040325
0.0402942
0.0402552
0.0402089
0.0401554
0.0400949
0.0400268
0.0399514
0.0398698
0.0397824
0.0396873
0.0395831
0.0394695
0.0393482
0.0392217
0.0390933
0.0389667
0.0388463
0.0387371
0.0386444
0.0385744
0.0385339
0.0385305
0.0385723
0.0386687
0.0388322
0.0390737
0.0394039
0.0398337
0.0403725
0.041025
0.0417975
0.0427007
9.19035e-06
0.000232422
0.000665881
0.00129395
0.00197346
0.00274243
0.00367813
0.00484905
0.00632474
0.00819643
0.0103846
0.012697
0.0148785
0.0166537
0.0179172
0.0186817
0.0190444
0.0191348
0.0190822
0.0189968
0.0189416
0.0189667
0.0191243
0.0194304
0.0198795
0.020454
0.0211308
0.0218858
0.0226957
0.0235398
0.0244
0.0252619
0.0261149
0.0269511
0.0277653
0.028554
0.029315
0.0300471
0.0307497
0.0314224
0.0320653
0.0326783
0.0332617
0.0338156
0.0343403
0.034836
0.0353028
0.0357411
0.036151
0.0365329
0.036887
0.0372138
0.0375138
0.0377873
0.0380352
0.0382579
0.0384563
0.0386312
0.0387836
0.0389146
0.0390251
0.0391165
0.0391901
0.039247
0.0392887
0.0393164
0.0393316
0.0393354
0.0393289
0.0393131
0.0392886
0.0392559
0.0392149
0.0391653
0.039107
0.0390409
0.0389673
0.038886
0.0387939
0.0386912
0.03858
0.038463
0.0383435
0.0382254
0.0381134
0.0380127
0.0379295
0.0378705
0.0378432
0.0378553
0.0379149
0.0380298
0.0382098
0.0384683
0.0388184
0.0392719
0.0398388
0.0405251
0.0413389
0.0422917
4.76784e-06
0.000122994
0.000369334
0.000758354
0.00117398
0.00162139
0.00216042
0.00284194
0.00370816
0.00482478
0.00624819
0.00804295
0.0101468
0.0123845
0.0145871
0.0165409
0.0180757
0.0191393
0.0197677
0.0200517
0.0201015
0.0200257
0.0199172
0.0198286
0.0198095
0.0199072
0.0201391
0.0205038
0.0209885
0.0215747
0.0222415
0.0229685
0.0237366
0.024529
0.0253311
0.0261314
0.0269208
0.0276927
0.0284423
0.0291665
0.0298631
0.0305309
0.031169
0.0317772
0.0323551
0.0329027
0.0334203
0.033908
0.034366
0.0347947
0.0351944
0.0355656
0.0359087
0.0362243
0.036513
0.0367755
0.0370126
0.0372251
0.0374139
0.0375802
0.037725
0.0378494
0.0379546
0.0380421
0.038113
0.0381688
0.0382106
0.0382398
0.0382574
0.0382644
0.0382616
0.0382493
0.0382278
0.0381966
0.0381558
0.0381061
0.038048
0.0379819
0.0379037
0.0378145
0.0377164
0.0376123
0.0375055
0.0374
0.0373003
0.0372122
0.0371421
0.0370975
0.0370866
0.0371185
0.0372023
0.0373464
0.0375582
0.0378472
0.0382279
0.0387159
0.039322
0.0400538
0.0409214
0.0419368
3.13686e-06
8.10331e-05
0.000242657
0.000510707
0.000790108
0.00107007
0.00138157
0.00176393
0.00224927
0.00288072
0.00370346
0.0047645
0.00611048
0.00779588
0.0098038
0.0119714
0.0141455
0.0162071
0.0179632
0.0193143
0.0202363
0.0207704
0.020998
0.0210147
0.0209152
0.020781
0.0206571
0.0205942
0.0206355
0.0207986
0.021085
0.0214856
0.0219853
0.0225662
0.0232102
0.0238999
0.0246196
0.0253554
0.0260956
0.0268307
0.027553
0.028257
0.0289383
0.029594
0.0302221
0.0308213
0.0313906
0.0319298
0.0324386
0.032917
0.0333654
0.0337839
0.0341731
0.0345334
0.0348655
0.0351701
0.0354478
0.0356997
0.0359266
0.0361295
0.0363096
0.0364679
0.0366057
0.0367242
0.0368247
0.0369086
0.0369772
0.0370316
0.0370732
0.0371028
0.0371213
0.0371294
0.0371273
0.037115
0.0370924
0.0370601
0.0370191
0.0369703
0.0369088
0.0368362
0.0367549
0.0366676
0.0365778
0.0364894
0.0364071
0.0363368
0.036285
0.0362597
0.03627
0.036326
0.0364382
0.036617
0.036871
0.0372069
0.0376335
0.0381677
0.038825
0.0396146
0.0405492
0.0416413
0.0428997
0.0443292
0.0459307
0.047701
2.44574e-06
6.31534e-05
0.000186243
0.00039512
0.000607839
0.000806764
0.00101004
0.00123852
0.00151733
0.00186634
0.00231305
0.00290573
0.00368294
0.004681
0.00594168
0.00751087
0.00941494
0.0115152
0.0136441
0.0157378
0.0176544
0.0192532
0.0204639
0.0212777
0.0217378
0.0219182
0.0219041
0.0217801
0.0216188
0.0214582
0.0213506
0.0213357
0.0214308
0.0216399
0.0219571
0.0223702
0.0228643
0.0234232
0.0240313
0.0246736
0.0253371
0.0260103
0.0266834
0.0273485
0.0279991
0.0286305
0.0292387
0.0298211
0.0303759
0.0309017
0.031398
0.0318643
0.0323007
0.0327073
0.0330846
0.033433
0.0337534
0.0340464
0.0343129
0.0345539
0.0347706
0.0349639
0.0351351
0.0352854
0.0354161
0.0355286
0.0356241
0.035704
0.0357695
0.0358217
0.0358618
0.0358904
0.0359084
0.0359158
0.0359127
0.0358997
0.0358774
0.0358467
0.0358064
0.0357548
0.0356946
0.0356286
0.0355606
0.0354945
0.0354353
0.0353886
0.0353616
0.0353624
0.0354005
0.0354869
0.0356334
0.0358518
0.0361533
0.0365458
0.0370343
0.0376296
0.0383504
0.0392111
0.0402268
0.0414108
0.0427725
0.0443167
0.0460441
0.0479504
2.09066e-06
5.40201e-05
0.000157243
0.0003354
0.000515035
0.000674944
0.000827348
0.000984742
0.00115991
0.00136937
0.00162626
0.0019474
0.00236449
0.0029163
0.0036439
0.00457529
0.0057491
0.00720422
0.0089927
0.0110174
0.01312
0.0152024
0.0172094
0.0189991
0.0204673
0.0215641
0.0222911
0.022691
0.0228316
0.0227893
0.02264
0.0224493
0.0222475
0.0220912
0.0220165
0.0220414
0.0221717
0.0224042
0.0227296
0.0231353
0.0236072
0.0241307
0.0246921
0.0252784
0.0258785
0.0264826
0.0270826
0.0276718
0.0282448
0.0287975
0.0293268
0.0298304
0.0303068
0.030755
0.0311746
0.0315654
0.0319276
0.0322617
0.0325682
0.032848
0.0331019
0.033331
0.0335364
0.0337192
0.0338808
0.0340225
0.0341455
0.0342514
0.0343414
0.034417
0.0344793
0.0345297
0.034569
0.0345979
0.0346167
0.0346257
0.0346255
0.034617
0.0346008
0.0345736
0.0345385
0.0344985
0.0344573
0.0344192
0.034389
0.0343728
0.0343778
0.0344124
0.0344865
0.0346115
0.0348
0.0350652
0.0354198
0.035874
0.0364338
0.0371047
0.0379022
0.0388487
0.0399613
0.0412543
0.0427373
0.044415
0.046287
0.0483477
1.87725e-06
4.86126e-05
0.0001402
0.000300895
0.000463483
0.000604332
0.000732529
0.000857001
0.000985258
0.00112515
0.00128685
0.00148151
0.00171897
0.00201672
0.00240387
0.00291424
0.00358942
0.00445387
0.00554486
0.00689768
0.00855624
0.0104824
0.0125524
0.014629
0.0166676
0.0185849
0.0202618
0.0216206
0.0226252
0.0232827
0.0236339
0.0237405
0.0236708
0.0234938
0.0232651
0.0230194
0.0228121
0.0226763
0.0226305
0.0226825
0.0228308
0.0230685
0.023385
0.0237679
0.024204
0.02468
0.0251839
0.0257045
0.0262323
0.0267592
0.0272784
0.0277845
0.0282733
0.0287414
0.0291864
0.0296067
0.0300011
0.030369
0.0307103
0.031025
0.0313137
0.0315768
0.0318154
0.0320302
0.0322225
0.0323935
0.0325446
0.032677
0.0327925
0.0328924
0.0329783
0.0330518
0.0331143
0.033167
0.0332101
0.0332439
0.0332692
0.0332867
0.0332975
0.0332986
0.0332929
0.0332837
0.0332748
0.0332706
0.0332763
0.033298
0.0333429
0.0334196
0.0335384
0.033711
0.0339507
0.0342713
0.0346866
0.0352085
0.0358446
0.0365997
0.0374883
0.0385368
0.0397643
0.0411853
0.0428093
0.0446402
0.0466762
0.0489095
0.051327
1.74797e-06
4.53714e-05
0.000129917
0.000280221
0.00043389
0.000565459
0.000682108
0.000791094
0.000897779
0.00100676
0.00112289
0.00125232
0.00140394
0.00158486
0.00180352
0.00207823
0.00243426
0.00290214
0.00351997
0.00431267
0.00531565
0.00656249
0.00809085
0.00991807
0.0119375
0.0140063
0.0160541
0.0180399
0.0198711
0.021451
0.022719
0.0236484
0.0242488
0.0245586
0.0246341
0.0245383
0.0243338
0.0240633
0.0237761
0.0235207
0.0233267
0.0232134
0.0231889
0.0232539
0.0234032
0.0236283
0.0239183
0.0242615
0.0246457
0.0250596
0.0254927
0.0259359
0.0263812
0.0268221
0.0272533
0.0276704
0.0280701
0.0284501
0.0288084
0.0291439
0.0294561
0.0297445
0.0300093
0.0302509
0.03047
0.0306675
0.0308445
0.0310023
0.0311424
0.0312664
0.031376
0.0314731
0.0315595
0.0316368
0.0317055
0.0317659
0.031819
0.0318654
0.0319052
0.0319399
0.0319684
0.0319953
0.0320247
0.0320611
0.0321098
0.032177
0.0322699
0.0323972
0.0325692
0.0327981
0.0330976
0.0334824
0.0339668
0.0345634
0.0352806
0.0361275
0.0371226
0.0382909
0.0396523
0.041221
0.0430058
0.0450091
0.0472271
0.0496496
0.0522605
0.0550391
0.0579608
1.68485e-06
4.38057e-05
0.000124665
0.000269289
0.000418775
0.000546241
0.000657672
0.000759509
0.000856209
0.000951105
0.00104713
0.00114736
0.00125558
0.00137701
0.00151921
0.00168731
0.0018886
0.00214036
0.00246506
0.00289076
0.00344911
0.0041685
0.00508345
0.00622755
0.00763329
0.00934415
0.0112858
0.0133432
0.0154059
0.0174206
0.0193457
0.0210932
0.0225852
0.0237722
0.0246353
0.0251859
0.0254604
0.0255106
0.0253948
0.025168
0.0248636
0.0245419
0.0242429
0.0239953
0.0238169
0.0237165
0.0236962
0.0237531
0.0238809
0.0240707
0.0243126
0.024596
0.0249107
0.0252471
0.0255969
0.0259524
0.0263074
0.0266565
0.0269958
0.0273217
0.0276317
0.0279241
0.0281976
0.0284514
0.0286854
0.0288997
0.0290947
0.0292714
0.029431
0.0295749
0.0297049
0.0298229
0.0299309
0.0300311
0.0301242
0.0302105
0.030292
0.0303697
0.0304441
0.0305163
0.0305842
0.0306521
0.0307254
0.0308087
0.0309072
0.031027
0.0311752
0.0313605
0.0315932
0.0318855
0.0322517
0.0327076
0.0332689
0.0339491
0.0347568
0.0357063
0.0368234
0.0381288
0.0396419
0.0413763
0.0433394
0.0455318
0.0479471
0.0505721
0.0533875
0.0563692
0.0594898
0.0627201
1.68018e-06
4.37146e-05
0.000123737
0.00026638
0.00041494
0.000541408
0.000651043
0.000749915
0.000842124
0.000930513
0.00101729
0.00110443
0.00119398
0.00128833
0.00139062
0.00150535
0.00163898
0.00179563
0.00198136
0.00221159
0.00250649
0.00289075
0.00339004
0.00403668
0.00486532
0.00591067
0.0072044
0.0087838
0.0106364
0.0126566
0.0147174
0.0167636
0.0187377
0.0205955
0.0222601
0.023668
0.0247803
0.0255842
0.0260938
0.0263438
0.0263803
0.0262551
0.0260047
0.0256825
0.0253358
0.025
0.0247013
0.0244571
0.0242778
0.0241676
0.0241261
0.0241493
0.0242309
0.0243629
0.0245367
0.0247435
0.0249751
0.0252234
0.0254818
0.0257443
0.0260059
0.0262622
0.0265102
0.0267471
0.0269712
0.0271812
0.0273764
0.0275569
0.0277231
0.027876
0.028017
0.0281478
0.0282706
0.0283877
0.0284999
0.0286079
0.0287143
0.0288212
0.0289301
0.0290418
0.0291597
0.029277
0.0294004
0.029536
0.0296899
0.0298682
0.0300776
0.0303266
0.0306254
0.0309859
0.0314215
0.0319485
0.0325872
0.0333575
0.0342752
0.035351
0.0366032
0.0380593
0.0397383
0.0416528
0.0438087
0.046204
0.0488289
0.0516666
0.0546941
0.0578839
0.0612054
0.0646271
0.0681174
0.071646
1.73159e-06
4.50373e-05
0.00012687
0.000270667
0.000420805
0.000548375
0.000658281
0.000756483
0.000846986
0.000932478
0.00101491
0.00109586
0.00117673
0.00125896
0.00134415
0.00143431
0.0015321
0.00164138
0.00176784
0.00191513
0.00208801
0.0022991
0.00256507
0.00290688
0.00335037
0.00392607
0.00466786
0.00561059
0.00678631
0.00822561
0.00997075
0.0119258
0.0139718
0.0160352
0.0180611
0.0199908
0.0217766
0.0233586
0.0246861
0.0257309
0.0264859
0.0269669
0.0272051
0.0272409
0.0271077
0.0268512
0.0265184
0.0261499
0.0257786
0.0254293
0.0251197
0.024861
0.0246594
0.024517
0.0244323
0.0244013
0.0244184
0.0244771
0.0245704
0.0246912
0.0248329
0.0249889
0.025154
0.0253236
0.0254936
0.0256606
0.0258226
0.025978
0.0261259
0.0262662
0.0263994
0.0265266
0.0266497
0.0267709
0.0268909
0.0270105
0.0271328
0.0272607
0.0273966
0.0275423
0.0277003
0.0278757
0.0280608
0.0282603
0.028479
0.0287226
0.0289982
0.0293126
0.0296746
0.0300998
0.0306037
0.031205
0.0319263
0.0327923
0.0338264
0.0350444
0.0364532
0.0380719
0.0399295
0.0420375
0.0443991
0.047009
0.0498534
0.0529111
0.056155
0.059554
0.0630747
0.066683
0.0703458
0.074032
0.077713
0.0813634
0.084961
0.0884868
1.83658e-06
4.77293e-05
0.000133955
0.000281556
0.000435212
0.000565384
0.000676904
0.000775804
0.000866138
0.000950591
0.00103106
0.001109
0.00118555
0.00126182
0.00133888
0.0014179
0.00150022
0.00158754
0.00168215
0.00178729
0.00190778
0.00204728
0.00220889
0.00240229
0.00264229
0.0029472
0.00334019
0.0038496
0.00450835
0.00535219
0.00641684
0.00773257
0.00933692
0.0111953
0.013204
0.0152494
0.0172923
0.0192793
0.0211526
0.0228582
0.0243568
0.0256097
0.0265955
0.0273131
0.0277753
0.0280064
0.0280272
0.0278875
0.0276304
0.0272951
0.0269155
0.0265198
0.0261304
0.0257647
0.025435
0.0251494
0.0249119
0.0247237
0.0245835
0.0244879
0.0244323
0.0244117
0.0244206
0.0244537
0.0245056
0.0245714
0.0246472
0.0247299
0.0248168
0.0249065
0.0249978
0.0250914
0.0251883
0.02529
0.025397
0.02551
0.0256318
0.0257654
0.0259134
0.0260781
0.0262621
0.0264692
0.0267057
0.0269648
0.0272486
0.0275617
0.02791
0.0283001
0.0287397
0.0292405
0.0298198
0.0304995
0.0313051
0.0322656
0.033411
0.0347668
0.0363449
0.0381499
0.0401992
0.0425134
0.0450925
0.0479266
0.0509972
0.0542784
0.0577388
0.0613436
0.0650566
0.068842
0.0726656
0.0764955
0.0803035
0.0840643
0.0877565
0.0913619
1.99362e-06
5.17496e-05
0.000144862
0.000298522
0.000457097
0.000590958
0.000704964
0.000805382
0.000896412
0.000980807
0.00106049
0.00113688
0.00121112
0.00128416
0.00135688
0.00143012
0.00150477
0.0015818
0.00166237
0.00174793
0.0018404
0.00194249
0.00205814
0.00219157
0.00234495
0.0025246
0.00274347
0.00301724
0.00336613
0.00381557
0.00439618
0.00514241
0.00609017
0.00727168
0.00871934
0.0104531
0.0123823
0.0143915
0.0164199
0.0184204
0.020346
0.0221496
0.0237813
0.0251973
0.0263728
0.0272927
0.0279517
0.0283711
0.0285778
0.0286038
0.028483
0.0282484
0.0279312
0.0275595
0.0271582
0.0267478
0.0263453
0.0259635
0.0256115
0.0252955
0.0250184
0.024781
0.0245831
0.0244217
0.0242934
0.0241951
0.024123
0.0240734
0.024043
0.0240292
0.02403
0.0240449
0.0240736
0.0241171
0.0241767
0.0242532
0.0243482
0.0244635
0.0246015
0.024764
0.0249536
0.025173
0.0254265
0.025721
0.0260555
0.0264278
0.0268431
0.0273071
0.027827
0.028413
0.0290796
0.0298457
0.030738
0.0317917
0.0330434
0.0345284
0.0362689
0.0382714
0.0405346
0.043065
0.0458696
0.0489333
0.052232
0.0557348
0.059406
0.0632075
0.0671008
0.0710486
0.0750163
0.0789721
0.082888
0.0867398
0.0905069
0.0941724
2.20741e-06
5.71752e-05
0.000159645
0.000321191
0.000485478
0.000623269
0.000740187
0.000842623
0.000934885
0.00101983
0.00109944
0.00117519
0.0012482
0.00131941
0.00138962
0.00145956
0.00152994
0.00160146
0.00167488
0.00175104
0.00183096
0.00191588
0.00200744
0.00210789
0.00222044
0.00234964
0.00249744
0.00266719
0.00286965
0.00311816
0.00342983
0.00382656
0.0043355
0.00498849
0.00582042
0.00686553
0.00815343
0.00972505
0.0115279
0.0134631
0.0154402
0.0174174
0.0193474
0.0211807
0.0228757
0.0243928
0.0256972
0.0267725
0.0276155
0.0282337
0.028643
0.0288643
0.0289217
0.0288412
0.0286487
0.0283697
0.0280278
0.0276442
0.0272377
0.0268238
0.0264154
0.026022
0.0256513
0.0253076
0.0249928
0.0247086
0.0244555
0.0242331
0.0240396
0.0238734
0.0237338
0.0236196
0.0235305
0.0234684
0.0234363
0.0234353
0.0234657
0.0235282
0.023624
0.0237545
0.0239216
0.0241275
0.0243751
0.0246684
0.025012
0.0254122
0.0258701
0.0263878
0.0269709
0.0276294
0.0283769
0.0292327
0.0302216
0.0313744
0.0327308
0.0343379
0.0362292
0.0384205
0.040908
0.0436724
0.0467052
0.0499979
0.0535204
0.0572365
0.0611065
0.0650896
0.0691455
0.0732363
0.0773272
0.0813872
0.0853892
0.0893101
0.0931306
0.096835
2.47977e-06
6.40576e-05
0.000178454
0.000348471
0.000519082
0.000661469
0.000781621
0.000886271
0.000979964
0.00106571
0.0011456
0.00122114
0.0012935
0.00136361
0.00143228
0.00150018
0.00156795
0.00163619
0.00170551
0.00177652
0.00184988
0.00192634
0.00200679
0.00209231
0.0021843
0.00228464
0.00239599
0.00252228
0.00266645
0.00283017
0.00302067
0.00324962
0.00353118
0.00388375
0.00433053
0.00489967
0.00562328
0.00653542
0.00766516
0.00904531
0.0106813
0.0124948
0.0143793
0.016287
0.018172
0.019989
0.0216947
0.0232534
0.0246385
0.0258318
0.0268246
0.0276171
0.0282152
0.0286306
0.028879
0.0289786
0.0289492
0.0288114
0.0285853
0.0282905
0.0279448
0.0275644
0.0271632
0.026753
0.026343
0.025941
0.0255532
0.0251841
0.0248369
0.0245139
0.0242174
0.023949
0.0237114
0.0235072
0.0233429
0.0232233
0.0231481
0.0231173
0.0231316
0.023192
0.0232998
0.0234571
0.023666
0.0239298
0.0242518
0.0246367
0.0250894
0.0256171
0.026227
0.0269278
0.0277327
0.02866
0.0297348
0.0309891
0.0324589
0.0341874
0.0362216
0.0385881
0.0412882
0.0442957
0.0475687
0.0510828
0.0548175
0.0587315
0.0627816
0.066925
0.0711205
0.0753302
0.0795199
0.0836597
0.0877238
0.0916906
0.0955422
0.0992645
0.102846
2.81091e-06
7.23422e-05
0.000200622
0.00038022
0.000557827
0.000704908
0.000828259
0.000935087
0.00103022
0.00111684
0.00119713
0.00127267
0.00134469
0.00141412
0.00148177
0.00154832
0.00161438
0.0016805
0.00174724
0.00181511
0.00188463
0.00195636
0.00203089
0.00210888
0.00219109
0.00227847
0.00237221
0.00247387
0.00258563
0.0027106
0.00285284
0.00301358
0.00319616
0.00341077
0.00366914
0.00398642
0.00438181
0.00487899
0.00550559
0.00629197
0.00726687
0.00845498
0.00989546
0.0115351
0.0132917
0.0150897
0.0168879
0.0186419
0.0203144
0.0218741
0.023296
0.0245631
0.0256632
0.0265901
0.0273444
0.0279304
0.0283564
0.028634
0.028777
0.0288004
0.0287202
0.0285521
0.0283116
0.0280131
0.0276702
0.0272949
0.0268982
0.026489
0.0260754
0.0256642
0.0252618
0.0248737
0.0245053
0.0241629
0.0238594
0.0236051
0.0234019
0.0232508
0.023153
0.0231102
0.0231242
0.0231973
0.023332
0.0235312
0.0237985
0.0241381
0.0245552
0.0250566
0.0256508
0.0263499
0.0271704
0.0281347
0.0292712
0.0306126
0.0321949
0.0340537
0.0362311
0.0387646
0.0416594
0.0448929
0.0484104
0.0521491
0.0560753
0.0601632
0.0643674
0.0686436
0.0729507
0.0772513
0.0815126
0.085706
0.0898072
0.0937964
0.0976573
0.101377
0.104946
3.20688e-06
8.21283e-05
0.000225772
0.000416221
0.00060105
0.000752695
0.000879073
0.000987946
0.00108444
0.0011719
0.00125263
0.00132829
0.00140011
0.00146908
0.00153602
0.0016016
0.00166645
0.0017311
0.00179608
0.00186187
0.00192893
0.00199775
0.00206878
0.00214252
0.00221949
0.00230025
0.00238548
0.00247596
0.0025727
0.00267704
0.00279076
0.00291638
0.00305773
0.00321718
0.00339593
0.00360091
0.00384245
0.00413277
0.00448751
0.00492592
0.005471
0.00614878
0.00698695
0.00800692
0.00923463
0.0106705
0.0122546
0.0139035
0.0155744
0.0172298
0.0188334
0.020356
0.0217751
0.0230716
0.0242322
0.0252485
0.0261156
0.0268331
0.0274045
0.0278352
0.0281337
0.0283101
0.0283757
0.0283423
0.0282223
0.0280279
0.027771
0.0274623
0.0271121
0.02673
0.0263252
0.0259064
0.025482
0.0250615
0.024663
0.0243036
0.0239895
0.0237247
0.0235131
0.0233585
0.0232644
0.0232345
0.0232727
0.023383
0.0235697
0.0238379
0.0241936
0.0246444
0.0252005
0.0258761
0.0266906
0.0276695
0.0288448
0.0302535
0.0319334
0.0339193
0.0362453
0.0389427
0.042021
0.0454547
0.0491856
0.0531365
0.0572418
0.0614713
0.0657967
0.0701731
0.07456
0.0789213
0.0832254
0.0874455
0.0915593
0.0955483
0.0993979
0.103097
0.106636
3.67402e-06
9.3497e-05
0.000253824
0.000456039
0.000648029
0.000803979
0.000933151
0.0010439
0.00114164
0.0012299
0.00131106
0.00138685
0.00145856
0.00152719
0.00159358
0.00165843
0.00172234
0.00178588
0.00184955
0.00191383
0.00197918
0.00204604
0.00211482
0.00218595
0.00225983
0.0023369
0.00241758
0.00250238
0.00259183
0.00268662
0.00278759
0.00289587
0.00301295
0.00314091
0.00328271
0.00344229
0.00362048
0.00382008
0.00405042
0.00432147
0.00464585
0.00503901
0.00551932
0.00610746
0.00682559
0.00769303
0.00872419
0.00994506
0.0113225
0.0128025
0.0143201
0.0158464
0.0173504
0.0188029
0.0201803
0.0214647
0.0226414
0.0236992
0.0246315
0.0254342
0.0261061
0.0266493
0.0270677
0.0273669
0.0275542
0.027638
0.0276275
0.0275318
0.0273603
0.0271222
0.0268272
0.0264848
0.0261047
0.0256978
0.0252848
0.0248874
0.0245169
0.0241817
0.0238896
0.0236473
0.0234614
0.0233383
0.0232838
0.023304
0.023405
0.0235939
0.0238783
0.0242676
0.0247745
0.0254159
0.0262147
0.0272006
0.0284099
0.0298825
0.0316578
0.0337687
0.0362408
0.0390954
0.0423415
0.0459521
0.0498572
0.053975
0.0582355
0.0625859
0.0669994
0.0714417
0.0758756
0.0802665
0.0845848
0.0888056
0.0929084
0.0968765
0.100697
0.104359
0.107856
0.111182
4.21739e-06
0.000106453
0.000284652
0.000499101
0.000697991
0.000857943
0.000989681
0.00110215
0.00120103
0.00129002
0.0013716
0.00144753
0.00151916
0.00158751
0.00165343
0.00171764
0.00178077
0.00184337
0.00190597
0.00196906
0.00203309
0.00209849
0.00216568
0.00223506
0.00230699
0.00238184
0.00245995
0.00254167
0.00262737
0.00271743
0.00281232
0.0029126
0.00301898
0.00313241
0.00325419
0.00338608
0.00353052
0.00369124
0.00387059
0.00406927
0.00429342
0.004552
0.0048549
0.00521431
0.00564432
0.00616073
0.00678043
0.00752065
0.00839209
0.00940475
0.0105708
0.011853
0.013206
0.0145824
0.0159589
0.0173103
0.0186125
0.0198464
0.0209965
0.0220512
0.0230011
0.02384
0.0245641
0.0251721
0.0256646
0.0260441
0.0263149
0.0264817
0.0265505
0.0265281
0.0264218
0.0262398
0.0259908
0.0256853
0.0253424
0.0249851
0.0246291
0.0242871
0.0239703
0.0236892
0.023453
0.0232712
0.0231527
0.0231057
0.0231389
0.023262
0.0234848
0.0238195
0.024282
0.024893
0.02568
0.0266776
0.0279263
0.0294693
0.0313466
0.0335884
0.036211
0.0392183
0.0426004
0.046328
0.0503532
0.0545998
0.0589842
0.0634336
0.0679078
0.0723852
0.0768341
0.0812238
0.0855282
0.0897246
0.0937942
0.0977223
0.101497
0.10511
0.108554
0.111824
4.84617e-06
0.000121228
0.00031762
0.00054462
0.000750108
0.000913808
0.00104794
0.001162
0.00126196
0.00135163
0.00143359
0.00150967
0.00158122
0.0016493
0.00171478
0.00177839
0.00184078
0.00190252
0.00196415
0.00202617
0.00208905
0.00215325
0.00221919
0.00228726
0.00235784
0.00243127
0.00250786
0.00258789
0.00267165
0.00275939
0.00285138
0.00294795
0.00304947
0.0031564
0.00326936
0.0033892
0.00351703
0.00365441
0.0038034
0.00396688
0.00414887
0.00435007
0.0045724
0.00482402
0.00511281
0.00544815
0.00584082
0.00630265
0.00684586
0.0074828
0.00822453
0.00907544
0.0100412
0.0111233
0.0122911
0.0135099
0.0147401
0.0159636
0.0171603
0.0183103
0.0193971
0.0204077
0.0213317
0.0221613
0.0228909
0.0235168
0.0240372
0.0244522
0.0247631
0.0249724
0.0250842
0.0251032
0.0250356
0.0248895
0.0246795
0.0244265
0.0241486
0.0238613
0.0235785
0.0233133
0.0230781
0.0228844
0.0227438
0.0226668
0.0226642
0.0227489
0.0229341
0.0232347
0.0236703
0.0242665
0.0250558
0.0260782
0.0273787
0.0290032
0.030991
0.0333687
0.0361413
0.0392908
0.0427943
0.0466228
0.0507251
0.0550324
0.0594703
0.0639673
0.0684692
0.0729495
0.0773865
0.0817503
0.0860162
0.0901645
0.0941795
0.0980485
0.101762
0.105312
0.108694
0.111904
5.55901e-06
0.000137674
0.00035299
0.000592013
0.000803713
0.000970947
0.00110733
0.00122291
0.00132389
0.0014142
0.00149652
0.00157272
0.0016442
0.00171199
0.001777
0.00183998
0.00190159
0.00196245
0.0020231
0.00208407
0.00214585
0.00220893
0.00227376
0.00234075
0.00241029
0.00248273
0.00255837
0.00263749
0.00272031
0.00280704
0.00289786
0.00299295
0.00309252
0.00319681
0.00330611
0.00342085
0.00354158
0.00366905
0.00380429
0.00394865
0.00410399
0.00427269
0.00445833
0.00466353
0.00488841
0.00513758
0.00541835
0.00573763
0.00610366
0.00652507
0.00701079
0.00756923
0.0082082
0.00893323
0.00974399
0.0106402
0.0116229
0.0126666
0.013746
0.0148285
0.0158966
0.016935
0.017928
0.0188611
0.0197231
0.020505
0.0211999
0.0218026
0.02231
0.02272
0.0230326
0.0232488
0.0233714
0.0234051
0.0233581
0.0232463
0.0230879
0.0228995
0.0226966
0.0224937
0.0223046
0.0221426
0.0220212
0.0219535
0.0219518
0.0220305
0.0222067
0.0224993
0.0229317
0.0235342
0.024345
0.0254092
0.0267758
0.0284918
0.030594
0.0331031
0.0360111
0.0392909
0.0429104
0.0468231
0.0509713
0.0552912
0.0597201
0.0642014
0.0686885
0.0731447
0.0775401
0.0818491
0.08605
0.0901253
0.0940607
0.0978449
0.10147
0.104931
0.108228
0.111367
6.35447e-06
0.000155659
0.000390222
0.000640971
0.000858392
0.00102894
0.00116749
0.00128454
0.0013865
0.00147745
0.0015601
0.00163635
0.00170764
0.00177506
0.00183951
0.00190176
0.00196251
0.00202238
0.002082
0.00214185
0.00220247
0.0022644
0.00232813
0.00239412
0.00246277
0.00253444
0.00260947
0.00268811
0.00277059
0.00285707
0.0029477
0.00304258
0.00314182
0.00324554
0.00335386
0.00346698
0.00358518
0.00370883
0.00383845
0.00397474
0.00411866
0.00427145
0.00443472
0.00461051
0.00480148
0.00501164
0.00524178
0.00549231
0.00576959
0.00607915
0.0064268
0.00681902
0.00726197
0.00776145
0.0083222
0.0089479
0.00964057
0.0103966
0.0112108
0.0120833
0.0129969
0.0139313
0.0148653
0.0157757
0.0166521
0.0174826
0.0182552
0.0189601
0.0195898
0.0201383
0.0206013
0.0209763
0.0212628
0.0214616
0.021574
0.0216102
0.0215863
0.0215183
0.021421
0.0213094
0.0211976
0.0210998
0.02103
0.0210027
0.0210326
0.0211356
0.0213305
0.0216404
0.0220931
0.0227238
0.0235759
0.024699
0.0261446
0.0279591
0.0301755
0.0328031
0.0358226
0.0392016
0.0428996
0.0468631
0.0510326
0.0553476
0.0597506
0.0641907
0.0686243
0.0730155
0.077335
0.0815587
0.0856672
0.0896449
0.0934797
0.0971617
0.100683
0.104043
0.107248
0.110303
7.23233e-06
0.000175115
0.000428479
0.000690705
0.000913523
0.00108719
0.00122781
0.00134628
0.00144921
0.00154078
0.00162374
0.00170005
0.00177114
0.00183814
0.00190196
0.00196339
0.00202314
0.00208187
0.00214018
0.0021987
0.00225799
0.00231865
0.00238125
0.00244625
0.00251404
0.00258505
0.00265964
0.00273808
0.00282057
0.00290727
0.0029983
0.00309372
0.00319358
0.00329791
0.00340674
0.00352015
0.00363824
0.00376119
0.00388925
0.00402279
0.00416232
0.00430851
0.00446224
0.00462464
0.00479715
0.0049816
0.00518011
0.0053955
0.00563105
0.00588646
0.00616325
0.00646727
0.00680237
0.00717299
0.00758349
0.0080375
0.00853805
0.00908672
0.00968378
0.0103288
0.0110172
0.0117418
0.0124963
0.0132763
0.014064
0.0148434
0.0155955
0.0163089
0.0169751
0.0175842
0.0181289
0.0186036
0.0190041
0.0193279
0.0195704
0.0197358
0.0198367
0.0198871
0.0199008
0.0198911
0.0198713
0.0198551
0.0198568
0.019891
0.0199736
0.0201222
0.0203579
0.0207063
0.0211994
0.0218774
0.022788
0.0239843
0.0255186
0.0274348
0.0297599
0.0324887
0.0355943
0.0390428
0.0427862
0.0467676
0.0509277
0.0552084
0.0595566
0.0639251
0.0682739
0.0725698
0.0767857
0.0808998
0.0848949
0.0887572
0.0924768
0.096046
0.0994593
0.102712
0.10581
0.108765
8.18258e-06
0.000195819
0.000467227
0.000740613
0.000968536
0.00114517
0.00128777
0.00140762
0.00151149
0.00160363
0.00168686
0.00176316
0.00183397
0.00190045
0.00196352
0.00202399
0.00208261
0.00214006
0.002197
0.00225408
0.00231194
0.0023712
0.00243245
0.00249623
0.00256305
0.00263339
0.00270768
0.00278608
0.00286878
0.002956
0.00304781
0.00314423
0.00324527
0.00335092
0.00346114
0.00357592
0.00369526
0.00381922
0.0039479
0.00408147
0.0042202
0.00436445
0.00451472
0.00467166
0.00483608
0.005009
0.00519168
0.00538565
0.00559272
0.00581491
0.00605495
0.00631485
0.00659376
0.00689381
0.0072193
0.00757245
0.00795606
0.00837243
0.00882287
0.0093082
0.00982778
0.0103794
0.0109602
0.0115663
0.0121908
0.0128265
0.0134706
0.0141127
0.0147393
0.0153322
0.0158859
0.0163925
0.0168458
0.0172411
0.0175695
0.0178289
0.0180279
0.0181777
0.01829
0.0183764
0.0184484
0.0185178
0.0185981
0.0187037
0.0188508
0.0190582
0.0193486
0.0197503
0.0202992
0.021039
0.0220211
0.0233004
0.0249284
0.0269449
0.0293641
0.0321712
0.0353377
0.0388244
0.042579
0.0465439
0.0506611
0.0548758
0.0591385
0.0634062
0.0676425
0.0718175
0.075907
0.0798916
0.0837563
0.0874897
0.0910833
0.0945313
0.09783
0.100976
0.103968
0.106813
9.19566e-06
0.000217467
0.000505911
0.000790077
0.00102285
0.00120233
0.00134684
0.00146801
0.00157278
0.00166545
0.00174888
0.00182506
0.00189547
0.00196127
0.00202342
0.00208275
0.00214004
0.00219602
0.00225141
0.0023069
0.0023632
0.00242098
0.00248088
0.00254351
0.00260941
0.00267906
0.00275285
0.00283111
0.00291407
0.00300195
0.00309484
0.00319252
0.00329508
0.00340248
0.0035146
0.00363136
0.00375273
0.00387866
0.00400916
0.00414428
0.00428415
0.00442894
0.00457893
0.00473448
0.00489608
0.00506431
0.00523991
0.00542376
0.00561693
0.00582064
0.00603633
0.00626555
0.00650979
0.00677121
0.00705083
0.00734734
0.0076623
0.0079984
0.00835632
0.00873755
0.00914265
0.00957068
0.0100203
0.0104897
0.0109757
0.0114748
0.0119837
0.0124977
0.0130119
0.0135281
0.014033
0.0145116
0.0149587
0.0153696
0.0157337
0.0160447
0.0163071
0.0165285
0.0167173
0.0168827
0.0170348
0.0171835
0.0173398
0.0175175
0.0177326
0.0180043
0.0183569
0.018821
0.0194352
0.0202464
0.021308
0.0226746
0.024395
0.0265027
0.0289977
0.0318584
0.0350573
0.0385498
0.0422819
0.0461966
0.0502387
0.0543569
0.0585058
0.0626465
0.0667463
0.0707788
0.0747226
0.0785611
0.0822815
0.0858743
0.0893327
0.0926524
0.0958305
0.0988661
0.101756
0.104501
1.02541e-05
0.000239709
0.000543987
0.000838483
0.00107588
0.00125808
0.00140444
0.00152691
0.00163251
0.00172563
0.00180916
0.00188511
0.00195496
0.00201991
0.00208093
0.00213889
0.00219462
0.00224891
0.00230252
0.00235623
0.0024108
0.00246697
0.00252546
0.00258691
0.00265191
0.00272097
0.0027945
0.00287282
0.00295616
0.00304466
0.00313839
0.00323735
0.00334155
0.00345105
0.00356534
0.00368441
0.00380823
0.00393668
0.00406965
0.00420716
0.00434923
0.00449591
0.00464735
0.00480373
0.00496532
0.00513246
0.00530557
0.00548517
0.00567187
0.00586637
0.00606948
0.00628208
0.00650513
0.00673969
0.00698674
0.00724692
0.00752127
0.00781024
0.00811207
0.00842737
0.00875825
0.00910293
0.0094607
0.00983095
0.0102119
0.0106015
0.0109976
0.0113982
0.0118012
0.0122064
0.0126131
0.0130234
0.0134207
0.0138015
0.0141568
0.0144786
0.0147684
0.0150306
0.0152704
0.0154939
0.0157088
0.0159236
0.016147
0.0163913
0.0166718
0.0170081
0.0174253