/*--------------------------------*- C++ -*----------------------------------*\
  =========                 |
  \\      /  F ield         | OpenFOAM: The Open Source CFD Toolbox
   \\    /   O peration     | Website:  https://openfoam.org
    \\  /    A nd           | Version:  10
     \\/     M anipulation  |
\*---------------------------------------------------------------------------*/
FoamFile
{
    format      ascii;
    class       volScalarField;
    location    "75000";
    object      yPlus;
}
// * * * * * * * * * * * * * * * * * * * * * * * * * * * * * * * * * * * * * //

dimensions      [0 0 0 0 0 0 0];

internalField   uniform 0;

boundaryField
{
    right
    {
        type            cyclic;
    }
    left
    {
        type            cyclic;
    }
    outerWall
    {
        type            calculated;
        value           nonuniform List<scalar> 
200
(
17.2637
17.2563
17.2547
17.254
17.254
17.255
17.2565
17.2584
17.2604
17.2626
17.2647
17.2669
17.269
17.271
17.2729
17.2747
17.2764
17.278
17.2795
17.2808
17.2821
17.2833
17.2844
17.2855
17.2865
17.2874
17.2883
17.2891
17.2899
17.2906
17.2914
17.2921
17.2927
17.2934
17.294
17.2946
17.2952
17.2958
17.2964
17.2969
17.2975
17.298
17.2985
17.2991
17.2996
17.3001
17.3005
17.301
17.3015
17.3019
17.3023
17.3028
17.3031
17.3035
17.3039
17.3042
17.3045
17.3048
17.305
17.3052
17.3054
17.3055
17.3056
17.3056
17.3056
17.3055
17.3054
17.3054
17.3036
17.3007
17.2973
17.2929
17.2898
17.2828
17.2801
17.2806
17.2824
17.2842
17.2856
17.2853
17.2392
17.2417
17.2494
17.2579
17.2665
17.2755
17.2844
17.2932
17.3015
17.3094
17.3169
17.3238
17.3302
17.336
17.3413
17.346
17.3502
17.3539
17.3571
17.3597
17.3619
17.3635
17.3647
17.3654
17.3656
17.3653
17.3646
17.3633
17.3615
17.3593
17.3564
17.353
17.3489
17.3442
17.3386
17.332
17.3243
17.3147
17.3027
17.2841
17.2866
17.2908
17.2932
17.2946
17.2955
17.296
17.2956
17.2921
17.2877
17.284
17.2816
17.2804
17.28
17.2807
17.2824
17.2844
17.2863
17.2882
17.2897
17.2911
17.2923
17.2933
17.2942
17.295
17.2956
17.2962
17.2966
17.297
17.2974
17.2976
17.2979
17.2981
17.2982
17.2983
17.2984
17.2985
17.2985
17.2985
17.2985
17.2984
17.2983
17.2983
17.2981
17.298
17.2979
17.2977
17.2975
17.2973
17.2971
17.2969
17.2966
17.2963
17.2961
17.2958
17.2954
17.2951
17.2947
17.2943
17.2939
17.2934
17.2929
17.2924
17.2919
17.2913
17.2906
17.2899
17.2892
17.2883
17.2874
17.2863
17.2852
17.2839
17.2824
17.2806
17.2785
17.2759
17.2727
17.2683
17.2622
17.2499
)
;
    }
    stirrerWall
    {
        type            calculated;
        value           nonuniform List<scalar> 0();
    }
    top
    {
        type            empty;
    }
    bottom
    {
        type            empty;
    }
    procBoundary2to3
    {
        type            processor;
        value           uniform 0;
    }
}


// ************************************************************************* //
