/*--------------------------------*- C++ -*----------------------------------*\
  =========                 |
  \\      /  F ield         | OpenFOAM: The Open Source CFD Toolbox
   \\    /   O peration     | Website:  https://openfoam.org
    \\  /    A nd           | Version:  10
     \\/     M anipulation  |
\*---------------------------------------------------------------------------*/
FoamFile
{
    format      ascii;
    class       volScalarField;
    location    "600";
    object      k;
}
// * * * * * * * * * * * * * * * * * * * * * * * * * * * * * * * * * * * * * //

dimensions      [0 2 -2 0 0 0 0];

internalField   nonuniform List<scalar> 
2000
(
4.78929e-06
0.000144802
0.00115171
0.00382487
0.00817973
0.0134713
0.0187797
0.0238681
0.0291242
0.0351251
0.0428588
0.0558487
0.0853667
0.135997
0.151794
0.14112
0.126429
0.111109
0.100827
0.102582
3.60965e-06
0.000106171
0.000834693
0.0028331
0.00623056
0.0105889
0.015189
0.0197229
0.0245358
0.0304971
0.0397048
0.0594119
0.106456
0.149539
0.147423
0.129542
0.106718
0.0883791
0.0783375
0.0799078
2.61024e-06
7.76176e-05
0.000576638
0.00198033
0.00452548
0.00803641
0.0120157
0.0161341
0.0206951
0.0268714
0.0380193
0.0641536
0.120147
0.147442
0.14099
0.114981
0.0880223
0.070283
0.0613049
0.0623466
1.83036e-06
5.47941e-05
0.000385725
0.00133962
0.00319025
0.0059526
0.00936059
0.013141
0.0175555
0.0241013
0.0375506
0.0717884
0.123937
0.143622
0.134194
0.100286
0.0719575
0.0558683
0.0478477
0.048076
1.26489e-06
3.75393e-05
0.000252589
0.000885581
0.00220478
0.00434492
0.00722994
0.0107021
0.0150568
0.0221376
0.0381584
0.0778311
0.122885
0.138612
0.124475
0.086219
0.0598163
0.0456842
0.0384043
0.0374504
9.03201e-07
2.57355e-05
0.000165809
0.000582158
0.00151237
0.00315415
0.00558013
0.00877577
0.0131433
0.0208872
0.0392378
0.0799833
0.119356
0.132924
0.115004
0.0761475
0.0525653
0.0403327
0.0331917
0.0305967
7.29676e-07
1.91345e-05
0.000116021
0.000395891
0.00104967
0.00230063
0.00432997
0.00728203
0.0117215
0.0202104
0.0401773
0.0783657
0.114492
0.127364
0.10731
0.0712008
0.0506633
0.0396138
0.0319083
0.0272574
7.25816e-07
1.7236e-05
9.57189e-05
0.000296837
0.000762233
0.00171558
0.00340941
0.00614329
0.010687
0.0198885
0.0405311
0.0745533
0.10743
0.121395
0.10089
0.0698648
0.053249
0.0427947
0.0338329
0.0268505
8.80278e-07
1.98016e-05
0.000101103
0.000264846
0.000611274
0.00134596
0.00276442
0.00530264
0.00994496
0.0196803
0.039994
0.0696789
0.0984167
0.112951
0.0970864
0.0730405
0.0597338
0.0488173
0.037955
0.0285748
1.17998e-06
2.60606e-05
0.000126571
0.000289267
0.000571514
0.00115276
0.00235488
0.00471647
0.00937004
0.0192849
0.0385849
0.0639422
0.0883497
0.102417
0.0927254
0.0776983
0.0676449
0.0559332
0.0430254
0.0315205
1.64075e-06
3.48158e-05
0.00016362
0.000354934
0.000621882
0.00110476
0.00214799
0.00434734
0.00889596
0.0185611
0.0365265
0.0579234
0.0781809
0.0912652
0.0869726
0.0785741
0.0727835
0.0621231
0.0480571
0.0349545
2.30941e-06
4.5336e-05
0.000203342
0.000434606
0.000733871
0.00117937
0.00212505
0.00417031
0.00852268
0.0176599
0.0338893
0.0521118
0.0687149
0.0804436
0.0808212
0.0777661
0.074179
0.0651331
0.051411
0.0377055
3.15895e-06
5.87714e-05
0.000237409
0.000499913
0.000858775
0.00135673
0.00227954
0.00419895
0.00829674
0.0167305
0.0311252
0.0468977
0.0605702
0.0705076
0.0733536
0.0734997
0.0720563
0.0646292
0.052304
0.0390254
3.99698e-06
7.13577e-05
0.000263823
0.000535615
0.000932969
0.00157891
0.00257504
0.00446835
0.00832482
0.0159882
0.0286485
0.0426404
0.0541527
0.0624805
0.06603
0.0672822
0.0666753
0.0614254
0.051
0.0386123
4.43372e-06
7.64765e-05
0.000264006
0.000536484
0.000948281
0.00167239
0.00290529
0.00491517
0.00867921
0.015699
0.0268594
0.0393147
0.0497246
0.0571463
0.0606605
0.0625065
0.0624911
0.0577189
0.0480226
0.0361486
4.09663e-06
6.84903e-05
0.000225052
0.000469701
0.000873676
0.00158518
0.00292491
0.00533652
0.00919096
0.0159251
0.026005
0.0371224
0.0466122
0.053588
0.0576122
0.0597319
0.0590057
0.0524608
0.0422589
0.0309088
2.9172e-06
4.66378e-05
0.00014878
0.000326191
0.00065587
0.00127981
0.00247969
0.00484094
0.00881122
0.0155858
0.0249266
0.0351033
0.0437841
0.0502384
0.0541532
0.055726
0.0513708
0.0419984
0.0318829
0.022
1.40729e-06
2.03018e-05
6.26121e-05
0.000145931
0.000320392
0.000683318
0.00141709
0.00291846
0.0059463
0.010728
0.0184396
0.0275123
0.0352415
0.0401506
0.0411852
0.0380058
0.0302817
0.0224306
0.0159954
0.00981427
3.86642e-07
4.1184e-06
1.11253e-05
2.65834e-05
6.09592e-05
0.000137236
0.000303289
0.000662266
0.00145928
0.00322389
0.00601914
0.00963373
0.0128028
0.0136781
0.0120324
0.00851242
0.00601279
0.00400603
0.00273614
0.00314248
1.69125e-08
1.71138e-07
4.00796e-07
9.70201e-07
2.27541e-06
5.2588e-06
1.19369e-05
2.68544e-05
6.0763e-05
0.000139079
0.000330782
0.000609233
0.000823388
0.000790295
0.000588608
0.000380691
0.000287113
0.000199335
0.000127763
0.000363267
0.122279
0.168394
0.258253
0.413777
0.654456
0.981201
1.37085
1.79355
2.22188
2.6385
3.05767
3.54679
4.24469
5.43368
7.85284
13.0934
25.8637
58.2006
158.065
629.935
0.0976729
0.140709
0.227021
0.380479
0.622298
0.952575
1.34566
1.77136
2.20275
2.62241
3.04472
3.53621
4.23704
5.42554
7.84974
13.1005
25.9629
58.5126
155.502
602.248
0.0776804
0.116876
0.199129
0.350417
0.593464
0.927343
1.32387
1.75277
2.18762
2.61028
3.035
3.52744
4.23001
5.4163
7.84417
13.1025
26.0639
59.0503
154.936
580.237
0.0606324
0.0955946
0.173472
0.322626
0.567338
0.905268
1.30559
1.73796
2.1762
2.60138
3.02788
3.52048
4.22432
5.40731
7.83776
13.1008
26.1564
59.7071
156.328
566.282
0.0468616
0.0771778
0.150405
0.297595
0.54454
0.887035
1.29136
1.7272
2.16868
2.59598
3.02374
3.51576
4.22041
5.39931
7.83194
13.0981
26.2413
60.455
159.573
564.796
0.0365786
0.0620165
0.130543
0.276256
0.526183
0.873665
1.28198
1.72104
2.16532
2.59413
3.02255
3.5134
4.21855
5.393
7.82795
13.0965
26.3147
61.2273
164.359
579.361
0.0296982
0.0503229
0.114473
0.259591
0.513367
0.865964
1.27783
1.71946
2.16582
2.59543
3.02398
3.51322
4.21874
5.38887
7.82635
13.1001
26.3754
61.9619
170.046
609.592
0.0259049
0.0421882
0.102816
0.248698
0.507226
0.864615
1.2791
1.72229
2.16979
2.59948
3.02769
3.51498
4.22066
5.38691
7.82658
13.1102
26.4229
62.6025
175.532
642.916
0.0247179
0.0376777
0.0963515
0.244898
0.509025
0.87039
1.28615
1.72968
2.17729
2.60633
3.03371
3.51873
4.22425
5.3873
7.82866
13.1246
26.4621
63.099
180.439
676.64
0.0254605
0.0360923
0.0949468
0.248598
0.519336
0.884076
1.29968
1.74214
2.18855
2.61589
3.0418
3.52447
4.22951
5.38991
7.83278
13.1394
26.5027
63.443
184.418
708.247
0.0270233
0.0362208
0.0977257
0.259912
0.53883
0.905751
1.31889
1.75836
2.20219
2.62689
3.05081
3.53104
4.23549
5.39313
7.8391
13.1544
26.5437
63.6495
187.127
734.372
0.028601
0.0375487
0.104957
0.279563
0.567561
0.934405
1.34205
1.77642
2.21639
2.63773
3.05933
3.53731
4.24101
5.39662
7.84497
13.1702
26.5835
63.7551
188.317
751.031
0.0295362
0.0397435
0.117298
0.308256
0.604972
0.968388
1.36732
1.79486
2.23017
2.64789
3.06691
3.54287
4.24569
5.40015
7.84969
13.1864
26.6255
63.8144
187.987
754.415
0.0293361
0.0428376
0.136091
0.34658
0.649554
1.00485
1.39182
1.81112
2.24126
2.65551
3.07215
3.54672
4.24868
5.40316
7.85216
13.2025
26.6701
63.894
186.634
743.781
0.0275335
0.0473611
0.163099
0.394115
0.697764
1.03888
1.41106
1.82171
2.24714
2.65889
3.07392
3.54813
4.24926
5.40515
7.8508
13.2177
26.7112
64.0586
185.73
731.874
0.023747
0.0542735
0.198832
0.447931
0.744438
1.06633
1.42288
1.82541
2.24698
2.65749
3.07193
3.54691
4.247
5.40574
7.84485
13.2317
26.7352
64.3131
185.292
720.627
0.0180336
0.0639933
0.240604
0.501916
0.782292
1.08156
1.42364
1.81983
2.23925
2.65042
3.06558
3.5427
4.2415
5.40442
7.83285
13.2433
26.7202
64.6518
185.071
710.496
0.0125875
0.0736395
0.283738
0.549222
0.806315
1.0825
1.41287
1.80521
2.22478
2.63734
3.05459
3.53522
4.23236
5.40059
7.81362
13.2518
26.6457
65.0717
184.659
701.676
0.00909427
0.079821
0.326199
0.58503
0.814212
1.06877
1.39218
1.78389
2.20504
2.61973
3.0381
3.52401
4.21861
5.39216
7.78537
13.2476
26.526
65.5798
184.041
694.412
0.00603926
0.091965
0.373067
0.607528
0.804685
1.04541
1.36412
1.75618
2.18038
2.59814
3.01716
3.50643
4.19875
5.37683
7.74686
13.1969
26.3673
65.7084
183.744
689.003
0.00566635
0.126711
0.432648
0.615189
0.788495
1.01977
1.33553
1.72936
2.15705
2.57694
2.9947
3.48184
4.16943
5.35267
7.69419
13.1125
26.1587
65.3842
180.447
683.902
0.00577039
0.13324
0.436531
0.608173
0.775169
1.0029
1.31748
1.71347
2.14467
2.56704
2.9851
3.47051
4.15553
5.33605
7.67151
13.0739
26.1192
65.28
180.701
685.43
0.00609242
0.139194
0.433345
0.591644
0.750038
0.97304
1.2871
1.68811
2.12639
2.55366
2.97258
3.45531
4.1361
5.31192
7.64149
13.0264
26.0879
65.2304
181.726
689.269
0.00650787
0.144919
0.426475
0.571954
0.721804
0.940532
1.25465
1.66173
2.10811
2.54097
2.96082
3.44064
4.11639
5.28659
7.6096
12.9752
26.0541
65.1783
182.969
693.776
0.00696527
0.149944
0.416234
0.549851
0.691671
0.906786
1.22173
1.63575
2.09103
2.52994
2.95075
3.42726
4.09723
5.26083
7.5765
12.9208
26.0152
65.1154
184.325
698.734
0.00744997
0.153889
0.402861
0.525775
0.660284
0.872503
1.18907
1.61078
2.07568
2.52104
2.94279
3.4156
4.0791
5.23513
7.54273
12.8637
25.9704
65.038
185.748
704.036
0.00796313
0.156525
0.386661
0.500098
0.628185
0.838435
1.15731
1.5873
2.06243
2.51457
2.93726
3.40601
4.06243
5.21001
7.50887
12.8047
25.9198
64.9434
187.209
709.589
0.00851482
0.157717
0.368048
0.47322
0.595954
0.805117
1.12727
1.56594
2.05162
2.51082
2.93444
3.39881
4.04762
5.18597
7.47553
12.7448
25.8639
64.8293
188.683
715.291
0.00912248
0.157391
0.347537
0.445658
0.564268
0.773214
1.09952
1.54741
2.04369
2.51003
2.93459
3.39432
4.03507
5.16355
7.4434
12.6847
25.8029
64.6933
190.146
721.033
0.00981195
0.155535
0.325741
0.418013
0.533858
0.743493
1.07478
1.53211
2.03915
2.51249
2.93794
3.39279
4.02517
5.1433
7.41318
12.6255
25.7376
64.5337
191.576
726.703
0.0106201
0.152226
0.303331
0.390953
0.505501
0.716792
1.05382
1.5206
2.03819
2.51849
2.94469
3.39446
4.01828
5.12577
7.38559
12.5682
25.6686
64.3487
192.953
732.183
0.0115985
0.14764
0.28103
0.365202
0.480017
0.693993
1.03747
1.51346
2.04108
2.52804
2.95495
3.39961
4.01469
5.11154
7.36103
12.5143
25.5966
64.1369
194.264
737.367
0.0128192
0.142061
0.259599
0.341552
0.458279
0.676031
1.02654
1.51126
2.04806
2.54118
2.96869
3.40825
4.01461
5.10127
7.33976
12.4654
25.5221
63.8972
195.496
742.164
0.0143832
0.135882
0.239827
0.32086
0.441199
0.663872
1.02188
1.51454
2.0593
2.55785
2.98585
3.42042
4.01822
5.09504
7.3226
12.4226
25.4456
63.6286
196.641
746.497
0.0164323
0.12961
0.222522
0.30405
0.429704
0.658483
1.02425
1.52376
2.07488
2.57791
3.00627
3.43607
4.02561
5.09308
7.31009
12.3869
25.3676
63.3299
197.694
750.302
0.0191671
0.123869
0.2085
0.292081
0.424707
0.660783
1.03438
1.53932
2.09478
2.60107
3.02965
3.45502
4.03679
5.09561
7.30266
12.3591
25.2884
62.9997
198.653
753.534
0.0228699
0.119392
0.198578
0.285921
0.427074
0.671586
1.0528
1.56143
2.11882
2.62692
3.05556
3.477
4.05166
5.10267
7.30067
12.3392
25.2086
62.6358
199.516
756.166
0.0279365
0.116996
0.193555
0.286508
0.437591
0.691538
1.07983
1.59005
2.14664
2.65487
3.08342
3.5016
4.07001
5.11422
7.30435
12.3257
25.1302
62.2339
200.278
758.183
0.0349154
0.117519
0.194177
0.294667
0.456941
0.721151
1.11561
1.62503
2.17783
2.6843
3.11254
3.52829
4.09146
5.13007
7.31377
12.3181
25.0541
61.7905
200.929
759.587
0.0445573
0.12176
0.201122
0.311112
0.485482
0.76046
1.15965
1.66564
2.21157
2.71429
3.14205
3.55634
4.11547
5.14986
7.3288
12.3162
24.9827
61.3147
201.491
760.498
0.0632725
0.133712
0.218184
0.341323
0.528619
0.814527
1.21584
1.71426
2.2483
2.74425
3.17175
3.58631
4.14281
5.17405
7.34879
12.3147
24.8985
60.6916
201.914
761.495
0.14144
0.191188
0.268341
0.390827
0.587107
0.882658
1.28717
1.77586
2.28947
2.765
3.18242
3.59643
4.16192
5.19664
7.39006
12.3244
24.6765
59.6445
190.61
751.139
0.168083
0.214591
0.293729
0.423214
0.627123
0.928807
1.33428
1.81635
2.31768
2.781
3.19195
3.60551
4.17785
5.21947
7.42359
12.3603
24.6874
58.9015
182.503
737.734
0.175821
0.230252
0.317113
0.455278
0.667912
0.976141
1.3825
1.85724
2.34563
2.79657
3.20072
3.61384
4.19265
5.24246
7.45687
12.4032
24.7115
58.3814
176.742
723.2
0.182127
0.241198
0.3346
0.480344
0.700364
1.01308
1.42033
1.88887
2.36687
2.80794
3.20673
3.61996
4.20594
5.26472
7.4907
12.4494
24.7547
58.0118
172.363
707.177
0.188004
0.251296
0.350781
0.502645
0.727287
1.04289
1.45001
1.91301
2.3823
2.81524
3.20961
3.62366
4.21748
5.28577
7.52395
12.4969
24.812
57.7591
168.611
689.079
0.192966
0.260494
0.364734
0.521928
0.751193
1.06828
1.47183
1.93006
2.39208
2.81838
3.20922
3.62577
4.22786
5.30606
7.55679
12.5452
24.8812
57.6167
165.309
668.642
0.198141
0.268799
0.376699
0.537913
0.770442
1.08856
1.48911
1.94106
2.39593
2.81692
3.20493
3.62652
4.237
5.32519
7.58871
12.5935
24.9589
57.5854
162.528
646.049
0.203414
0.276103
0.386538
0.550415
0.785254
1.1039
1.50117
1.94625
2.39464
2.81052
3.19819
3.62625
4.24502
5.34321
7.61952
12.6412
25.0421
57.6669
160.534
622.15
0.208418
0.282248
0.39398
0.559303
0.795697
1.11458
1.50851
1.94693
2.38864
2.80145
3.19061
3.62508
4.25192
5.36005
7.64899
12.6878
25.1271
57.8531
159.515
599.026
0.212982
0.287047
0.398924
0.564691
0.801894
1.12061
1.51152
1.94435
2.3807
2.79142
3.18285
3.62345
4.25769
5.37563
7.67697
12.733
25.2098
58.1269
159.755
580.504
0.216982
0.290327
0.401281
0.566596
0.803873
1.12211
1.51051
1.93912
2.3714
2.7808
3.17457
3.62105
4.26278
5.39029
7.70354
12.7768
25.2867
58.4603
161.465
571.346
0.220056
0.29174
0.40078
0.564834
0.80167
1.11948
1.50618
1.93182
2.36124
2.76984
3.16585
3.61775
4.26659
5.40363
7.73014
12.8197
25.3548
58.8245
164.758
578.263
0.221658
0.290734
0.397075
0.559295
0.79558
1.11341
1.49932
1.92304
2.35044
2.75858
3.15665
3.61353
4.26914
5.41515
7.75485
12.8633
25.4122
59.1991
169.897
619.492
0.221058
0.286744
0.389939
0.550179
0.786207
1.10471
1.4906
1.9131
2.33908
2.74697
3.14698
3.60853
4.27054
5.4249
7.77751
12.905
25.4608
59.39
174.324
665.059
0.217398
0.279327
0.379321
0.537891
0.774239
1.09411
1.48052
1.90232
2.32731
2.73508
3.13693
3.60284
4.27087
5.43281
7.79785
12.9449
25.5074
59.3533
177.1
706.46
0.209668
0.26794
0.365126
0.522842
0.760335
1.08217
1.46934
1.89073
2.3149
2.72268
3.12641
3.59635
4.27001
5.43857
7.81535
12.9821
25.5524
59.0939
177.201
732.57
0.19684
0.252039
0.347598
0.505682
0.745251
1.0694
1.45717
1.87803
2.30149
2.70943
3.11517
3.5889
4.26781
5.44199
7.82973
13.0153
25.6012
58.6757
173.339
713.695
0.179395
0.232469
0.327742
0.487092
0.728632
1.05438
1.44249
1.86212
2.28525
2.69379
3.10218
3.57993
4.26421
5.44322
7.84096
13.0441
25.661
58.3059
168.639
688.865
0.1573
0.207707
0.302261
0.461554
0.703207
1.02888
1.41672
1.83609
2.26028
2.67163
3.08473
3.56756
4.25779
5.44136
7.84836
13.0661
25.7309
58.0404
162.695
660.056
0.0209746
0.099585
0.133853
0.135631
0.136668
0.139127
0.14204
0.145715
0.150465
0.155941
0.161825
0.167975
0.174149
0.179835
0.18431
0.186541
0.184914
0.176807
0.16089
0.136271
0.0108735
0.0785388
0.116479
0.114237
0.110706
0.109581
0.110178
0.11215
0.115673
0.120577
0.126484
0.133186
0.140465
0.14794
0.155132
0.161235
0.164803
0.162853
0.151504
0.13075
0.0063199
0.0678218
0.113253
0.108274
0.101049
0.09683
0.0950502
0.0949771
0.0964397
0.099782
0.104616
0.110573
0.117522
0.125313
0.133766
0.142424
0.150075
0.154358
0.150173
0.135614
0.00381561
0.0604619
0.114111
0.110115
0.100472
0.0936706
0.0896213
0.0874426
0.0867199
0.087831
0.0907371
0.0948944
0.100172
0.106551
0.114324
0.12403
0.135488
0.14685
0.151421
0.143389
0.00239693
0.0523571
0.115388
0.116369
0.105799
0.0969909
0.0910984
0.087139
0.0844578
0.0830175
0.0835459
0.0853822
0.0882251
0.0921077
0.0972565
0.104284
0.114466
0.129188
0.147292
0.151806
0.00159596
0.0416312
0.111236
0.123572
0.114494
0.10466
0.0976001
0.0924883
0.0885469
0.0851398
0.0836236
0.0835542
0.0842734
0.0856964
0.0871127
0.0889822
0.0927044
0.101075
0.117945
0.13966
0.00109369
0.0290606
0.0998047
0.127861
0.124387
0.114926
0.107367
0.1017
0.0970735
0.0928221
0.0900986
0.0891125
0.0883545
0.0875193
0.0857021
0.083231
0.0808443
0.0803002
0.0855594
0.0994777
0.000745421
0.0201144
0.0802234
0.120441
0.130061
0.124949
0.118857
0.114142
0.110442
0.106766
0.104101
0.102846
0.0993743
0.0946734
0.0891233
0.0831194
0.0771829
0.071845
0.0688414
0.0710605
0.000498368
0.0136716
0.0601218
0.102338
0.122911
0.126961
0.125438
0.123097
0.121178
0.118798
0.117536
0.117356
0.111535
0.101685
0.0921252
0.082899
0.07459
0.06713
0.0608874
0.05655
0.00032306
0.00900246
0.0429107
0.0803117
0.105518
0.117247
0.121185
0.121764
0.121036
0.119269
0.117911
0.116021
0.109813
0.0998428
0.0891198
0.0788629
0.0696548
0.0614686
0.0542411
0.047905
0.000201673
0.00570709
0.0291585
0.0592666
0.0836704
0.0991171
0.107504
0.111324
0.112268
0.11108
0.108476
0.104463
0.0981312
0.0896113
0.0802058
0.0708927
0.062292
0.0544561
0.0473475
0.0408699
0.000120607
0.00346344
0.0188132
0.0412996
0.0622304
0.077746
0.0878683
0.0937531
0.0963201
0.0962074
0.0938938
0.089689
0.0838487
0.0766798
0.0689042
0.0611146
0.0537409
0.0468973
0.0405682
0.0346051
6.8748e-05
0.00200052
0.0114337
0.027142
0.0435295
0.0571478
0.0669889
0.0733869
0.0767932
0.0775797
0.0761192
0.0728068
0.0682298
0.0627357
0.0567818
0.0507526
0.0448806
0.0392283
0.0338751
0.0287241
3.70036e-05
0.00108874
0.00647307
0.0166036
0.0284944
0.0394015
0.0479418
0.0538409
0.0573294
0.0586649
0.0580753
0.0559109
0.0527585
0.0489749
0.0448056
0.04045
0.0360205
0.0315755
0.0271763
0.0228677
1.84446e-05
0.000547178
0.00335414
0.00923191
0.0170241
0.0250078
0.0318867
0.0370137
0.0402747
0.0418388
0.0419232
0.0407844
0.0388324
0.0364492
0.0336721
0.0305848
0.0272548
0.0237597
0.0202036
0.0167118
8.15514e-06
0.000243243
0.00152972
0.00448242
0.00888119
0.013964
0.0188705
0.02295
0.0258687
0.0275615
0.0281201
0.0277116
0.0265606
0.0250457
0.0231179
0.0208444
0.0183056
0.0156173
0.0129626
0.0104415
2.92795e-06
8.79283e-05
0.000568515
0.00177576
0.00379727
0.00643745
0.00931329
0.012
0.0141554
0.0155815
0.016221
0.0161155
0.0153882
0.0143087
0.012954
0.0113933
0.00971251
0.00801785
0.00645232
0.00504419
6.96601e-07
2.07673e-05
0.000139765
0.000487018
0.00116966
0.00218697
0.00342716
0.00469451
0.00577579
0.00650939
0.00681189
0.00667679
0.00618272
0.00551318
0.00480405
0.00407425
0.00335275
0.00267852
0.00209002
0.00157838
1.13273e-07
3.29383e-06
2.09018e-05
7.27938e-05
0.000196425
0.000422434
0.00071902
0.00102278
0.00127056
0.00141441
0.00143173
0.00133003
0.00115213
0.000977803
0.00082265
0.000676985
0.000539943
0.000416226
0.000310258
0.000217821
1.06875e-08
2.50286e-07
1.13672e-06
3.47782e-06
8.48147e-06
1.71548e-05
3.01012e-05
4.38603e-05
5.39884e-05
5.81204e-05
5.59836e-05
4.9217e-05
4.07995e-05
3.39425e-05
2.83746e-05
2.32179e-05
1.84163e-05
1.41179e-05
1.04384e-05
7.25527e-06
)
;

boundaryField
{
    right
    {
        type            cyclic;
    }
    left
    {
        type            cyclic;
    }
    outerWall
    {
        type            kqRWallFunction;
        value           nonuniform List<scalar> 
60
(
629.935
602.248
580.237
566.282
564.796
579.361
609.592
642.916
676.64
708.247
734.372
751.031
754.415
743.781
731.874
720.627
710.496
701.676
694.412
689.003
683.902
685.43
689.269
693.776
698.734
704.036
709.589
715.291
721.033
726.703
732.183
737.367
742.164
746.497
750.302
753.534
756.166
758.183
759.587
760.498
761.495
751.139
737.734
723.2
707.177
689.079
668.642
646.049
622.15
599.026
580.504
571.346
578.263
619.492
665.059
706.46
732.57
713.695
688.865
660.056
)
;
    }
    stirrerWall
    {
        type            kqRWallFunction;
        value           nonuniform List<scalar> 
100
(
4.78929e-06
3.60965e-06
2.61024e-06
1.83036e-06
1.26489e-06
9.03201e-07
7.29676e-07
7.25816e-07
8.80278e-07
1.17998e-06
1.64075e-06
2.30941e-06
3.15895e-06
3.99698e-06
4.43372e-06
4.09663e-06
2.9172e-06
1.40729e-06
3.86642e-07
1.69125e-08
1.69125e-08
1.71138e-07
4.00796e-07
9.70201e-07
2.27541e-06
5.2588e-06
1.19369e-05
2.68544e-05
6.0763e-05
0.000139079
0.000330782
0.000609233
0.000823388
0.000790295
0.000588608
0.000380691
0.000287113
0.000199335
0.000127763
0.000363267
0.00566635
0.00577039
0.00609242
0.00650787
0.00696527
0.00744997
0.00796313
0.00851482
0.00912248
0.00981195
0.0106201
0.0115985
0.0128192
0.0143832
0.0164323
0.0191671
0.0228699
0.0279365
0.0349154
0.0445573
0.0209746
0.0108735
0.0063199
0.00381561
0.00239693
0.00159596
0.00109369
0.000745421
0.000498368
0.00032306
0.000201673
0.000120607
6.8748e-05
3.70036e-05
1.84446e-05
8.15514e-06
2.92795e-06
6.96601e-07
1.13273e-07
1.06875e-08
1.06875e-08
2.50286e-07
1.13672e-06
3.47782e-06
8.48147e-06
1.71548e-05
3.01012e-05
4.38603e-05
5.39884e-05
5.81204e-05
5.59836e-05
4.9217e-05
4.07995e-05
3.39425e-05
2.83746e-05
2.32179e-05
1.84163e-05
1.41179e-05
1.04384e-05
7.25527e-06
)
;
    }
    top
    {
        type            empty;
    }
    bottom
    {
        type            empty;
    }
}


// ************************************************************************* //
