/*--------------------------------*- C++ -*----------------------------------*\
  =========                 |
  \\      /  F ield         | OpenFOAM: The Open Source CFD Toolbox
   \\    /   O peration     | Website:  https://openfoam.org
    \\  /    A nd           | Version:  10
     \\/     M anipulation  |
\*---------------------------------------------------------------------------*/
FoamFile
{
    format      ascii;
    class       volScalarField;
    location    "600";
    object      k;
}
// * * * * * * * * * * * * * * * * * * * * * * * * * * * * * * * * * * * * * //

dimensions      [0 2 -2 0 0 0 0];

internalField   nonuniform List<scalar> 
420
(
2.22045e-16
2.22045e-16
2.22045e-16
2.22045e-16
2.22045e-16
2.37143e-16
3.51514e-16
5.00585e-16
6.14918e-16
6.8788e-16
2.22045e-16
2.22045e-16
2.22045e-16
2.22045e-16
2.22045e-16
2.22045e-16
3.14171e-16
4.20089e-16
4.80658e-16
5.07421e-16
2.22045e-16
2.22045e-16
2.22045e-16
2.22045e-16
2.22045e-16
2.22045e-16
2.75859e-16
3.44545e-16
3.66058e-16
3.73229e-16
2.22045e-16
2.22045e-16
2.22045e-16
2.22045e-16
2.22045e-16
2.22045e-16
2.35815e-16
2.72274e-16
2.72381e-16
2.75619e-16
2.22045e-16
2.22045e-16
2.22045e-16
2.22045e-16
2.22045e-16
2.22045e-16
2.22045e-16
2.22045e-16
2.22045e-16
2.22045e-16
2.22045e-16
2.22045e-16
2.22045e-16
2.22045e-16
2.22045e-16
2.22045e-16
2.22045e-16
2.22045e-16
2.22045e-16
2.22045e-16
2.22045e-16
2.22045e-16
2.22045e-16
2.22045e-16
2.22045e-16
2.22045e-16
2.22045e-16
2.22045e-16
2.22045e-16
2.22045e-16
2.22045e-16
2.22045e-16
2.22045e-16
2.22045e-16
2.22045e-16
2.22045e-16
2.22045e-16
2.22045e-16
2.22045e-16
2.22045e-16
2.22045e-16
2.22045e-16
2.22045e-16
2.22045e-16
2.22045e-16
2.22045e-16
2.22045e-16
2.22045e-16
2.22045e-16
2.22045e-16
2.22045e-16
2.22045e-16
2.22045e-16
2.22045e-16
2.22045e-16
2.22045e-16
2.22045e-16
2.22045e-16
2.22045e-16
2.22045e-16
8.54945e-16
1.41652e-15
2.96155e-15
5.88884e-15
9.20574e-15
1.06572e-14
8.35024e-15
4.89204e-15
2.56372e-15
1.30646e-15
6.57005e-16
1.23216e-15
2.88248e-15
5.96849e-15
9.28166e-15
1.06729e-14
8.33486e-15
4.81945e-15
2.52947e-15
1.30186e-15
5.16247e-16
1.11153e-15
2.88633e-15
6.14e-15
9.42672e-15
1.06871e-14
8.28222e-15
4.72644e-15
2.46781e-15
1.30037e-15
4.16783e-16
1.04122e-15
2.97131e-15
6.39731e-15
9.62076e-15
1.06981e-14
8.2095e-15
4.63349e-15
2.40227e-15
1.28268e-15
3.51651e-16
1.01828e-15
3.14217e-15
6.73668e-15
9.8541e-15
1.07068e-14
8.13005e-15
4.53388e-15
2.33865e-15
1.26165e-15
3.0967e-16
1.04003e-15
3.40788e-15
7.14303e-15
1.0098e-14
1.07046e-14
8.03474e-15
4.42781e-15
2.28011e-15
1.23897e-15
2.79398e-16
1.10669e-15
3.76499e-15
7.57425e-15
1.03072e-14
1.06785e-14
7.92173e-15
4.31946e-15
2.22664e-15
1.21446e-15
2.52499e-16
1.20766e-15
4.17718e-15
7.96146e-15
1.04548e-14
1.06427e-14
7.79183e-15
4.2148e-15
2.18201e-15
1.18761e-15
2.22045e-16
1.32587e-15
4.58705e-15
8.23995e-15
1.05268e-14
1.0585e-14
7.64505e-15
4.12387e-15
2.14651e-15
1.16041e-15
2.22045e-16
1.53228e-15
4.99082e-15
8.38345e-15
1.05261e-14
1.0493e-14
7.48322e-15
4.06627e-15
2.12009e-15
1.13071e-15
2.22045e-16
1.99446e-15
5.43206e-15
8.4733e-15
1.05543e-14
1.04693e-14
7.3755e-15
4.05177e-15
2.08283e-15
1.09911e-15
3.45855e-16
2.60701e-15
5.70287e-15
8.49971e-15
1.05882e-14
1.04949e-14
7.33232e-15
4.0385e-15
2.04435e-15
1.08048e-15
1.20194e-15
3.43943e-15
5.9905e-15
8.5031e-15
1.05727e-14
1.04618e-14
7.27431e-15
3.9974e-15
2.02653e-15
1.07989e-15
2.53772e-15
4.17568e-15
6.04485e-15
8.34094e-15
1.04258e-14
1.03385e-14
7.19635e-15
3.97589e-15
2.03453e-15
1.09818e-15
2.907e-15
4.09338e-15
5.79004e-15
8.07225e-15
1.02472e-14
1.02285e-14
7.12873e-15
4.01155e-15
2.04765e-15
1.11848e-15
2.75927e-15
3.82021e-15
5.45683e-15
7.7711e-15
1.00735e-14
1.01553e-14
7.12007e-15
4.08663e-15
2.06556e-15
1.15016e-15
2.50122e-15
3.48293e-15
5.06858e-15
7.43183e-15
9.89223e-15
1.00938e-14
7.1641e-15
4.20051e-15
2.10141e-15
1.18823e-15
2.22086e-15
3.1148e-15
4.64539e-15
7.06719e-15
9.70721e-15
1.00504e-14
7.26333e-15
4.35143e-15
2.14663e-15
1.2293e-15
1.93656e-15
2.73059e-15
4.20071e-15
6.68131e-15
9.4939e-15
1.00548e-14
7.41558e-15
4.53372e-15
2.20751e-15
1.26838e-15
1.6498e-15
2.33687e-15
3.74235e-15
6.25472e-15
9.20776e-15
1.01093e-14
7.62354e-15
4.73927e-15
2.28106e-15
1.29239e-15
1.36778e-15
1.97014e-15
3.35298e-15
5.92611e-15
8.99204e-15
1.02419e-14
7.89392e-15
4.94253e-15
2.36348e-15
1.28686e-15
1.11241e-15
1.6674e-15
3.10153e-15
5.80237e-15
8.96697e-15
1.043e-14
8.19249e-15
5.01872e-15
2.48259e-15
1.30004e-15
2.22045e-16
1.23734e-15
1.98832e-15
2.03124e-15
1.86322e-15
1.67471e-15
1.49339e-15
1.31115e-15
1.11517e-15
9.04548e-16
2.22045e-16
6.15722e-16
1.28659e-15
1.44788e-15
1.36389e-15
1.23621e-15
1.11726e-15
1.00799e-15
8.92915e-16
7.55734e-16
2.22045e-16
2.78755e-16
7.71862e-16
9.78813e-16
9.62981e-16
8.77332e-16
7.90074e-16
7.17406e-16
6.54781e-16
5.78524e-16
2.22045e-16
2.22045e-16
4.0537e-16
5.92873e-16
6.32549e-16
5.90485e-16
5.26517e-16
4.67462e-16
4.21884e-16
3.84471e-16
2.22045e-16
2.22045e-16
2.22045e-16
3.21299e-16
3.69494e-16
3.62729e-16
3.31044e-16
2.96395e-16
2.70079e-16
2.51734e-16
2.22045e-16
2.22045e-16
2.22045e-16
2.22045e-16
2.22045e-16
2.22045e-16
2.22045e-16
2.22045e-16
2.22045e-16
2.22045e-16
2.22045e-16
2.22045e-16
2.22045e-16
2.22045e-16
2.22045e-16
2.22045e-16
2.22045e-16
2.22045e-16
2.22045e-16
2.22045e-16
2.22045e-16
2.22045e-16
2.22045e-16
2.22045e-16
2.22045e-16
2.22045e-16
2.22045e-16
2.22045e-16
2.22045e-16
2.22045e-16
2.22045e-16
2.22045e-16
2.22045e-16
2.22045e-16
2.22045e-16
2.22045e-16
2.22045e-16
2.22045e-16
2.22045e-16
2.22045e-16
2.22045e-16
2.22045e-16
2.22045e-16
2.22045e-16
2.22045e-16
2.22045e-16
2.22045e-16
2.22045e-16
2.22045e-16
2.22045e-16
)
;

boundaryField
{
    right
    {
        type            cyclic;
    }
    left
    {
        type            cyclic;
    }
    outerWall
    {
        type            kqRWallFunction;
        value           nonuniform List<scalar> 
22
(
1.30646e-15
1.30186e-15
1.30037e-15
1.28268e-15
1.26165e-15
1.23897e-15
1.21446e-15
1.18761e-15
1.16041e-15
1.13071e-15
1.09911e-15
1.08048e-15
1.07989e-15
1.09818e-15
1.11848e-15
1.15016e-15
1.18823e-15
1.2293e-15
1.26838e-15
1.29239e-15
1.28686e-15
1.30004e-15
)
;
    }
    stirrerWall
    {
        type            kqRWallFunction;
        value           nonuniform List<scalar> 
42
(
2.22045e-16
2.22045e-16
2.22045e-16
2.22045e-16
2.22045e-16
2.22045e-16
2.22045e-16
2.22045e-16
2.22045e-16
2.22045e-16
2.22045e-16
2.22045e-16
2.22045e-16
2.22045e-16
2.22045e-16
2.22045e-16
2.22045e-16
2.22045e-16
2.22045e-16
2.22045e-16
2.22045e-16
3.45855e-16
2.22045e-16
2.22045e-16
2.22045e-16
2.22045e-16
2.22045e-16
2.22045e-16
2.22045e-16
2.22045e-16
2.22045e-16
2.22045e-16
2.22045e-16
2.22045e-16
2.22045e-16
2.22045e-16
2.22045e-16
2.22045e-16
2.22045e-16
2.22045e-16
2.22045e-16
2.22045e-16
)
;
    }
    top
    {
        type            empty;
    }
    bottom
    {
        type            empty;
    }
}


// ************************************************************************* //
