/*--------------------------------*- C++ -*----------------------------------*\
  =========                 |
  \\      /  F ield         | OpenFOAM: The Open Source CFD Toolbox
   \\    /   O peration     | Website:  https://openfoam.org
    \\  /    A nd           | Version:  10
     \\/     M anipulation  |
\*---------------------------------------------------------------------------*/
FoamFile
{
    format      ascii;
    class       volScalarField;
    location    "600";
    object      nut;
}
// * * * * * * * * * * * * * * * * * * * * * * * * * * * * * * * * * * * * * //

dimensions      [0 2 -1 0 0 0 0];

internalField   nonuniform List<scalar> 
2000
(
5.51668e-11
6.5068e-09
1.45432e-07
8.69486e-07
2.54966e-06
5.03995e-06
7.98856e-06
1.12681e-05
1.49405e-05
1.90829e-05
2.39079e-05
3.07098e-05
4.39575e-05
6.68973e-05
8.03958e-05
7.96692e-05
7.22744e-05
6.37747e-05
5.83565e-05
5.98195e-05
4.15774e-11
5.1053e-09
1.04654e-07
6.30788e-07
1.92355e-06
3.96908e-06
6.50939e-06
9.39689e-06
1.26982e-05
1.66576e-05
2.20327e-05
3.17206e-05
5.22673e-05
7.40869e-05
7.89609e-05
7.20331e-05
6.02544e-05
5.00876e-05
4.43933e-05
4.51405e-05
3.00651e-11
3.96682e-09
7.12619e-08
4.26345e-07
1.37441e-06
3.02506e-06
5.22652e-06
7.82114e-06
1.088e-05
1.48342e-05
2.10676e-05
3.37409e-05
5.88899e-05
7.46089e-05
7.47817e-05
6.30967e-05
4.91856e-05
3.92126e-05
3.39445e-05
3.40971e-05
2.1082e-11
2.95778e-09
4.77905e-08
2.81388e-07
9.52442e-07
2.24719e-06
4.14236e-06
6.51475e-06
9.43661e-06
1.35351e-05
2.09589e-05
3.75252e-05
6.16934e-05
7.32069e-05
6.99876e-05
5.44459e-05
3.98192e-05
3.07435e-05
2.59767e-05
2.55245e-05
1.45688e-11
2.09994e-09
3.16956e-08
1.84262e-07
6.51437e-07
1.64401e-06
3.24905e-06
5.42661e-06
8.28651e-06
1.26686e-05
2.14904e-05
4.07991e-05
6.23027e-05
7.07969e-05
6.4371e-05
4.66027e-05
3.28432e-05
2.49108e-05
2.05479e-05
1.9367e-05
1.04029e-11
1.4702e-09
2.11562e-08
1.21526e-07
4.46503e-07
1.19965e-06
2.54278e-06
4.53616e-06
7.37608e-06
1.21538e-05
2.22908e-05
4.24134e-05
6.16629e-05
6.81449e-05
5.944e-05
4.10983e-05
2.87267e-05
2.19044e-05
1.76024e-05
1.54684e-05
8.4043e-12
1.11394e-09
1.51734e-08
8.40235e-08
3.13032e-07
8.84588e-07
2.00357e-06
3.82819e-06
6.67336e-06
1.19029e-05
2.29915e-05
4.22939e-05
6.02994e-05
6.57213e-05
5.57453e-05
3.83384e-05
2.76043e-05
2.15443e-05
1.68639e-05
1.35145e-05
8.35993e-12
1.02643e-09
1.2996e-08
6.50792e-08
2.32654e-07
6.72201e-07
1.60744e-06
3.28451e-06
6.15467e-06
1.17934e-05
2.33421e-05
4.10704e-05
5.78793e-05
6.35162e-05
5.33187e-05
3.78963e-05
2.90652e-05
2.3409e-05
1.78795e-05
1.30745e-05
1.01392e-11
1.21776e-09
1.45706e-08
6.14412e-08
1.94573e-07
5.43425e-07
1.33446e-06
2.88662e-06
5.78602e-06
1.17175e-05
2.31794e-05
3.91848e-05
5.43963e-05
6.0581e-05
5.27286e-05
4.02416e-05
3.2763e-05
2.68493e-05
2.00248e-05
1.36311e-05
1.35916e-11
1.66843e-09
1.96894e-08
7.31227e-08
1.93675e-07
4.85484e-07
1.16988e-06
2.61698e-06
5.51135e-06
1.15174e-05
2.24661e-05
3.66531e-05
5.01359e-05
5.66179e-05
5.17753e-05
4.34706e-05
3.73339e-05
3.06901e-05
2.24357e-05
1.45945e-05
1.88996e-11
2.30754e-09
2.76486e-08
9.84858e-08
2.25482e-07
4.87013e-07
1.09962e-06
2.45696e-06
5.27572e-06
9.53536e-06
2.12883e-05
3.36818e-05
4.54161e-05
5.19797e-05
4.99183e-05
4.49881e-05
4.04651e-05
3.36456e-05
2.44346e-05
1.55372e-05
2.66029e-11
3.04064e-09
3.68272e-08
1.28203e-07
2.76606e-07
5.34236e-07
1.10892e-06
2.38721e-06
4.86682e-06
8.26657e-06
1.68901e-05
3.05256e-05
4.05955e-05
4.69388e-05
4.7145e-05
4.48145e-05
4.14761e-05
3.48599e-05
2.52094e-05
1.58142e-05
3.63908e-11
4.00467e-09
4.39429e-08
1.45296e-07
3.08554e-07
5.95736e-07
1.16969e-06
2.38931e-06
4.66683e-06
7.57288e-06
1.39195e-05
2.7417e-05
3.60039e-05
4.18506e-05
4.34487e-05
3.99247e-05
3.38955e-05
3.39755e-05
2.4326e-05
1.50954e-05
4.60475e-11
4.94255e-09
4.8012e-08
1.39584e-07
2.86898e-07
6.06072e-07
1.20936e-06
2.41993e-06
4.59029e-06
7.04788e-06
1.16932e-05
2.14077e-05
3.18442e-05
3.70848e-05
3.93179e-05
3.53237e-05
2.81691e-05
2.85431e-05
2.17546e-05
1.333e-05
5.1082e-11
5.33416e-09
4.45343e-08
1.16581e-07
2.30301e-07
4.77982e-07
1.10752e-06
2.3342e-06
4.61426e-06
6.6133e-06
9.82507e-06
1.53693e-05
2.28098e-05
2.80123e-05
3.32792e-05
3.03014e-05
2.48287e-05
2.29429e-05
1.77487e-05
1.06633e-05
4.72016e-11
4.69071e-09
3.22228e-08
7.83712e-08
1.56472e-07
3.20138e-07
7.58144e-07
1.91261e-06
4.03269e-06
6.40619e-06
8.46338e-06
1.16064e-05
1.56016e-05
1.91741e-05
2.29683e-05
2.31935e-05
2.05692e-05
1.77774e-05
1.25919e-05
7.42124e-06
3.36147e-11
2.9213e-09
1.56842e-08
3.72844e-08
7.85317e-08
1.67547e-07
3.83062e-07
1.01822e-06
2.48878e-06
5.27013e-06
7.71012e-06
9.47479e-06
1.16405e-05
1.38133e-05
1.59877e-05
1.63804e-05
1.45985e-05
1.11005e-05
7.12001e-06
4.0948e-06
1.62175e-11
9.31388e-10
3.77392e-09
9.36398e-09
2.15754e-08
4.92315e-08
1.13479e-07
2.79724e-07
7.67993e-07
1.71514e-06
3.43413e-06
5.71889e-06
7.8196e-06
9.09194e-06
9.16712e-06
7.99995e-06
5.56818e-06
3.71437e-06
2.53063e-06
1.3036e-06
4.45601e-12
8.03622e-11
2.47163e-10
6.48933e-10
1.61231e-09
3.91639e-09
9.38403e-09
2.25513e-08
5.7284e-08
1.56234e-07
3.27849e-07
5.83398e-07
8.51872e-07
9.65662e-07
8.8324e-07
6.56816e-07
4.92429e-07
3.34974e-07
2.2036e-07
2.03345e-07
5.00251e-14
5.82036e-13
1.55309e-12
4.24947e-12
1.11857e-11
2.88327e-11
7.25828e-11
1.80174e-10
4.47761e-10
1.12092e-09
2.90465e-09
5.8082e-09
8.49495e-09
8.79711e-09
7.0496e-09
4.89302e-09
3.95073e-09
2.92989e-09
2.00172e-09
6.05471e-09
7.20529e-05
0.000102328
0.000169374
0.000315341
0.0006309
0.0012552
0.00226382
0.0035605
0.00499707
0.00646036
0.00782078
0.00892346
0.00963765
0.0100478
0.0106652
0.0119865
0.0148341
0.019596
0.0265135
0.0403287
5.51794e-05
8.11942e-05
0.000140608
0.000274343
0.000573826
0.00118379
0.00218533
0.00347997
0.00491985
0.00639585
0.00777697
0.00890091
0.00963065
0.0100466
0.0106701
0.0119944
0.0148729
0.0197498
0.0263843
0.0385712
4.20321e-05
6.39476e-05
0.000116233
0.000238557
0.000522714
0.00111877
0.00211317
0.00340527
0.00484826
0.00633682
0.00773767
0.00888101
0.009625
0.0100446
0.010673
0.0119976
0.0149018
0.0199215
0.0265475
0.037103
3.14466e-05
4.95435e-05
9.52479e-05
0.000207052
0.00047697
0.00106005
0.00204767
0.00333656
0.00478152
0.00628149
0.0077011
0.00886293
0.00962112
0.0100432
0.0106756
0.0119984
0.0149203
0.0200816
0.0269558
0.0361698
2.33151e-05
3.78507e-05
7.75567e-05
0.000179846
0.000436937
0.00100856
0.00199016
0.00327506
0.00472076
0.00623093
0.00766811
0.00884715
0.00961912
0.0100425
0.0106786
0.0119981
0.0149292
0.020212
0.0275508
0.0360713
1.74726e-05
2.8754e-05
6.31353e-05
0.000157144
0.000403282
0.000965616
0.00194233
0.00322239
0.004667
0.00618581
0.00763906
0.0088338
0.00961901
0.0100428
0.0106825
0.0119978
0.0149296
0.0202968
0.0282289
0.0370501
1.36264e-05
2.20364e-05
5.18834e-05
0.000139072
0.000376564
0.00093229
0.00190538
0.00317936
0.00462057
0.00614621
0.00761387
0.00882271
0.00962048
0.0100442
0.0106876
0.0119994
0.014924
0.0203331
0.0288744
0.0390429
1.14099e-05
1.74275e-05
4.36618e-05
0.000125719
0.000357297
0.000909533
0.00188019
0.00314657
0.00458199
0.00611198
0.0075924
0.0088136
0.00962292
0.0100465
0.0106931
0.0120037
0.0149161
0.0203426
0.0294534
0.0412232
1.04218e-05
1.46574e-05
3.83559e-05
0.000117205
0.000346011
0.000898276
0.00186767
0.00312475
0.00455191
0.00608344
0.00757495
0.00880656
0.0096261
0.0100494
0.0106991
0.0120099
0.0149085
0.0203258
0.0299323
0.0434327
1.02216e-05
1.318e-05
3.54229e-05
0.000113126
0.000343178
0.000901571
0.00187208
0.00311705
0.00453253
0.00606197
0.00756111
0.00880156
0.00962988
0.0100531
0.0107054
0.0120165
0.0149041
0.02029
0.0302819
0.0455255
1.02292e-05
1.2315e-05
3.40823e-05
0.000113158
0.000350499
0.000923689
0.00189683
0.00312434
0.00452389
0.00604806
0.00755102
0.00879841
0.00963374
0.0100567
0.0107117
0.0120234
0.0149035
0.0202469
0.030479
0.047283
1.00389e-05
1.1739e-05
3.41074e-05
0.000117508
0.000369544
0.000966879
0.00194128
0.00314409
0.00452383
0.00604004
0.00754314
0.00879595
0.00963666
0.0100596
0.0107167
0.01203
0.014906
0.0202115
0.0305178
0.0484296
9.40338e-06
1.12351e-05
3.54048e-05
0.000126687
0.000402409
0.00103246
0.0020018
0.00317177
0.00452945
0.00603686
0.00753778
0.00879347
0.00963829
0.0100618
0.0107202
0.0120363
0.0149111
0.020198
0.0304248
0.0486802
8.2261e-06
1.07105e-05
3.80981e-05
0.000141809
0.000452243
0.00111998
0.0020703
0.00320027
0.00453551
0.00603451
0.00753245
0.00878946
0.00963776
0.0100631
0.0107215
0.012042
0.0149168
0.0202128
0.0302778
0.0480049
6.53393e-06
1.01776e-05
4.25154e-05
0.000164932
0.000523437
0.00122368
0.00213494
0.00322171
0.00453651
0.00602874
0.00752429
0.00878258
0.00963428
0.0100631
0.01072
0.0120468
0.0149195
0.0202405
0.0301797
0.0472881
4.50984e-06
9.68801e-06
4.88975e-05
0.000198875
0.000618331
0.00132955
0.00218443
0.00313207
0.00432015
0.00597617
0.00751147
0.00877278
0.00962757
0.0100619
0.0107155
0.012051
0.0149162
0.0202775
0.0301282
0.0466552
2.50145e-06
9.18495e-06
5.72052e-05
0.000246913
0.000729829
0.00139839
0.00207468
0.00292078
0.00404485
0.00561577
0.00749182
0.00875889
0.00961713
0.0100593
0.0107075
0.0120543
0.0149022
0.0203219
0.0300925
0.0460984
1.11274e-06
8.39897e-06
6.73449e-05
0.000309356
0.000838742
0.0013336
0.00193708
0.0027187
0.00378087
0.00527276
0.00715072
0.00873991
0.00960248
0.0100549
0.0106955
0.0120566
0.0148734
0.0203723
0.0300321
0.0456441
4.796e-07
7.16835e-06
7.83615e-05
0.000381219
0.000879804
0.00123285
0.00178197
0.00251458
0.00351436
0.00490708
0.00664765
0.00871473
0.00958283
0.0100481
0.010679
0.0120544
0.0148334
0.0204275
0.0299489
0.0453287
1.66304e-07
6.28836e-06
9.32544e-05
0.00045986
0.000959482
0.00132304
0.00190098
0.00258927
0.00347829
0.00468803
0.0061495
0.00868064
0.00955748
0.0100375
0.0106571
0.0120354
0.0147846
0.0204136
0.0298846
0.0447123
6.61164e-08
7.25507e-06
0.000133746
0.000539041
0.000960755
0.0014232
0.00208105
0.00304907
0.0043293
0.00572003
0.00733555
0.00863877
0.00952352
0.0100219
0.0106278
0.0120036
0.0147238
0.0203223
0.0295529
0.043961
6.73804e-08
7.5708e-06
0.000138515
0.000542045
0.000945453
0.00139516
0.00204399
0.00300733
0.00428825
0.00578877
0.00730602
0.00861604
0.00950808
0.0100117
0.0106172
0.0119907
0.0147141
0.0203024
0.0295823
0.0439649
7.11877e-08
7.96814e-06
0.000140031
0.000533143
0.000913842
0.00134638
0.00198344
0.00294199
0.00422636
0.00573549
0.00726295
0.00858217
0.00948305
0.00999286
0.0106002
0.0119724
0.0147064
0.0202946
0.0297011
0.0440835
7.60861e-08
8.39675e-06
0.000139421
0.000518089
0.000876952
0.0012931
0.00191901
0.00287356
0.00416236
0.00568109
0.00721932
0.00854807
0.00945712
0.00997242
0.0105812
0.0119516
0.0146972
0.0202856
0.0298432
0.0442828
8.14741e-08
8.79048e-06
0.000136656
0.00049772
0.000836401
0.00123783
0.001854
0.00280585
0.0041001
0.00562903
0.007178
0.00851547
0.00943148
0.00995099
0.0105606
0.0119282
0.0146855
0.0202738
0.0299967
0.0445173
8.71796e-08
9.10697e-06
0.00013192
0.000473028
0.000793273
0.00118195
0.00178999
0.00274054
0.00404129
0.00558087
0.00714026
0.00848534
0.00940684
0.00992903
0.0105387
0.0119026
0.0146711
0.0202585
0.0301562
0.0447689
9.32154e-08
9.32446e-06
0.000125488
0.000444963
0.000748625
0.00112682
0.0017283
0.00267892
0.00398717
0.00553774
0.00710711
0.00845854
0.00938384
0.00990704
0.010516
0.011875
0.014654
0.0202391
0.0303183
0.0450303
9.9698e-08
9.43352e-06
0.000117753
0.000414557
0.000703578
0.00107341
0.00167053
0.0026225
0.00393892
0.00550071
0.00707954
0.00843588
0.00936312
0.00988557
0.0104929
0.011846
0.0146344
0.0202153
0.0304798
0.0452928
1.06831e-07
9.43367e-06
0.00010919
0.000383023
0.000659277
0.00102277
0.00161764
0.00257302
0.00389798
0.00547085
0.0070585
0.00841817
0.00934532
0.00986517
0.0104699
0.011816
0.0146126
0.0201868
0.0306382
0.0455446
1.14914e-07
9.33196e-06
0.000100306
0.000351591
0.000616869
0.00097606
0.00157085
0.00253136
0.00386607
0.00544948
0.0070449
0.00840613
0.00933106
0.00984645
0.0104476
0.0117855
0.0145888
0.0201535
0.0307911
0.0457658
1.24379e-07
9.14384e-06
9.15574e-05
0.000321418
0.000577478
0.000934461
0.00153143
0.00249872
0.003844
0.00543805
0.00703986
0.00840049
0.00932095
0.00983001
0.0104265
0.0117553
0.0145634
0.0201151
0.0309365
0.0459556
1.35826e-07
8.89287e-06
8.33348e-05
0.000293505
0.000542201
0.000899157
0.00150067
0.00247637
0.00383283
0.0054372
0.00704424
0.00840223
0.00931557
0.00981647
0.0104072
0.0117259
0.0145366
0.0200717
0.0310731
0.0461164
1.50097e-07
8.61002e-06
7.59666e-05
0.000268723
0.000512113
0.000871362
0.00147984
0.00246559
0.00383364
0.00544771
0.00705863
0.00841187
0.00931549
0.00980646
0.0103901
0.0116983
0.0145089
0.0200233
0.0312
0.0462345
1.68368e-07
8.33426e-06
6.97307e-05
0.000247836
0.000488267
0.000852315
0.00147024
0.00246757
0.0038474
0.00547029
0.00708354
0.00842984
0.00932114
0.00980037
0.0103757
0.0116729
0.0144804
0.0199699
0.0313168
0.0463014
1.92291e-07
8.11493e-06
6.48794e-05
0.000231531
0.000471688
0.000843266
0.00147317
0.00248351
0.00387497
0.00550543
0.00711931
0.00845641
0.00933281
0.0097986
0.0103643
0.0116505
0.0144516
0.0199116
0.0314236
0.0463129
2.24201e-07
8.01736e-06
6.16733e-05
0.000220461
0.000463379
0.00084545
0.0014899
0.00251452
0.00391704
0.00555341
0.00716596
0.00849166
0.00935066
0.00980141
0.0103565
0.0116315
0.0144227
0.0198486
0.0315212
0.046265
2.67381e-07
8.13524e-06
6.04269e-05
0.000215301
0.000464328
0.000860054
0.00152157
0.00256159
0.00397414
0.00561423
0.00722326
0.00853541
0.00937465
0.00980896
0.0103526
0.0116161
0.014394
0.019781
0.0316102
0.046149
3.26427e-07
8.61856e-06
6.15641e-05
0.000216794
0.000475512
0.00088817
0.00156918
0.00262544
0.00404648
0.00568756
0.0072906
0.00858716
0.00940453
0.00982123
0.0103528
0.0116041
0.0143662
0.0197085
0.0316912
0.0459786
4.07704e-07
9.73986e-06
6.56417e-05
0.000225778
0.000497892
0.000930764
0.00163351
0.00270655
0.00413402
0.00577274
0.00736704
0.0086461
0.0094398
0.00983803
0.0103572
0.0115954
0.0143398
0.0196313
0.0317647
0.0459545
5.19905e-07
1.21282e-05
7.34053e-05
0.00024325
0.000390028
0.000644021
0.00101644
0.00180546
0.00289294
0.00450297
0.00671647
0.00871095
0.00947962
0.00985897
0.0103659
0.0115901
0.014316
0.0195517
0.0318334
0.047349
2.93392e-06
2.08578e-05
8.99753e-05
0.000265655
0.000404801
0.000734125
0.00117912
0.00188102
0.00271003
0.00382693
0.00542778
0.00777105
0.00952698
0.00988572
0.0103792
0.0115864
0.0142903
0.0194492
0.0318948
0.0486444
4.00693e-05
9.93809e-05
0.000168329
0.000301439
0.000511767
0.000829095
0.00133645
0.00207664
0.00304436
0.00425704
0.00595735
0.00853208
0.0095584
0.00990007
0.0103976
0.0115883
0.0142207
0.0192858
0.0306166
0.0477166
8.18196e-05
0.000137364
0.000244918
0.000420894
0.000699101
0.00111757
0.00172854
0.00254362
0.00351168
0.00470547
0.00636256
0.00889402
0.00958302
0.00991475
0.0104124
0.0115999
0.0142209
0.0191763
0.0297497
0.0469865
0.000103504
0.000158531
0.000263291
0.000433989
0.000710768
0.00113883
0.00177575
0.00263168
0.00364885
0.00487904
0.00656809
0.00893723
0.00960486
0.00992895
0.0104269
0.0116143
0.0142265
0.0191
0.0291784
0.0461357
0.000139574
0.000200256
0.000313162
0.000497831
0.000791985
0.001244
0.00190818
0.00278886
0.00383094
0.00509251
0.00683749
0.00897365
0.00962356
0.00994213
0.010442
0.011631
0.014238
0.0190492
0.0287866
0.0451442
0.000177743
0.000243916
0.000363549
0.000557261
0.00086787
0.00134618
0.0020449
0.00296376
0.00405633
0.00538665
0.00725858
0.00900266
0.00963892
0.00995417
0.0104571
0.0116493
0.0142547
0.0190191
0.028498
0.0440068
0.000188264
0.000261785
0.000386442
0.00059984
0.000954492
0.00146986
0.00220982
0.003179
0.00434541
0.00578416
0.00785181
0.00902503
0.00965161
0.00996563
0.0104725
0.0116691
0.0142764
0.0190085
0.0283006
0.0427073
0.000189386
0.000264989
0.000392783
0.000611838
0.000988484
0.00161464
0.00245796
0.00349785
0.00477014
0.00636899
0.00805004
0.00904066
0.0096616
0.00997628
0.0104879
0.01169
0.0143023
0.0190166
0.0282079
0.0412485
0.000189272
0.000265672
0.000394987
0.000617575
0.00100223
0.00164273
0.00261016
0.00388088
0.00533009
0.0067838
0.00807024
0.0090514
0.00966929
0.00998625
0.0105035
0.0117118
0.0143318
0.019041
0.0282504
0.0396852
0.000188032
0.000264082
0.000393192
0.000617034
0.00100722
0.00165999
0.00264242
0.00392076
0.00536557
0.00680742
0.00808069
0.00905765
0.00967482
0.00999556
0.0105189
0.0117344
0.0143642
0.0190765
0.0284434
0.0382346
0.000185585
0.000260101
0.000387224
0.000609999
0.00100298
0.00166531
0.00266089
0.00394592
0.00538668
0.00681904
0.00808367
0.00906054
0.00967827
0.0100042
0.0105342
0.0117575
0.014399
0.0191173
0.0287825
0.037137
0.000182043
0.000253938
0.000377519
0.00059713
0.000990149
0.00165902
0.00266545
0.00395667
0.0053942
0.00681976
0.00808055
0.00906046
0.00968032
0.0100124
0.0105495
0.0117813
0.0144359
0.0191596
0.0292058
0.0365764
0.000177402
0.00024577
0.000364535
0.000579169
0.000969775
0.00164245
0.00265766
0.00395436
0.00538993
0.0068111
0.00807265
0.0090575
0.00968104
0.0100199
0.0105651
0.0118057
0.0144747
0.0192056
0.0295472
0.0370657
0.000171502
0.000235565
0.000348532
0.000556753
0.000942979
0.00161727
0.00263952
0.00394096
0.00537538
0.0067945
0.00806025
0.00905182
0.00968051
0.0100267
0.0105802
0.0118307
0.0145143
0.0192686
0.029532
0.0398548
0.00016406
0.000223244
0.000329788
0.000530643
0.00091104
0.00158519
0.00261288
0.00391815
0.00535202
0.0067718
0.0080436
0.00904373
0.00967899
0.0100329
0.0105948
0.0118552
0.0145527
0.0193139
0.0293442
0.042735
0.00015475
0.000208807
0.000308692
0.000501723
0.000875275
0.00154781
0.00257935
0.0038874
0.00532099
0.00674352
0.0080231
0.00903354
0.00967663
0.0100384
0.0106087
0.0118792
0.0145912
0.0193413
0.0290005
0.0453681
0.000143234
0.000192247
0.000285593
0.000470783
0.000836887
0.00150654
0.00254017
0.00384982
0.00528334
0.0067097
0.00799884
0.00902127
0.00967339
0.010043
0.0106215
0.0119021
0.0146298
0.0193525
0.0285477
0.0471516
0.000129215
0.000173543
0.000260929
0.00043867
0.000797112
0.00146258
0.0024962
0.00380577
0.00523908
0.0066702
0.00797069
0.00900677
0.00966917
0.0100465
0.0106332
0.0119234
0.0146694
0.0193502
0.0280552
0.0458284
0.00011319
0.000153456
0.000235703
0.000406411
0.000756327
0.00141509
0.00244606
0.00375305
0.00518591
0.00662305
0.00793737
0.00898947
0.00966386
0.0100492
0.0106437
0.0119427
0.0147115
0.0193697
0.0275277
0.0439811
9.57505e-05
0.000131764
0.000208451
0.000370106
0.000707286
0.00135437
0.00237896
0.00368187
0.00511509
0.00656203
0.00789511
0.00896712
0.00965594
0.0100501
0.0106527
0.0119589
0.0147549
0.0194192
0.0269261
0.0420798
3.49591e-07
1.58037e-05
5.13275e-05
7.11344e-05
9.68677e-05
0.000126719
0.000136403
0.000137225
0.000137853
0.000138324
0.000138457
0.000138218
0.000137527
0.000136104
0.000133563
0.000129394
0.000122875
0.00011289
9.89703e-05
8.12636e-05
1.70359e-07
1.0312e-05
4.05486e-05
5.54894e-05
6.97642e-05
8.9227e-05
0.000104533
0.000104637
0.000105087
0.00010602
0.000107207
0.000108506
0.000109795
0.000110832
0.000111283
0.000110639
0.000108137
0.000102466
9.19519e-05
7.68884e-05
9.28918e-08
7.60683e-06
3.73475e-05
4.99162e-05
5.69966e-05
6.86783e-05
8.72223e-05
8.79114e-05
8.72122e-05
8.73836e-05
8.82349e-05
8.95174e-05
9.11518e-05
9.30554e-05
9.50836e-05
9.69067e-05
9.78022e-05
9.65051e-05
9.06803e-05
7.92461e-05
5.25035e-08
5.99388e-06
3.89549e-05
4.91234e-05
5.24939e-05
5.87836e-05
6.88366e-05
8.04306e-05
7.83919e-05
7.71028e-05
7.6715e-05
7.68919e-05
7.75328e-05
7.8639e-05
8.04125e-05
8.31641e-05
8.67336e-05
9.01103e-05
9.00237e-05
8.34807e-05
3.08078e-08
4.62546e-06
4.02801e-05
5.21234e-05
5.30954e-05
5.60882e-05
6.1492e-05
7.1364e-05
7.66233e-05
7.35778e-05
7.14987e-05
7.00466e-05
6.90281e-05
6.84899e-05
6.85935e-05
6.97128e-05
7.24507e-05
7.72657e-05
8.36412e-05
8.49537e-05
1.91143e-08
3.18595e-06
3.3532e-05
5.7865e-05
5.79461e-05
5.91554e-05
6.22199e-05
6.91145e-05
8.09459e-05
7.65976e-05
7.29858e-05
7.00268e-05
6.73733e-05
6.49323e-05
6.23999e-05
6.02724e-05
5.94147e-05
6.09824e-05
6.60887e-05
7.3847e-05
1.21744e-08
1.83701e-06
2.47518e-05
6.46561e-05
6.47247e-05
6.58543e-05
6.8245e-05
7.38098e-05
8.58549e-05
8.49793e-05
8.04292e-05
7.64134e-05
7.22473e-05
6.76451e-05
6.23602e-05
5.70936e-05
5.25767e-05
4.96493e-05
4.96794e-05
5.35317e-05
7.69055e-09
1.10032e-06
1.46448e-05
5.39925e-05
7.60966e-05
7.6437e-05
7.59588e-05
7.73929e-05
8.03024e-05
9.23012e-05
9.29539e-05
8.85035e-05
8.21353e-05
7.41516e-05
6.54695e-05
5.72531e-05
5.02431e-05
4.46407e-05
4.08692e-05
3.97041e-05
4.75126e-09
6.60544e-07
8.34974e-06
3.26009e-05
6.84214e-05
9.11144e-05
9.06931e-05
9.00029e-05
8.89808e-05
9.26385e-05
9.326e-05
0.000100327
9.238e-05
8.01331e-05
6.78541e-05
5.68835e-05
4.81333e-05
4.13039e-05
3.60627e-05
3.22939e-05
2.83683e-09
3.90727e-07
4.82378e-06
1.85427e-05
4.22682e-05
6.79568e-05
8.70434e-05
9.81312e-05
0.000103427
0.000104651
0.000103299
9.96341e-05
9.08915e-05
7.79266e-05
6.47474e-05
5.33508e-05
4.42701e-05
3.72248e-05
3.16945e-05
2.72538e-05
1.6254e-09
2.26259e-07
2.78881e-06
1.05522e-05
2.42589e-05
4.16709e-05
5.88622e-05
7.25298e-05
8.14588e-05
8.57387e-05
8.60217e-05
8.28851e-05
7.57252e-05
6.54507e-05
5.48275e-05
4.54307e-05
3.77395e-05
3.1612e-05
2.66606e-05
2.25256e-05
8.88752e-10
1.2717e-07
1.60144e-06
6.06517e-06
1.38652e-05
2.41095e-05
3.52239e-05
4.54953e-05
5.34922e-05
5.83963e-05
5.99943e-05
5.85058e-05
5.43398e-05
4.81622e-05
4.14735e-05
3.52303e-05
2.9816e-05
2.52517e-05
2.13737e-05
1.79525e-05
4.6125e-10
6.86045e-08
8.99215e-07
3.50303e-06
8.01707e-06
1.39341e-05
2.04625e-05
2.67731e-05
3.20644e-05
3.57143e-05
3.73859e-05
3.71056e-05
3.53235e-05
3.24017e-05
2.8965e-05
2.54794e-05
2.21787e-05
1.91268e-05
1.6326e-05
1.36951e-05
2.25003e-10
3.48797e-08
4.82459e-07
1.98833e-06
4.66489e-06
8.16594e-06
1.2009e-05
1.57309e-05
1.89369e-05
2.12938e-05
2.25782e-05
2.27822e-05
2.21842e-05
2.10109e-05
1.94579e-05
1.7682e-05
1.57757e-05
1.37982e-05
1.18087e-05
9.83991e-06
1.01127e-10
1.62277e-08
2.38427e-07
1.06214e-06
2.63171e-06
4.75402e-06
7.11273e-06
9.40331e-06
1.13808e-05
1.28781e-05
1.38011e-05
1.41396e-05
1.40143e-05
1.35957e-05
1.28805e-05
1.18898e-05
1.06578e-05
9.25561e-06
7.79009e-06
6.35167e-06
4.00899e-11
6.56403e-09
1.0194e-07
4.96251e-07
1.33546e-06
2.57169e-06
4.02596e-06
5.49065e-06
6.79112e-06
7.80901e-06
8.48197e-06
8.79651e-06
8.78489e-06
8.54784e-06
8.03232e-06
7.25589e-06
6.28506e-06
5.23089e-06
4.22031e-06
3.31983e-06
1.28244e-11
2.11961e-09
3.45036e-08
1.83382e-07
5.44032e-07
1.14377e-06
1.92185e-06
2.76133e-06
3.53643e-06
4.14729e-06
4.53299e-06
4.66894e-06
4.56233e-06
4.25656e-06
3.77244e-06
3.18288e-06
2.57023e-06
2.00604e-06
1.54114e-06
1.17178e-06
2.69933e-12
4.38686e-10
7.27451e-09
4.21402e-08
1.38012e-07
3.14353e-07
5.59697e-07
8.31728e-07
1.07622e-06
1.24824e-06
1.32229e-06
1.29397e-06
1.17983e-06
1.0111e-06
8.31914e-07
6.60743e-07
5.08265e-07
3.81548e-07
2.8466e-07
2.07805e-07
3.85236e-13
6.11278e-11
7.8109e-10
3.52988e-09
1.11083e-08
2.68507e-08
4.84689e-08
7.049e-08
8.8163e-08
9.80093e-08
9.85547e-08
9.05931e-08
7.73909e-08
6.43423e-08
5.26961e-08
4.20164e-08
3.2253e-08
2.37525e-08
1.69382e-08
1.09748e-08
3.16121e-14
2.88453e-12
1.30994e-11
4.00746e-11
9.77239e-11
1.97645e-10
3.46782e-10
5.05267e-10
6.21912e-10
6.69483e-10
6.44847e-10
5.66892e-10
4.69928e-10
3.90944e-10
3.26813e-10
2.6742e-10
2.12118e-10
1.62612e-10
1.20233e-10
8.35719e-11
)
;

boundaryField
{
    right
    {
        type            cyclic;
    }
    left
    {
        type            cyclic;
    }
    outerWall
    {
        type            nutkWallFunction;
        Cmu             0.09;
        kappa           0.41;
        E               9.8;
        value           uniform 0;
    }
    stirrerWall
    {
        type            nutkWallFunction;
        Cmu             0.09;
        kappa           0.41;
        E               9.8;
        value           uniform 0;
    }
    top
    {
        type            empty;
    }
    bottom
    {
        type            empty;
    }
}


// ************************************************************************* //
