/*--------------------------------*- C++ -*----------------------------------*\
  =========                 |
  \\      /  F ield         | OpenFOAM: The Open Source CFD Toolbox
   \\    /   O peration     | Website:  https://openfoam.org
    \\  /    A nd           | Version:  10
     \\/     M anipulation  |
\*---------------------------------------------------------------------------*/
FoamFile
{
    format      ascii;
    class       volScalarField;
    location    "600";
    object      nut;
}
// * * * * * * * * * * * * * * * * * * * * * * * * * * * * * * * * * * * * * //

dimensions      [0 2 -1 0 0 0 0];

internalField   nonuniform List<scalar> 
420
(
1.04478e-20
6.3711e-20
1.77565e-19
3.27575e-19
4.84135e-19
6.72381e-19
1.16126e-18
1.68242e-18
1.81371e-18
1.68028e-18
1.04473e-20
6.36288e-20
1.75582e-19
3.25119e-19
4.86283e-19
6.3744e-19
1.04968e-18
1.40933e-18
1.39297e-18
1.18401e-18
1.04471e-20
6.29449e-20
1.71627e-19
3.20157e-19
4.84642e-19
6.40379e-19
9.23869e-19
1.14295e-18
1.02763e-18
8.14887e-19
1.04472e-20
6.22491e-20
1.68662e-19
3.135e-19
4.74994e-19
6.28453e-19
7.73227e-19
8.77228e-19
7.21396e-19
5.44661e-19
1.04476e-20
6.26115e-20
1.67361e-19
3.02785e-19
4.48832e-19
5.85821e-19
6.73166e-19
6.5572e-19
5.20339e-19
3.75019e-19
1.04483e-20
6.28029e-20
1.62158e-19
2.74248e-19
3.85131e-19
4.85521e-19
5.4668e-19
5.2706e-19
4.11062e-19
2.94986e-19
1.04493e-20
5.99811e-20
1.36507e-19
2.03311e-19
2.64092e-19
3.18656e-19
3.52053e-19
3.41076e-19
2.79478e-19
2.09008e-19
1.04506e-20
4.77867e-20
8.00927e-20
1.04721e-19
1.28539e-19
1.51789e-19
1.70097e-19
1.75924e-19
1.62608e-19
1.29879e-19
1.04522e-20
2.15366e-20
2.79692e-20
3.46323e-20
4.18187e-20
4.94763e-20
5.72836e-20
6.53907e-20
7.12217e-20
6.18988e-20
2.82342e-21
3.6643e-21
4.61494e-21
5.67535e-21
6.84552e-21
8.12545e-21
9.51514e-21
1.10146e-20
1.26238e-20
1.43428e-20
1.75231e-18
2.64078e-18
6.03483e-18
1.54008e-17
2.96383e-17
2.89244e-17
2.19008e-17
8.95686e-18
3.11478e-18
3.44208e-19
1.24697e-18
2.10832e-18
5.53527e-18
1.52959e-17
2.98513e-17
2.99688e-17
2.11269e-17
8.96173e-18
3.1594e-18
3.51928e-19
8.89857e-19
1.72382e-18
5.21644e-18
1.54845e-17
3.0309e-17
3.0602e-17
2.12738e-17
9.65044e-18
3.07422e-18
3.51668e-19
6.32701e-19
1.43735e-18
5.04691e-18
1.59645e-17
3.09656e-17
3.11312e-17
2.18096e-17
9.59623e-18
2.97225e-18
3.484e-19
4.4925e-19
1.22389e-18
5.02524e-18
1.67813e-17
3.18163e-17
3.1303e-17
2.20785e-17
9.48893e-18
2.86976e-18
3.44273e-19
3.13073e-19
1.06242e-18
5.17551e-18
1.79949e-17
3.06034e-17
3.10813e-17
2.21308e-17
9.39175e-18
2.76433e-18
3.39795e-19
2.06699e-19
9.39673e-19
5.52711e-18
1.96029e-17
2.91009e-17
2.92033e-17
2.19354e-17
9.28057e-18
2.65672e-18
3.34225e-19
1.23938e-19
8.3559e-19
6.06787e-18
2.05169e-17
2.81626e-17
2.74818e-17
2.14542e-17
8.93186e-18
2.55093e-18
3.28269e-19
6.33093e-20
7.26189e-19
6.7128e-18
2.12505e-17
2.72665e-17
2.60937e-17
2.05601e-17
8.55378e-18
2.4459e-18
3.2226e-19
2.95755e-20
6.50001e-19
7.50336e-18
2.26973e-17
2.80446e-17
2.64153e-17
2.06364e-17
8.24336e-18
2.34846e-18
3.14317e-19
1.03958e-20
6.82306e-19
9.0217e-18
2.33767e-17
2.92528e-17
2.82309e-17
2.20249e-17
8.03052e-18
2.25377e-18
3.0562e-19
1.61924e-20
1.09356e-18
1.0947e-17
2.24424e-17
2.89315e-17
2.92341e-17
2.19076e-17
8.00246e-18
2.19771e-18
3.02179e-19
3.12246e-19
3.73682e-18
1.37079e-17
2.05939e-17
2.62963e-17
2.66999e-17
2.16382e-17
7.9064e-18
2.15537e-18
3.01393e-19
3.14476e-18
8.17128e-18
1.31242e-17
1.9229e-17
2.44769e-17
2.47332e-17
2.1244e-17
7.70269e-18
2.11436e-18
3.0654e-19
6.27115e-18
8.84798e-18
1.31517e-17
1.93117e-17
2.47507e-17
2.53156e-17
2.1e-17
7.60888e-18
2.06482e-18
3.12243e-19
6.89278e-18
8.85297e-18
1.27647e-17
1.89372e-17
2.44088e-17
2.60174e-17
2.10058e-17
7.69374e-18
2.01857e-18
3.18992e-19
6.66268e-18
8.3946e-18
1.22336e-17
1.867e-17
2.47206e-17
2.72924e-17
2.12512e-17
7.90768e-18
1.99235e-18
3.25231e-19
5.98132e-18
7.68935e-18
1.17767e-17
1.91643e-17
2.70075e-17
2.73146e-17
2.17585e-17
8.27148e-18
1.97808e-18
3.32314e-19
5.00691e-18
6.63305e-18
1.06291e-17
1.95362e-17
3.15295e-17
2.74805e-17
2.25427e-17
8.80645e-18
1.99373e-18
3.37631e-19
4.04901e-18
5.36291e-18
9.02813e-18
1.78526e-17
3.05389e-17
2.89623e-17
2.36239e-17
9.53988e-18
2.04964e-18
3.3952e-19
3.16995e-18
4.23849e-18
7.65425e-18
1.64098e-17
2.9627e-17
3.36978e-17
2.49543e-17
8.6786e-18
2.19001e-18
3.5934e-19
2.41657e-18
3.33348e-18
6.6625e-18
1.55177e-17
2.9127e-17
3.31571e-17
2.60985e-17
7.83998e-18
2.47655e-18
3.6301e-19
1.43428e-20
6.49417e-19
3.7379e-18
5.82551e-18
5.69819e-18
5.03261e-18
4.32116e-18
3.62886e-18
2.94896e-18
2.28553e-18
1.26238e-20
2.4334e-19
1.83501e-18
3.87043e-18
4.39755e-18
4.11362e-18
3.66172e-18
3.20161e-18
2.74122e-18
2.25903e-18
1.10146e-20
8.50824e-20
7.97608e-19
2.09937e-18
2.884e-18
2.97227e-18
2.77101e-18
2.50496e-18
2.24065e-18
1.95217e-18
9.51514e-21
5.24439e-20
2.80406e-19
8.56861e-19
1.4343e-18
1.69697e-18
1.69039e-18
1.55995e-18
1.40857e-18
1.27318e-18
8.12545e-21
4.38745e-20
1.15539e-19
3.19485e-19
5.721e-19
7.4851e-19
8.1257e-19
7.97552e-19
7.54775e-19
7.11033e-19
6.84552e-21
3.72936e-20
9.44209e-20
1.69719e-19
2.53324e-19
3.33656e-19
4.00507e-19
4.47584e-19
4.71952e-19
4.8122e-19
5.67535e-21
3.15774e-20
7.98525e-20
1.39232e-19
1.99536e-19
2.5271e-19
2.9289e-19
3.16882e-19
3.25452e-19
3.27424e-19
4.61494e-21
2.61877e-20
6.62041e-20
1.09735e-19
1.44413e-19
1.66518e-19
1.77436e-19
1.79782e-19
1.77925e-19
1.77254e-19
3.6643e-21
2.06098e-20
4.41684e-20
5.79095e-20
6.29248e-20
6.42603e-20
6.41635e-20
6.33831e-20
6.29398e-20
6.35605e-20
2.82342e-21
1.04522e-20
1.04506e-20
1.04493e-20
1.04483e-20
1.04476e-20
1.04472e-20
1.04471e-20
1.04473e-20
1.04478e-20
)
;

boundaryField
{
    right
    {
        type            cyclic;
    }
    left
    {
        type            cyclic;
    }
    outerWall
    {
        type            nutkWallFunction;
        Cmu             0.09;
        kappa           0.41;
        E               9.8;
        value           uniform 0;
    }
    stirrerWall
    {
        type            nutkWallFunction;
        Cmu             0.09;
        kappa           0.41;
        E               9.8;
        value           uniform 0;
    }
    top
    {
        type            empty;
    }
    bottom
    {
        type            empty;
    }
}


// ************************************************************************* //
