/*--------------------------------*- C++ -*----------------------------------*\
  =========                 |
  \\      /  F ield         | OpenFOAM: The Open Source CFD Toolbox
   \\    /   O peration     | Website:  https://openfoam.org
    \\  /    A nd           | Version:  10
     \\/     M anipulation  |
\*---------------------------------------------------------------------------*/
FoamFile
{
    format      ascii;
    class       volScalarField;
    location    "600";
    object      omega;
}
// * * * * * * * * * * * * * * * * * * * * * * * * * * * * * * * * * * * * * //

dimensions      [0 0 -1 0 0 0 0];

internalField   nonuniform List<scalar> 
2000
(
86814.7
22254
7919.23
4399.01
3208.17
2672.91
2350.82
2118.2
1949.34
1840.66
1792.67
1818.6
1942.03
2032.92
1888.09
1771.32
1749.29
1742.21
1727.77
1714.85
86817.5
20796.2
7975.71
4491.37
3239.09
2667.86
2333.4
2098.88
1932.24
1830.82
1802.08
1872.98
2036.76
2018.43
1867.04
1798.36
1771.13
1764.49
1764.63
1770.2
86819.6
19566.7
8091.82
4644.9
3292.68
2656.61
2298.99
2062.88
1902.13
1811.45
1804.64
1901.36
2040.19
1976.19
1885.35
1822.3
1789.6
1792.36
1806.03
1828.5
86821.1
18525.4
8071.17
4760.75
3349.54
2648.91
2259.72
2017.11
1860.37
1780.66
1791.64
1913.07
2008.92
1961.86
1917.39
1841.94
1807.1
1817.24
1841.95
1883.53
86821.9
17876.3
7969.21
4806.1
3384.49
2642.88
2225.25
1972.15
1817.02
1747.45
1775.61
1907.67
1972.39
1957.89
1933.72
1850.09
1821.27
1833.91
1869.01
1933.72
86822.2
17504.7
7837.35
4790.4
3387.13
2629.23
2194.5
1934.63
1781.88
1718.57
1760.27
1885.8
1935.63
1950.61
1934.79
1852.82
1829.85
1841.31
1885.63
1978.02
86821.8
17177.3
7646.34
4711.67
3353.24
2600.8
2161.13
1902.21
1756.46
1697.93
1747.48
1852.88
1898.72
1937.95
1925.01
1857.17
1835.34
1838.71
1892.1
2016.9
86820.7
16792.2
7365.23
4561.17
3276.25
2552.18
2121.02
1870.38
1736.41
1686.41
1736.4
1815.26
1856.11
1911.24
1892.2
1843.58
1832.05
1828.13
1892.27
2053.65
86819.1
16260.7
6938.81
4310.56
3141.62
2476.8
2071.57
1836.98
1718.79
1679.56
1725.41
1778.21
1809.25
1864.47
1841.25
1815.05
1823.21
1818.2
1895.4
2096.3
86816.8
15619.9
6428.37
3955.91
2950.89
2374.46
2012.93
1802.26
1700.13
1674.42
1717.47
1744.52
1762.2
1808.91
1790.92
1787.38
1811.89
1822.52
1917.72
2159.75
86813.9
15087.9
5917.84
3603.91
2758.01
2268.45
1953.39
1769.39
1686.21
1672.45
1715.8
1719.72
1721.44
1755.78
1742.3
1746.55
1798.68
1846.4
1966.76
2249.73
86810.3
14910
5521.53
3389.99
2653.12
2207.58
1916.33
1746.94
1680.11
1677.58
1718.76
1707.15
1692.67
1713.8
1714.31
1735.29
1788.47
1868.42
2039.36
2384.28
86806.2
14675.7
5402.66
3440.65
2783.22
2277.39
1948.85
1757.39
1689.11
1698.58
1731.86
1710.54
1682.33
1684.75
1688.28
1717.19
1785.58
1902.23
2150.13
2585.25
86801.4
14437.4
5494.93
3837.24
3251.92
2605.15
2129.26
1846.48
1737.8
1738
1765.07
1739
1700.55
1684.8
1679.39
1701.84
1783.53
1975.1
2344.33
2896.65
86796
14337.1
5928.15
4601.8
4117.57
3498.86
2623.23
2105.72
1880.95
1834.89
1846.59
1817.73
1771.3
1743.58
1726.49
1746.99
1868.01
2179.78
2705.69
3390
86790.1
14601.3
6984.24
5993.28
5583.58
4951.55
3857.99
2790.18
2279.11
2099.67
2058.62
2014.4
1959.2
1923.66
1906.98
1950.04
2179.91
2677.93
3356.04
4164.91
86783.5
15964.7
9486.04
8748.72
8351.66
7638.54
6473.33
4754.31
3540.38
2957.38
2714.16
2578.58
2488.6
2450.3
2466.71
2598.52
3077.1
3783.45
4477.94
5372.67
86776.4
21797.4
16590.8
15584.3
14849.9
13879.7
12487.6
10433.3
7742.65
6254.91
5369.49
4810.77
4506.82
4416.07
4492.71
4750.75
5438.34
6038.88
6320.71
7528.6
86768.7
51248
45012.2
40964.7
37808.5
35041.3
32319.7
29367.1
25474.5
20635
18359.5
16513.1
15029.1
14164.4
13623
12960.1
12210.5
11959.2
12416.7
15453.9
338081
294034
258064
228311
203421
182390
164459
149047
135704
124076
113880
104892
96926.8
89835.7
83495.2
77802.9
72673.5
68035.1
63826.9
59997.5
1697.07
1645.64
1524.75
1312.16
1037.34
781.71
605.549
503.737
444.636
408.414
390.968
397.468
440.428
540.783
736.302
1092.35
1743.53
2970.02
5961.67
14006
1770.1
1733
1614.57
1386.87
1084.47
804.683
615.77
509.016
447.727
410.018
391.505
397.287
439.954
540.039
735.673
1092.22
1745.66
2962.69
5893.74
14005.7
1848.12
1827.68
1713.2
1468.9
1135.35
828.892
626.483
514.724
451.218
411.923
392.237
397.189
439.482
539.226
734.958
1092.09
1749.04
2964.15
5836.17
14005.5
1928.11
1929.51
1821.27
1558.19
1189.46
853.988
637.599
520.884
455.126
414.134
393.175
397.214
439.067
538.407
734.178
1091.88
1753.08
2973.23
5799.41
14005.4
2009.93
2039
1939.29
1654.72
1246.26
879.505
648.871
527.38
459.392
416.628
394.326
397.39
438.752
537.647
733.427
1091.68
1757.71
2991.04
5791.96
14005.3
2093.48
2156.8
2067.66
1757.98
1304.75
904.775
660.02
534.088
463.964
419.367
395.67
397.722
438.565
537.001
732.782
1091.58
1762.59
3016.6
5822.36
14005.3
2179.46
2283.62
2206.36
1866.6
1363.29
928.857
670.646
540.819
468.734
422.281
397.167
398.202
438.517
536.513
732.285
1091.73
1767.32
3047.35
5889.17
14005.4
2270.4
2420.78
2354.83
1978.2
1419.62
950.614
680.305
547.353
473.548
425.309
398.779
398.813
438.604
536.2
731.926
1092.18
1771.43
3077.41
5959.66
14005.6
2371.75
2570.56
2512.04
2089.49
1471.13
968.956
688.638
553.541
478.324
428.43
400.492
399.558
438.833
536.08
731.712
1092.82
1774.97
3104.38
6028.25
14005.8
2490.85
2738.4
2680.38
2197.53
1513.32
980.594
694.247
558.906
482.855
431.525
402.295
400.436
439.207
536.142
731.664
1093.44
1778.21
3126.8
6090.06
14006.1
2641.79
2941.2
2867.34
2296.91
1537.32
980.581
695.315
562.795
486.791
434.336
404.026
401.326
439.652
536.273
731.828
1094.07
1781.04
3143.67
6139.55
14006.5
2849.03
3198.62
3077.24
2379.1
1535.84
966.413
691.322
565.002
489.938
436.708
405.578
402.152
440.092
536.465
732.033
1094.77
1783.41
3154.41
6170.74
14006.9
3141.02
3537.45
3313.05
2433.2
1503.38
937.944
683.048
565.884
492.372
438.621
406.872
402.898
440.502
536.697
732.236
1095.55
1785.62
3159.45
6178.73
14007.5
3566.22
3999.59
3572.13
2444
1436.29
897.204
672.278
565.927
494.159
440.054
407.856
403.52
440.837
536.931
732.374
1096.37
1787.93
3161.06
6164.06
14008.1
4213.92
4653.45
3836.23
2389.55
1333.04
848.981
660.938
565.448
495.346
441.036
408.533
403.996
441.057
537.126
732.351
1097.19
1790.35
3164.87
6154.13
14008.7
5265.6
5602.13
4066.3
2252.33
1203.95
802.021
651.374
564.973
496.122
441.677
408.965
404.308
441.129
537.249
732.103
1097.98
1792.36
3171.65
6150.13
14009.5
7209.25
6967.19
4205.99
2032.76
1071.88
763.541
644.57
564.612
496.572
442.046
409.19
404.469
441.036
537.259
731.532
1098.63
1793.04
3181.38
6150.08
14010.3
11312.2
8767.67
4213.21
1775.38
961.339
737.637
640.769
564.529
496.873
442.259
409.257
404.492
440.757
537.111
730.549
1099.13
1791.5
3194.13
6148.73
14011.1
18962.2
11135.2
4162.74
1534.63
884.777
723.176
639.185
564.667
497.089
442.374
409.191
404.374
440.226
536.637
729.037
1098.99
1788.25
3210.36
6145.18
14012.1
36314.6
14624.7
4000.53
1321.11
838.666
716.021
638.774
565.066
497.328
442.368
408.882
403.937
439.315
535.673
726.922
1096.51
1783.44
3218.85
6148.47
14013.1
85702.6
17465.1
3234.84
1141.27
820.703
716.535
641.761
567.177
498.245
442.387
408.245
403.049
437.804
534.1
723.968
1092.38
1776.63
3217.36
6105.92
14005.5
85639
17599.2
3151.51
1122
819.891
718.84
644.565
569.763
500.127
443.452
408.58
402.796
437.052
532.981
722.553
1090.34
1775.11
3215.38
6108.42
13999.8
85582.4
17468.8
3094.64
1109.73
820.752
722.709
648.92
573.8
503.125
445.239
409.279
402.614
436.158
531.571
720.885
1088.04
1773.91
3214.18
6118.5
13994.6
85533
17258.9
3058.91
1103.97
823.083
727.349
653.803
578.284
506.469
447.268
410.124
402.505
435.269
530.121
719.165
1085.65
1772.72
3213.03
6131.01
13990.2
85490.7
17057.6
3045.85
1104.74
826.961
732.558
658.973
582.978
509.995
449.446
411.083
402.475
434.42
528.674
717.433
1083.21
1771.49
3211.8
6144.83
13986.4
85455.4
16897.9
3053.83
1111.51
832.354
738.192
664.287
587.759
513.618
451.729
412.141
402.529
433.631
527.255
715.717
1080.75
1770.18
3210.41
6159.52
13983.2
85427.3
16786.5
3081.27
1123.91
839.117
744.07
669.62
592.515
517.265
454.079
413.284
402.671
432.917
525.889
714.043
1078.29
1768.79
3208.82
6174.81
13980.6
85406.1
16718.8
3125.59
1141.51
847.033
750.056
674.799
597.114
520.858
456.453
414.496
402.899
432.294
524.6
712.44
1075.87
1767.33
3206.95
6190.43
13978.7
85392
16684
3182.86
1163.53
855.889
755.999
679.707
601.396
524.295
458.8
415.753
403.213
431.774
523.412
710.935
1073.52
1765.8
3204.73
6206.17
13977.4
85385
16667
3247.48
1188.92
865.432
761.729
684.201
605.253
527.448
461.052
417.03
403.609
431.373
522.351
709.561
1071.27
1764.21
3202.12
6221.79
13976.8
85385
16647.9
3313.02
1216.34
875.359
767.065
688.128
608.554
530.227
463.123
418.288
404.079
431.102
521.441
708.346
1069.15
1762.55
3199.02
6237.08
13976.8
85392
16602.1
3372.3
1244.28
885.311
771.826
691.338
611.161
532.527
464.953
419.484
404.608
430.966
520.711
707.298
1067.23
1760.84
3195.39
6251.85
13977.4
85406.1
16499.5
3417.28
1271.02
894.878
775.832
693.687
612.943
534.235
466.467
420.576
405.172
430.961
520.195
706.417
1065.57
1759.07
3191.15
6265.92
13978.7
85427.3
16304
3439.33
1294.65
903.602
778.904
695.039
613.777
535.245
467.589
421.52
405.752
431.087
519.882
705.748
1064.22
1757.24
3186.23
6279.11
13980.6
85455.4
15971.8
3429.77
1313.21
910.991
780.872
695.269
613.553
535.458
468.248
422.271
406.327
431.34
519.777
705.312
1063.21
1755.35
3180.55
6291.26
13983.2
85490.7
15450.1
3380.71
1324.86
916.543
781.575
694.263
612.173
534.786
468.373
422.784
406.872
431.712
519.885
705.125
1062.56
1753.38
3174.01
6302.21
13986.4
85533
14675.9
3286.25
1328
919.77
780.864
691.921
609.554
533.151
467.903
423.017
407.362
432.194
520.205
705.2
1062.25
1751.33
3166.46
6311.78
13990.2
85582.4
13574.9
3143.96
1321.57
920.252
778.609
688.154
605.632
530.495
466.785
422.93
407.772
432.771
520.731
705.542
1062.18
1749.26
3157.71
6319.68
13994.6
85639
12065.7
2958.14
1305.12
917.751
774.794
682.955
600.406
526.806
464.995
422.496
408.079
433.427
521.453
706.151
1062.33
1747.18
3147.55
6325.56
13999.8
85702.6
10039.4
2739.88
1278.98
912.03
769.332
676.224
593.832
522.064
462.518
421.693
408.261
434.139
522.353
707.013
1062.65
1745.08
3136.03
6329.53
14005.5
21565.8
6410.66
2424.93
1231.85
898.767
759.353
665.784
584.511
515.345
458.783
420.216
408.181
434.85
523.386
708.033
1062.86
1742.33
3120.52
6330.63
14013.1
3529.87
1784.48
1155.4
928.903
816.233
726.569
642.342
566.091
501.289
449.664
415.487
406.561
435.42
524.91
710.744
1063.52
1735.26
3092.66
6225.71
14012.1
1320
1091.88
962.402
875.163
793.394
708.892
625.933
551.899
490.474
442.586
411.8
405.386
435.964
526.435
712.958
1065.56
1736
3071.58
6134.61
14011.1
1067.25
1001.29
936.086
866.467
785.786
698.887
614.333
540.845
481.526
436.501
408.532
404.358
436.513
527.998
715.155
1067.93
1737.01
3056.62
6057.29
14010.3
1019.38
982.229
930.554
863.159
780.115
689.944
603.657
530.702
473.357
430.941
405.519
403.399
437.046
529.537
717.366
1070.36
1738.64
3045.37
5987.61
14009.5
1014.23
983.303
934.03
864.673
777.823
683.213
594.571
521.779
466.065
425.925
402.76
402.51
437.547
531.011
719.509
1072.76
1740.61
3036.91
5916.58
14008.7
1024.97
995.068
943.827
870.112
777.472
677.924
587.105
514.081
459.662
421.483
400.294
401.746
438.047
532.436
721.586
1075.08
1742.82
3031.1
5841.2
14008.1
1046.23
1014.38
959.053
879.176
779.417
674.184
580.547
507.394
454.114
417.603
398.126
401.134
438.541
533.786
723.564
1077.29
1745.09
3028.17
5761.79
14007.5
1074.72
1039.26
978.608
891.252
783.506
671.991
575.125
501.496
449.268
414.299
396.294
400.628
439.02
535.057
725.429
1079.36
1747.3
3028.56
5682.54
14006.9
1108.41
1068.79
1002.01
906.438
789.995
671.44
570.883
496.569
445.179
411.528
394.844
400.224
439.483
536.243
727.165
1081.25
1749.28
3032.69
5608.15
14006.5
1147.63
1103.6
1030.22
925.724
799.51
672.91
568.049
492.749
441.96
409.357
393.739
399.916
439.922
537.337
728.763
1082.96
1750.81
3040.54
5550.44
14006.1
1191.93
1143.3
1062.94
948.866
811.87
676.368
566.7
490.089
439.619
407.756
392.866
399.654
440.355
538.364
730.227
1084.5
1751.66
3051.23
5528.51
14005.8
1240.44
1187.04
1099.43
975.249
826.656
681.588
566.732
488.531
438.085
406.666
392.17
399.42
440.717
539.289
731.667
1085.89
1751.67
3062.88
5576.09
14005.6
1292.45
1234.2
1139.28
1004.57
843.687
688.45
568.03
487.962
437.261
406.001
391.632
399.205
441.003
540.07
732.956
1087.28
1750.84
3072.31
5752.96
14005.4
1347.42
1284.44
1182.39
1036.82
862.978
696.897
570.48
488.266
437.046
405.648
391.24
399.009
441.217
540.71
734.084
1088.55
1749.57
3074.99
5940.68
14005.3
1404.83
1337.73
1228.8
1072.09
884.566
706.873
573.988
489.356
437.382
405.587
390.988
398.829
441.359
541.202
735.042
1089.71
1748.14
3068.73
6106.79
14005.3
1463.81
1393.73
1278.48
1110.58
908.528
718.316
578.442
491.122
438.151
405.783
390.858
398.653
441.418
541.528
735.801
1090.74
1746.6
3053.55
6207.21
14005.4
1523.35
1452.31
1332.16
1152.76
934.94
731.174
583.756
493.468
439.292
406.2
390.828
398.466
441.383
541.678
736.346
1091.58
1745.22
3032.3
6178.52
14005.5
1584.91
1514.89
1390.48
1198.52
963.382
745.094
589.72
496.161
440.666
406.73
390.832
398.236
441.253
541.659
736.675
1092.23
1744.27
3010.16
6126.16
14005.7
1642.81
1576.36
1450.03
1247.08
994.232
759.671
595.522
498.683
441.885
407.134
390.714
397.849
440.95
541.425
736.751
1092.58
1743.89
2988.82
6042.26
14006
59997.5
6301.37
1661.37
1138.7
1049.26
1033.85
1041.32
1061.87
1091.48
1127.36
1168.77
1215.29
1266.3
1321.3
1379.95
1441.66
1504.9
1566.19
1625.63
1676.9
63826.9
7616.27
1954.61
1212.16
1084.08
1053.65
1054.01
1071.81
1100.73
1137.31
1179.81
1227.46
1279.34
1334.81
1394.03
1457.31
1524.02
1589.33
1647.64
1700.52
68035.1
8915.91
2244.34
1290.53
1123.22
1077.08
1068.56
1080.37
1105.8
1141.88
1185.65
1235.21
1289.3
1346.65
1406.83
1469.7
1534.48
1599.48
1656.08
1711.3
72673.5
10087.3
2531.77
1373.97
1165
1103.48
1084.22
1087.18
1106.23
1139.14
1182.78
1234.13
1292
1354.94
1421.73
1491.39
1562.12
1629.67
1682.01
1717.63
77802.9
11319.3
2864.64
1467.1
1207.14
1129.49
1099.31
1092.26
1102.25
1128.3
1168.5
1218.93
1278.1
1344.84
1417.87
1495.91
1579.91
1672
1761
1786.93
83495.2
13067.1
3317.3
1584.87
1249.18
1151.44
1110.33
1093.22
1093.9
1111.52
1145.75
1193.18
1250.84
1319.78
1396.04
1476.33
1560.29
1657.45
1784.65
1891.2
89835.7
15819.5
4032.22
1777.47
1307.1
1174.43
1119.76
1093.15
1084.6
1092.29
1120.22
1166.19
1222.95
1293.8
1374.31
1457.8
1537.64
1617.35
1722.23
1858.3
96926.8
18280.6
5477.96
2230.69
1428.19
1216.83
1139.85
1105.28
1093.26
1097.01
1119.92
1162.06
1209.89
1276.76
1361.29
1451.79
1536.19
1609.41
1684.43
1789.75
104892
20697.4
7200.44
3139.11
1796.38
1356.34
1198.04
1133.69
1109.41
1105.56
1128.27
1164.82
1207.35
1268.95
1357.7
1457.35
1549.65
1625.27
1688.37
1751.1
113880
23040.3
8895.66
4331.18
2496.4
1725.31
1392.24
1240.83
1170.26
1139.67
1141.45
1164.47
1208.18
1281.24
1376.42
1478.2
1573.4
1651.28
1711.37
1757.74
124076
25223.7
10455.5
5616.52
3449.06
2378.57
1826.37
1534.87
1378.22
1295.56
1261.03
1260.33
1295.89
1369.14
1462.88
1560.46
1650.58
1722.64
1775.94
1814.37
135704
27234.7
11747.7
6809.31
4488.24
3224.7
2494.56
2060.72
1800.64
1647.49
1565.04
1532.99
1543.05
1592.11
1661.4
1734.72
1802.42
1857.19
1898.04
1927.59
149047
29160.1
12715.2
7748.14
5429.61
4101.29
3273.74
2741.07
2394.96
2172.23
2036.04
1962.15
1931.57
1936.19
1960.36
1991.91
2023.59
2050.96
2074.91
2097.4
164459
31214.2
13416.8
8350.51
6108.27
4825.1
3992.15
3422.62
3027.39
2755.03
2572.18
2454.14
2378.2
2330.93
2302.7
2287.64
2283.3
2288.38
2301.38
2323.98
182390
33718.9
14067.8
8691.8
6468.84
5260.34
4483.05
3936.24
3538.82
3248.84
3037.66
2884.41
2770.92
2680.93
2614.18
2572.35
2557.28
2567.06
2593.5
2631.08
203421
37057
15006.1
9032.55
6650.31
5429.91
4687.2
4179.83
3809.19
3529.44
3315.28
3150.3
3023.44
2930.06
2878.11
2872.75
2912.56
2985.58
3071.48
3145.18
228311
41483.3
16477
9683.39
6979.87
5628.25
4846.01
4345.74
4002.72
3757.04
3578.42
3451.65
3372.88
3361.57
3433.84
3579.55
3778.85
3996.85
4186.72
4304.72
258064
47339.7
19213
11557.1
8475.12
6957.06
6123.24
5644.29
5366.74
5214.84
5151.58
5159.92
5240.35
5452.68
5774.7
6166.16
6596.47
7020.15
7342.17
7595.5
294034
53884.4
26759.8
20622.2
17682.8
15732.7
14834.7
14509.5
14411.5
14431.3
14527.2
14681.4
14887.2
15196.9
15611.2
16112.4
16740.8
17523.4
18317.1
19847.4
338081
86768.7
86776.4
86783.5
86790.1
86796
86801.4
86806.2
86810.3
86813.9
86816.8
86819.1
86820.7
86821.8
86822.2
86821.9
86821.1
86819.6
86817.5
86814.7
)
;

boundaryField
{
    right
    {
        type            cyclic;
    }
    left
    {
        type            cyclic;
    }
    outerWall
    {
        beta1           0.075;
        blended         0;
        type            omegaWallFunction;
        value           nonuniform List<scalar> 
60
(
14006
14005.7
14005.5
14005.4
14005.3
14005.3
14005.4
14005.6
14005.8
14006.1
14006.5
14006.9
14007.5
14008.1
14008.7
14009.5
14010.3
14011.1
14012.1
14013.1
14005.5
13999.8
13994.6
13990.2
13986.4
13983.2
13980.6
13978.7
13977.4
13976.8
13976.8
13977.4
13978.7
13980.6
13983.2
13986.4
13990.2
13994.6
13999.8
14005.5
14013.1
14012.1
14011.1
14010.3
14009.5
14008.7
14008.1
14007.5
14006.9
14006.5
14006.1
14005.8
14005.6
14005.4
14005.3
14005.3
14005.4
14005.5
14005.7
14006
)
;
    }
    stirrerWall
    {
        beta1           0.075;
        blended         0;
        type            omegaWallFunction;
        value           nonuniform List<scalar> 
100
(
86814.7
86817.5
86819.6
86821.1
86821.9
86822.2
86821.8
86820.7
86819.1
86816.8
86813.9
86810.3
86806.2
86801.4
86796
86790.1
86783.5
86776.4
86768.7
338081
338081
294034
258064
228311
203421
182390
164459
149047
135704
124076
113880
104892
96926.8
89835.7
83495.2
77802.9
72673.5
68035.1
63826.9
59997.5
85702.6
85639
85582.4
85533
85490.7
85455.4
85427.3
85406.1
85392
85385
85385
85392
85406.1
85427.3
85455.4
85490.7
85533
85582.4
85639
85702.6
59997.5
63826.9
68035.1
72673.5
77802.9
83495.2
89835.7
96926.8
104892
113880
124076
135704
149047
164459
182390
203421
228311
258064
294034
338081
338081
86768.7
86776.4
86783.5
86790.1
86796
86801.4
86806.2
86810.3
86813.9
86816.8
86819.1
86820.7
86821.8
86822.2
86821.9
86821.1
86819.6
86817.5
86814.7
)
;
    }
    top
    {
        type            empty;
    }
    bottom
    {
        type            empty;
    }
}


// ************************************************************************* //
