/*--------------------------------*- C++ -*----------------------------------*\
  =========                 |
  \\      /  F ield         | OpenFOAM: The Open Source CFD Toolbox
   \\    /   O peration     | Website:  https://openfoam.org
    \\  /    A nd           | Version:  10
     \\/     M anipulation  |
\*---------------------------------------------------------------------------*/
FoamFile
{
    format      ascii;
    class       volScalarField;
    location    "600";
    object      omega;
}
// * * * * * * * * * * * * * * * * * * * * * * * * * * * * * * * * * * * * * //

dimensions      [0 0 -1 0 0 0 0];

internalField   nonuniform List<scalar> 
420
(
21252.7
3485.18
1250.5
677.844
458.641
352.691
302.7
297.539
339.038
409.384
21253.7
3489.69
1264.62
682.965
456.616
348.338
299.302
298.077
345.059
428.561
21254.2
3527.6
1293.77
693.548
458.162
346.739
298.591
301.452
356.215
458.013
21254
3567.03
1316.51
708.276
467.468
353.32
304.975
310.38
377.575
506.039
21253.2
3546.39
1326.74
733.342
494.717
379.031
329.851
338.627
426.73
592.089
21251.7
3535.58
1369.31
809.649
576.542
457.333
406.169
421.289
540.173
752.73
21249.7
3701.91
1626.62
1092.14
840.786
696.816
630.713
651.013
794.496
1062.37
21247.1
4646.58
2772.35
2120.34
1727.45
1462.85
1305.4
1262.16
1365.52
1709.63
21243.8
10310.1
7938.91
6411.49
5309.7
4487.9
3876.24
3395.66
3117.65
3587.22
78643.9
60596.7
48114.3
39124.4
32436.5
27327.1
23335.9
20159.1
17589.3
15481.3
487.896
536.403
490.743
382.372
310.603
297.46
316.244
435.428
823.082
3581.27
526.882
584.426
520.747
390.201
310.93
297.627
317.305
434.495
800.617
3581.17
580.145
644.808
553.314
396.525
311.02
298.27
318.929
436.79
802.743
3581.13
658.736
724.397
588.738
400.721
310.692
299.109
320.891
441.679
808.234
3581.18
782.75
831.999
625.277
401.439
309.719
300.027
323.198
447.648
814.929
3581.3
989.13
978.927
658.463
396.948
308.012
300.966
325.665
454.651
824.832
3581.49
1351.72
1177.74
681.187
386.385
305.767
301.86
328.183
462.734
838.116
3581.76
2037.31
1445.27
688.409
371.572
303.611
302.665
330.616
471.884
855.377
3582.1
3507.3
1825.79
683.329
356.639
302.097
303.208
332.752
482.111
877.593
3582.51
7507.73
2357.34
665.144
344.606
301.306
303.121
334.255
493.278
902.756
3582.99
21359.1
2923.11
602.11
334.19
301.475
303.077
334.871
504.547
924.154
3575.63
21359.1
2383.97
520.952
329.769
302.425
303.462
334.693
504.657
930.217
3575.63
3849.33
920.416
401.531
324.734
303.46
304.468
336.18
505.59
940.225
3582.99
806.967
434.722
354.881
323.474
303.832
304.994
338.747
516.168
962.243
3582.51
404.421
367.505
351.643
324.495
303.059
303.974
339.464
527.219
991.685
3582.1
353.944
365.435
357.592
327.092
302.574
302.859
338.957
531.163
1023.28
3581.76
356.256
376.09
367.019
330.681
301.951
301.227
337.116
531.194
1054.74
3581.49
369.339
391.83
379.494
335.55
301.383
299.179
333.816
526.077
1085.21
3581.3
386.778
411.665
395.209
341.996
301.112
296.893
328.957
514.818
1107.23
3581.18
407.458
435.747
414.521
350.353
301.51
294.645
322.704
496.785
1112.91
3581.13
431.481
464.821
438.054
361.133
303.508
293.426
316.335
472.815
1079.21
3581.17
460.327
500.2
465.52
373.918
307.858
295.05
313.907
448.096
1002.44
3581.27
15481.3
1905.31
531.935
348.68
326.985
332.772
345.601
361.311
378.156
395.772
17589.3
2530.3
701.135
374.087
310.148
300.515
305.118
314.84
325.737
334.539
20159.1
3276.3
967.721
466.242
333.905
295.172
285.122
286.394
292.228
296.349
23335.9
4233.94
1445.65
691.913
441.018
347.965
311.476
299.665
299.513
301.977
27327.1
5060.91
1921.81
1005.68
645.855
484.601
407.403
371.632
357.828
354.039
32436.5
5953.96
2351.65
1308.3
876.523
665.489
554.409
496.096
470.482
461.42
39124.4
7031.76
2780.69
1594.79
1112.81
878.655
758.116
700.716
682.265
678.156
48114.3
8478.98
3353.94
2023.46
1537.57
1333.46
1251.4
1235.08
1247.96
1252.69
60596.7
10773.7
5027.23
3834.34
3528.73
3455.39
3460.61
3503.21
3527.89
3493.44
78643.9
21243.8
21247.1
21249.7
21251.7
21253.2
21254
21254.2
21253.7
21252.7
)
;

boundaryField
{
    right
    {
        type            cyclic;
    }
    left
    {
        type            cyclic;
    }
    outerWall
    {
        beta1           0.075;
        blended         0;
        type            omegaWallFunction;
        value           nonuniform List<scalar> 
22
(
3581.27
3581.17
3581.13
3581.18
3581.3
3581.49
3581.76
3582.1
3582.51
3582.99
3575.63
3575.63
3582.99
3582.51
3582.1
3581.76
3581.49
3581.3
3581.18
3581.13
3581.17
3581.27
)
;
    }
    stirrerWall
    {
        beta1           0.075;
        blended         0;
        type            omegaWallFunction;
        value           nonuniform List<scalar> 
42
(
21252.7
21253.7
21254.2
21254
21253.2
21251.7
21249.7
21247.1
21243.8
78643.9
78643.9
60596.7
48114.3
39124.4
32436.5
27327.1
23335.9
20159.1
17589.3
15481.3
21359.1
21359.1
15481.3
17589.3
20159.1
23335.9
27327.1
32436.5
39124.4
48114.3
60596.7
78643.9
78643.9
21243.8
21247.1
21249.7
21251.7
21253.2
21254
21254.2
21253.7
21252.7
)
;
    }
    top
    {
        type            empty;
    }
    bottom
    {
        type            empty;
    }
}


// ************************************************************************* //
