/*--------------------------------*- C++ -*----------------------------------*\
  =========                 |
  \\      /  F ield         | OpenFOAM: The Open Source CFD Toolbox
   \\    /   O peration     | Website:  https://openfoam.org
    \\  /    A nd           | Version:  10
     \\/     M anipulation  |
\*---------------------------------------------------------------------------*/
FoamFile
{
    format      ascii;
    class       volScalarField;
    location    "600";
    object      p;
}
// * * * * * * * * * * * * * * * * * * * * * * * * * * * * * * * * * * * * * //

dimensions      [0 2 -2 0 0 0 0];

internalField   nonuniform List<scalar> 
2000
(
-6.33714
149.192
296.41
470.717
668.711
887.404
1125.94
1381.02
1647.62
1920.75
2195.92
2468.98
2737.83
3003.03
3264.54
3522.35
3777.82
4029.78
4274.77
4512.48
-11.3412
143.545
285.757
453.735
644.547
855.846
1088.03
1338.95
1604.16
1878.49
2156.87
2434.88
2710.23
2983.29
3253.5
3520.02
3782.14
4037.27
4283.17
4521.12
-17.529
138.615
277.582
440.22
624.211
827.615
1051.82
1296.67
1558.95
1833.69
2115.31
2399.09
2683.1
2966.99
3247.19
3520.54
3786.2
4043.34
4290.69
4529.1
-23.6157
133.502
270.209
428.788
607.387
804.403
1020.76
1258.48
1516.44
1790.47
2075.03
2365.62
2660.61
2956.23
3244.74
3522.72
3791
4049.48
4297.95
4537.01
-29.1439
127.987
262.78
418.096
592.32
784.835
995.605
1227.15
1480.5
1752.99
2040.02
2338.33
2645.14
2951.23
3245.82
3526.74
3796.52
4055.73
4304.93
4544.11
-34.0582
122.336
255.098
407.416
577.957
767.172
974.916
1202.55
1452.45
1723.61
2013.35
2319.94
2637.58
2951.56
3249.65
3532.24
3802.97
4061.87
4310.97
4550.4
-38.3162
116.793
247.287
396.686
563.994
750.527
956.741
1183
1431.63
1703.07
1996.77
2311.19
2637.32
2956.19
3255.19
3538.04
3808.92
4067.75
4317.18
4556.75
-41.9321
111.779
239.843
386.244
550.419
734.529
939.637
1166.28
1416.03
1690.17
1989.17
2310.23
2641.7
2962.28
3260.16
3542.9
3814.81
4073.83
4322.93
4562.3
-44.8025
107.707
233.361
376.589
537.401
719.025
923.079
1150.67
1403.13
1682.04
1987.12
2313.44
2647.14
2966.89
3263.49
3546.25
3819.03
4078.85
4328.53
4568.15
-46.8637
104.815
228.352
368.537
525.663
704.367
907.171
1135.4
1390.95
1675.41
1986.72
2317.24
2651.34
2969.39
3264.42
3547.53
3821.98
4083.41
4333.74
4573.61
-48.0427
103.382
225.382
362.829
516.167
691.392
892.397
1120.57
1378.63
1668.17
1985.13
2318.83
2652.18
2968.13
3262.17
3546.12
3822.67
4086.76
4339.1
4580.17
-48.3112
103.64
225.11
360.223
509.784
681.126
879.663
1107
1366.31
1659.29
1980.43
2316.12
2649.1
2963.79
3257.2
3542.16
3821.5
4089.55
4344.45
4586.8
-47.8011
105.644
227.973
361.646
507.715
674.966
870.156
1095.88
1354.87
1648.71
1971.86
2308.98
2642.07
2956.25
3249.51
3534.69
3816.57
4089.24
4347.86
4592.88
-46.8116
109.208
233.979
367.549
511.087
674.66
865.774
1088.44
1344.85
1636.99
1959.85
2297.79
2631.28
2945.09
3237.52
3522.51
3807.44
4085.57
4348.63
4597.01
-45.6372
113.834
242.642
377.901
520.428
681.066
868.29
1086.08
1337.36
1625.42
1945.83
2283.11
2616.03
2929.27
3221.16
3505.58
3792.34
4074.85
4342.53
4595.95
-44.7333
118.726
253.005
392.085
536.118
694.74
878.457
1091.1
1335.69
1617.24
1932.32
2265.43
2594.76
2905.1
3195.66
3479.27
3766.53
4053.62
4328.17
4589.11
-44.6652
123.093
263.685
408.435
557.298
716.884
897.642
1105.81
1344.5
1618
1922.56
2245
2565.63
2870.21
3158.75
3441.21
3727.35
4018.1
4302.56
4576.57
-45.7374
126.53
273.233
424.44
580.558
745.495
926.069
1130.83
1364.01
1628.66
1917.48
2219.76
2523.35
2817.94
3102.84
3384.25
3669.71
3963.1
4258.87
4553.16
-48.1485
129.484
280.538
437.096
600.86
773.838
959.256
1163.19
1390.84
1644.35
1916.93
2197.2
2477.84
2755.51
3030.34
3307.28
3592.72
3890.37
4198.8
4514.05
-51.4212
132.849
283.926
443.128
612.218
792.147
984.546
1191.59
1416.27
1657.43
1912.86
2175.18
2437.35
2698.7
2964.02
3238.9
3529.1
3836.94
4156.08
4477.44
4746.37
4983.6
5229.13
5485.11
5754.15
6038.16
6338.28
6655.32
6990.65
7346
7723.44
8125.18
8553.97
9012.54
9503.41
10033.2
10592.2
11234
11789.3
12876.3
4754.88
4991.52
5236.3
5491.24
5758.98
6041.81
6340.95
6657.27
6992.09
7347.08
7724.25
8125.78
8554.5
9012.93
9503.75
10033.4
10592.4
11234
11789.5
12872
4762.85
4999.18
5243.26
5497.23
5763.94
6045.81
6344.12
6659.75
6994.06
7348.62
7725.47
8126.73
8555.28
9013.47
9504.21
10033.6
10592.6
11234.2
11789.2
12868.3
4770.65
5006.42
5249.82
5503.04
5768.98
6050.09
6347.66
6662.68
6996.49
7350.6
7727.05
8127.95
8556.22
9014.09
9504.72
10033.9
10592.6
11234.3
11788.4
12865.4
4777.48
5013.04
5256.12
5508.85
5774.16
6054.62
6351.58
6666.07
6999.39
7353.02
7729.01
8129.47
8557.38
9014.84
9505.26
10034.1
10592.6
11234.3
11787.4
12862.9
4784.06
5019.6
5262.39
5514.69
5779.47
6059.36
6355.77
6669.76
7002.61
7355.75
7731.24
8131.19
8558.65
9015.62
9505.75
10034.2
10592.3
11234
11786.3
12860.8
4790.29
5025.68
5268.4
5520.49
5784.86
6064.17
6360.04
6673.55
7005.93
7358.56
7733.52
8132.95
8559.91
9016.36
9506.16
10034.1
10591.8
11233.6
11785.1
12858.8
4795.92
5031.58
5274.48
5526.4
5790.33
6069.05
6364.42
6677.45
7009.34
7361.43
7735.8
8134.68
8561.07
9017.01
9506.41
10033.7
10591
11232.9
11783.9
12856.5
4801.66
5037.5
5280.72
5532.58
5796.05
6074.2
6369.1
6681.65
7012.98
7364.43
7738.13
8136.38
8562.14
9017.56
9506.48
10033.1
10590.1
11231.9
11782.8
12854
4807.38
5043.71
5287.55
5539.33
5802.2
6079.66
6374.02
6686.01
7016.7
7367.46
7740.45
8138.06
8563.14
9018.05
9506.38
10032.3
10589.5
11230.8
11781.7
12851.2
4814.17
5050.79
5295.16
5546.54
5808.55
6085.18
6378.92
6690.3
7020.33
7370.41
7742.65
8139.59
8563.95
9018.4
9506.1
10031.6
10589.2
11229.5
11780.7
12847.8
4821.31
5058.69
5303.61
5554.18
5815.08
6090.82
6383.82
6694.5
7023.76
7373.1
7744.59
8140.9
8564.53
9018.6
9505.66
10031.1
10588.9
11227.8
11779.7
12843.5
4829.19
5067.83
5312.87
5561.99
5821.61
6096.44
6388.64
6698.62
7027.1
7375.67
7746.35
8142.01
8564.88
9018.67
9505.04
10030.5
10588.2
11225.1
11778.5
12837.9
4836.19
5077.12
5322.14
5569.4
5827.65
6101.69
6393.02
6702.25
7029.94
7377.78
7747.71
8142.79
8564.93
9018.56
9504.04
10029.3
10586.8
11221.2
11777.5
12831.3
4841.29
5086.43
5330.87
5576.06
5832.91
6106.31
6396.83
6705.4
7032.33
7379.49
7748.71
8143.27
8564.72
9018.26
9502.6
10028.1
10585.5
11216.9
11777.4
12824.5
4844.68
5095.36
5338.04
5581.54
5837.08
6110.08
6399.9
6707.93
7034.21
7380.81
7749.42
8143.56
8564.4
9017.91
9501
10027.3
10583.8
11212.2
11779.3
12818.6
4846.96
5101.64
5340.42
5584.07
5839.18
6112.53
6402.03
6709.81
7035.59
7381.79
7749.94
8143.79
8564.14
9017.69
9499.34
10026.3
10580.3
11205.9
11783
12812.8
4844.28
5101.19
5336.07
5583.39
5839.57
6113.95
6403.35
6711
7036.38
7382.27
7750.11
8143.8
8563.87
9017.56
9498.13
10025.8
10576
11198.8
11792.2
12798
4832.73
5095.59
5330.48
5582.29
5839.77
6114.75
6403.94
6711.31
7036.35
7381.98
7749.65
8143.27
8563.4
9017.12
9497.95
10026.9
10576.1
11196.3
11815.9
12753.4
4816.1
5101.31
5329.24
5584.18
5840.11
6115.68
6404.24
6711.51
7036.22
7381.79
7749.34
8143.15
8563.31
9017.91
9498.37
10030.9
10577.3
11214.5
11838.8
12710.7
4782
5125.17
5313.15
5587.29
5834.67
6116.57
6403.6
6712.87
7037.1
7383.39
7750.32
8145.3
8563.43
9023.24
9495.69
10046.5
10560.1
11265.6
11771.1
12805.1
4771.37
5126.88
5306.73
5585.22
5831.09
6114.81
6401.81
6711.74
7036.03
7382.54
7749.37
8144.66
8562.36
9023.41
9494.09
10049.4
10555.3
11276.9
11754.9
12828.7
4762.21
5126.48
5300.64
5582.94
5827.67
6113.14
6400.24
6710.82
7035.18
7381.89
7748.63
8144.19
8561.48
9023.63
9492.68
10052.2
10552
11286.4
11741.7
12847
4753.83
5125.26
5294.94
5580.68
5824.54
6111.62
6398.9
6710.07
7034.49
7381.36
7748.01
8143.79
8560.7
9023.82
9491.36
10054.9
10548.6
11295
11729.4
12863.7
4745.99
5123.49
5289.62
5578.47
5821.69
6110.29
6397.77
6709.48
7033.94
7380.93
7747.48
8143.43
8559.97
9023.96
9490.1
10057.4
10545.1
11303.3
11717.5
12879.6
4738.72
5121.34
5284.72
5576.36
5819.15
6109.15
6396.86
6709.03
7033.5
7380.56
7746.99
8143.07
8559.26
9024
9488.9
10059.6
10541.6
11311.3
11705.7
12894.7
4732.01
5118.94
5280.3
5574.4
5816.93
6108.19
6396.13
6708.68
7033.13
7380.22
7746.53
8142.69
8558.56
9023.95
9487.75
10061.5
10538.1
11318.8
11694
12909.1
4725.82
5116.4
5276.42
5572.63
5815.06
6107.39
6395.52
6708.37
7032.76
7379.85
7746.03
8142.25
8557.84
9023.77
9486.63
10063.2
10534.5
11326
11682.3
12922.9
4720.18
5113.83
5273.15
5571.1
5813.51
6106.68
6394.98
6708.02
7032.32
7379.39
7745.46
8141.72
8557.08
9023.46
9485.5
10064.5
10530.9
11332.9
11670.7
12936
4715.18
5111.36
5270.53
5569.8
5812.25
6105.99
6394.38
6707.54
7031.73
7378.78
7744.78
8141.08
8556.26
9023.01
9484.36
10065.8
10527.3
11339.5
11658.9
12948.6
4711.02
5109.14
5268.59
5568.74
5811.19
6105.2
6393.6
6706.79
7030.9
7377.95
7743.94
8140.3
8555.39
9022.45
9483.23
10067.1
10524
11346
11646.9
12960.7
4707.89
5107.25
5267.33
5567.88
5810.21
6104.17
6392.51
6705.67
7029.73
7376.85
7742.91
8139.38
8554.48
9021.8
9482.12
10068.2
10521.1
11352.3
11634.3
12972.4
4706.05
5105.77
5266.66
5567.07
5809.17
6102.73
6390.98
6704.08
7028.17
7375.44
7741.69
8138.34
8553.55
9021.1
9481.08
10069
10518.6
11358.8
11621.2
12984.3
4705.72
5104.65
5266.42
5566.09
5807.87
6100.75
6388.88
6701.95
7026.2
7373.74
7740.31
8137.21
8552.66
9020.42
9480.2
10069.4
10516.4
11365.3
11607.5
12996.5
4707
5103.68
5266.38
5564.63
5806.12
6098.06
6386.15
6699.25
7023.85
7371.79
7738.82
8136.06
8551.89
9019.82
9479.61
10069.4
10514.7
11371.6
11593.1
13009.1
4709.58
5102.52
5266.13
5562.32
5803.67
6094.55
6382.74
6696.01
7021.16
7369.67
7737.3
8134.96
8551.29
9019.37
9479.41
10069.3
10513.5
11377.5
11578
13022.7
4712.19
5100.75
5265.03
5558.82
5800.26
6090.15
6378.65
6692.32
7018.24
7367.48
7735.83
8134
8550.91
9019.19
9479.5
10069.5
10511.9
11384
11560.7
13038.9
4713.04
5097.78
5262.63
5553.97
5795.91
6085.12
6374.19
6688.52
7015.4
7365.51
7734.66
8133.41
8550.88
9019.55
9479.82
10070.5
10509
11393.6
11538.7
13060.6
4713.24
5092.33
5259.8
5547.71
5791.21
6079.89
6370.01
6685.15
7013.19
7364.18
7734.18
8133.49
8551.66
9020.47
9481.12
10071.5
10506.9
11402.9
11516.5
13083.3
4720.99
5083.15
5259.31
5540.7
5787.54
6075.2
6366.87
6682.57
7011.88
7363.55
7734.46
8134.01
8553.34
9021.03
9484.58
10068.9
10513.4
11395.5
11519.5
13083.2
4802.22
5043.58
5266.08
5518.39
5779.62
6061.74
6358.97
6674.79
7007.63
7360.28
7733.86
8132.61
8556.94
9015.9
9498.69
10039.7
10570.7
11273
11700.6
12947.4
4803.57
5025.93
5259.67
5508.38
5773.11
6055.56
6355.26
6672.27
7006.75
7360.17
7734.74
8133.5
8559.21
9015.73
9503.73
10032.7
10587.9
11231.9
11767.8
12895.5
4782.14
5008.61
5246.01
5496.97
5764.12
6048.36
6349.87
6668.43
7004.36
7358.91
7734.43
8133.84
8560.14
9016.7
9505.52
10033.3
10592.7
11229.1
11792.6
12872.2
4762.95
4992.25
5232.11
5485.45
5754.53
6040.49
6343.59
6663.65
7000.89
7356.57
7733.03
8133.24
8560.16
9017.27
9506.49
10035.1
10594.8
11232.9
11801
12862
4747.37
4977.4
5218.82
5473.97
5744.71
6032.21
6336.81
6658.29
6996.8
7353.6
7731.05
8132.12
8559.76
9017.5
9507.27
10036.7
10597
11236
11804.6
12857.2
4734.99
4964.85
5207.07
5463.41
5735.37
6024.14
6330.04
6652.78
6992.45
7350.3
7728.71
8130.65
8559.03
9017.42
9507.75
10037.8
10598.4
11237.9
11806.4
12855.1
4725.19
4954.67
5197.32
5454.33
5727.11
6016.86
6323.78
6647.56
6988.21
7346.99
7726.29
8129.05
8558.12
9017.09
9507.97
10038.6
10599.3
11239.1
11807.3
12854.2
4717.85
4946.98
5189.75
5447.06
5720.35
6010.73
6318.4
6642.96
6984.4
7343.95
7724.01
8127.46
8557.15
9016.64
9507.95
10038.9
10599.7
11239.8
11807.2
12853.6
4713.03
4941.77
5184.4
5441.79
5715.31
6006.03
6314.16
6639.26
6981.26
7341.42
7722.08
8126.08
8556.24
9016.14
9507.77
10038.9
10599.7
11240
11805.8
12853.6
4710.34
4938.73
5181.19
5438.52
5712.04
6002.87
6311.23
6636.63
6978.97
7339.53
7720.61
8125.02
8555.51
9015.72
9507.55
10038.7
10599.6
11239.8
11803.3
12856
4709.44
4937.68
5180.01
5437.18
5710.53
6001.29
6309.67
6635.14
6977.61
7338.37
7719.69
8124.36
8555.07
9015.47
9507.38
10038.6
10599.4
11239.2
11801.3
12861.4
4710.13
4938.48
5180.75
5437.68
5710.76
6001.29
6309.49
6634.81
6977.19
7337.94
7719.35
8124.12
8554.93
9015.41
9507.32
10038.6
10599.3
11238.4
11801.1
12866.5
4712.16
4940.89
5183.18
5439.87
5712.61
6002.81
6310.65
6635.6
6977.66
7338.22
7719.53
8124.26
8555.04
9015.48
9507.32
10038.6
10599
11237.4
11801.8
12872.4
4715.3
4944.67
5187.09
5443.58
5715.97
6005.72
6313.04
6637.4
6978.95
7339.12
7720.16
8124.67
8555.3
9015.59
9507.32
10038.5
10598.3
11236.8
11804.4
12875.6
4719.27
4949.52
5192.21
5448.57
5720.62
6009.87
6316.5
6640.09
6980.91
7340.52
7721.14
8125.3
8555.66
9015.7
9507.26
10038.3
10597.6
11237.2
11806.8
12873.1
4723.75
4955.1
5198.2
5454.56
5726.34
6015.03
6320.83
6643.45
6983.38
7342.26
7722.32
8126.02
8556.03
9015.76
9507.1
10037.8
10596.9
11237.4
11804.1
12874.3
4728.15
4960.88
5204.68
5461.29
5732.89
6020.94
6325.71
6647.15
6985.98
7343.99
7723.39
8126.58
8556.23
9015.61
9506.7
10037.1
10595.8
11236.5
11801.3
12875.9
4731.1
4965.85
5210.96
5468.23
5739.7
6026.95
6330.46
6650.51
6988.15
7345.2
7723.88
8126.53
8555.81
9014.88
9505.77
10035.9
10594.5
11235.7
11798.5
12875.7
4732.63
4969.82
5216.48
5474.55
5745.85
6032.03
6334.12
6652.84
6989.38
7345.54
7723.53
8125.67
8554.65
9013.48
9504.3
10034.2
10592.9
11234.6
11794.4
12876.7
4738.29
4976.1
5222.58
5479.94
5750.16
6035.17
6336.16
6653.85
6989.64
7345.34
7723.03
8124.93
8553.8
9012.58
9503.5
10033.3
10592.1
11234.1
11790.6
12878.1
4618.66
4582.98
4554.12
4535.18
4521.61
4511.33
4503.36
4497.32
4493.44
4491.54
4490.97
4491.55
4493
4495.13
4497.61
4500.18
4502.23
4502.16
4500.18
4504.26
4332.78
4319.47
4307.72
4298.12
4291.13
4285.86
4281.68
4278.27
4276.19
4275.75
4276
4276.71
4277.68
4278.71
4279.35
4279.3
4278.1
4273.92
4266.8
4267.21
4004.45
4027.68
4041.71
4048.2
4052.16
4054.71
4056.25
4057.04
4057.82
4059.39
4061.01
4062.28
4063.06
4063.06
4061.73
4058.62
4053.48
4044.42
4030.65
4024.28
3677.07
3726.96
3763.51
3787.31
3804.18
3816.4
3825.25
3831.47
3835.96
3839.99
3843.32
3845.31
3845.88
3844.76
3841.35
3835.19
3826.03
3812.17
3792.24
3777.82
3360.09
3424.48
3479.1
3518.47
3548.11
3570.53
3587.38
3599.73
3608.54
3615.22
3620.09
3622.35
3622.3
3619.92
3614.58
3605.87
3593.53
3576.16
3552
3530.61
3052.36
3123.53
3192.25
3244.44
3285.23
3317.16
3341.86
3360.41
3373.57
3382.56
3388.5
3390.79
3390.34
3387.05
3380.3
3369.56
3354.57
3334.39
3307.64
3281.28
2757.48
2828.65
2906.31
2967.26
3016.92
3056.78
3088.23
3112.31
3129.53
3140.8
3148.05
3151.05
3150.51
3146.3
3138.04
3125.29
3107.69
3084.83
3056.36
3026.88
2478.72
2543.19
2623.12
2689.93
2745.73
2791.28
2827.71
2855.93
2876.47
2889.99
2898.38
2902.4
2901.91
2896.99
2887.42
2872.77
2852.87
2827.89
2798.4
2767.06
2214.8
2268.8
2346.87
2416.22
2474.72
2523.71
2563.42
2594.46
2617.43
2632.95
2642.49
2647.37
2646.9
2641.26
2630.43
2614.11
2592.42
2565.97
2535.56
2502.47
1965.67
2008.33
2078.4
2146.34
2205.75
2256.1
2297.65
2330.59
2355.41
2372.68
2383.3
2388.61
2388.12
2381.63
2369.48
2351.78
2328.67
2300.58
2268.43
2233.05
1730.17
1761.46
1819.15
1881.44
1938.94
1989.27
2031.17
2064.85
2090.66
2109.01
2120.49
2126.02
2125.41
2118.18
2104.72
2085.5
2060.87
2031.27
1997.6
1960.44
1506.96
1528.07
1571.32
1624.19
1676.48
1723.99
1764.87
1798.07
1823.87
1842.41
1854.08
1859.51
1858.59
1850.8
1836.46
1816.23
1790.69
1760.47
1726.12
1688.23
1295.06
1308.07
1337.33
1377.56
1421.25
1463.51
1501
1532.1
1556.66
1574.66
1586.04
1591.16
1589.85
1581.71
1567.05
1546.6
1521.13
1491.3
1457.61
1420.59
1093.74
1100.92
1118.48
1145.23
1177.38
1210.91
1242.77
1270.65
1292.85
1309.01
1319.39
1323.93
1322.2
1314.02
1299.73
1280.09
1255.92
1227.82
1196.47
1162.32
902.484
905.792
914.75
929.759
949.636
972.353
995.687
1017.5
1036.03
1050.03
1058.8
1062.15
1059.93
1052.11
1039.01
1021.31
999.737
975.041
947.983
918.759
721.041
721.762
724.737
730.861
740.143
752.152
765.992
780.192
793.095
803.263
809.707
811.861
809.373
802.212
790.87
776.048
758.406
738.624
717.235
694.006
549.457
547.996
546.235
545.685
547.229
551.071
556.951
564.062
571.181
577.022
580.562
581.109
578.267
572.054
562.884
551.267
537.818
523.087
507.179
489.667
389.527
385.467
378.977
372.716
368.683
367.413
368.403
370.763
373.505
375.717
376.66
375.822
372.967
368.175
361.631
353.584
344.314
334.01
322.384
309.382
242.508
233.407
222.328
212.847
206.876
204.361
204.101
204.73
205.309
205.317
204.47
202.689
200.064
196.619
192.231
186.919
180.73
173.579
165.353
156.76
93.6698
74.5445
57.89
47.7281
41.9987
38.9122
37.3088
36.3427
35.3768
33.9624
31.878
29.0824
25.6948
21.8713
17.8221
13.8088
9.99035
6.41981
3.15138
-0.815158
)
;

boundaryField
{
    right
    {
        type            cyclic;
    }
    left
    {
        type            cyclic;
    }
    outerWall
    {
        type            zeroGradient;
    }
    stirrerWall
    {
        type            zeroGradient;
    }
    top
    {
        type            empty;
    }
    bottom
    {
        type            empty;
    }
}


// ************************************************************************* //
