/*--------------------------------*- C++ -*----------------------------------*\
  =========                 |
  \\      /  F ield         | OpenFOAM: The Open Source CFD Toolbox
   \\    /   O peration     | Website:  https://openfoam.org
    \\  /    A nd           | Version:  10
     \\/     M anipulation  |
\*---------------------------------------------------------------------------*/
FoamFile
{
    format      ascii;
    class       volScalarField;
    location    "600";
    object      p;
}
// * * * * * * * * * * * * * * * * * * * * * * * * * * * * * * * * * * * * * //

dimensions      [0 2 -2 0 0 0 0];

internalField   nonuniform List<scalar> 
420
(
0.542667
16.9759
33.0521
51.6908
72.137
93.6728
115.733
137.524
158.49
178.168
2.26399
17.0555
32.4778
50.5586
70.6014
91.9999
114.24
136.502
158.001
178.078
2.84466
17.0468
32.0043
49.588
69.248
90.5453
113.018
135.721
157.624
177.967
2.88532
16.9152
31.589
48.7936
68.1387
89.3372
111.979
135.005
157.223
177.782
2.79182
16.7807
31.2474
48.1367
67.2078
88.2872
110.986
134.208
156.687
177.482
2.69609
16.7472
31.0498
47.6382
66.4197
87.2981
109.895
133.176
155.878
177.048
2.63091
16.8749
31.0797
47.3548
65.7533
86.2505
108.516
131.684
154.639
176.411
2.58556
17.1725
31.3565
47.3104
65.214
85.0942
106.715
129.455
152.585
175.262
2.48964
17.6085
31.8274
47.4722
64.8351
83.9149
104.573
126.491
149.369
172.588
2.219
18.0864
32.2025
47.5855
64.4893
82.8055
102.431
123.294
145.25
167.975
196.171
213.074
229.36
244.989
259.704
273.842
287.198
299.045
282.525
348.351
196.219
213.056
229.191
244.654
259.2
273.089
285.556
295.527
278.217
341.055
196.179
212.934
228.894
244.125
258.408
271.896
283.174
291.123
274.501
336.565
196.053
212.751
228.519
243.476
257.434
270.424
280.62
287.432
271.763
331.801
195.897
212.586
228.137
242.792
256.36
268.747
278.004
284.316
269.618
327.138
195.794
212.509
227.827
242.159
255.268
267.009
275.382
281.178
267.288
324.167
195.785
212.484
227.495
241.542
254.193
265.292
272.781
277.837
264.54
322.218
195.737
212.264
226.886
240.828
253.165
263.676
270.274
274.493
262.372
320.254
194.909
211.977
226.326
240.233
252.37
262.364
268.237
272.113
261.921
318.776
193.13
212.592
226.733
240.266
252.149
261.759
267.287
271.359
261.147
319.033
194.075
213.549
227.683
240.905
252.522
261.997
267.374
272.378
251.584
322.032
195.831
213.845
228.146
241.113
252.503
261.839
267.332
272.236
248.383
320.305
199.782
214.436
228.495
241.444
252.76
262.028
267.863
271.176
254.995
316.128
199.15
213.986
228.319
241.622
253.225
262.8
269.016
272.324
259.305
315.537
197.673
213.222
228.056
241.844
253.952
264.133
271.321
275.75
263.78
317.044
196.684
212.602
227.888
242.187
254.889
265.829
274.173
279.618
268.417
320.163
196.199
212.308
227.934
242.698
255.998
267.803
277.571
284.261
273.979
325.026
196.016
212.269
228.149
243.28
257.088
269.769
281.085
289.216
280.833
334.281
195.985
212.385
228.465
243.868
258.062
271.451
283.883
293.294
288.918
351.972
196.023
212.612
228.885
244.494
258.977
272.775
285.431
295.175
294.803
372.933
196.072
212.895
229.338
245.068
259.716
273.714
286.452
295.925
292.261
378.847
196.135
213.04
229.447
245.167
259.855
273.968
287.604
299.443
286.936
360.739
185.118
182.312
180.57
179.668
179.256
179.069
178.936
178.761
178.496
178.32
160.033
160.284
160.625
160.729
160.799
160.827
160.675
160.285
159.642
159.031
132.574
135.778
138.458
139.998
140.845
141.242
141.176
140.647
139.689
138.588
107.495
111.457
115.336
117.942
119.511
120.279
120.354
119.78
118.661
117.24
85.4273
88.7507
92.5706
95.5374
97.4597
98.4458
98.6305
98.079
96.9271
95.3751
65.8737
68.1597
71.1285
73.7315
75.5455
76.5164
76.7232
76.2334
75.177
73.7302
48.473
49.7894
51.5817
53.3271
54.6316
55.3233
55.4178
54.9786
54.1051
52.9405
33.0314
33.5873
34.2964
35.0233
35.5739
35.8178
35.7216
35.3082
34.6407
33.8343
19.5197
19.4068
19.2962
19.2328
19.1587
18.9981
18.7134
18.3084
17.8059
17.3079
7.10184
5.99643
4.99241
4.30879
3.79841
3.34319
2.89427
2.45894
2.05822
1.59667
)
;

boundaryField
{
    right
    {
        type            cyclic;
    }
    left
    {
        type            cyclic;
    }
    outerWall
    {
        type            zeroGradient;
    }
    stirrerWall
    {
        type            zeroGradient;
    }
    top
    {
        type            empty;
    }
    bottom
    {
        type            empty;
    }
}


// ************************************************************************* //
