/*--------------------------------*- C++ -*----------------------------------*\
  =========                 |
  \\      /  F ield         | OpenFOAM: The Open Source CFD Toolbox
   \\    /   O peration     | Website:  https://openfoam.org
    \\  /    A nd           | Version:  10
     \\/     M anipulation  |
\*---------------------------------------------------------------------------*/
FoamFile
{
    format      ascii;
    class       surfaceScalarField;
    location    "600";
    object      phi;
}
// * * * * * * * * * * * * * * * * * * * * * * * * * * * * * * * * * * * * * //

dimensions      [0 3 -1 0 0 0 0];

internalField   nonuniform List<scalar> 
788
(
-1.06352e-06
-6.93814e-06
1.03295e-06
1.2223e-05
3.12784e-06
1.72637e-05
4.75573e-06
1.93365e-05
5.24736e-06
1.87202e-05
4.12629e-06
1.59192e-05
1.67284e-06
1.07343e-05
-1.7195e-07
5.05166e-07
-8.03376e-07
-1.46023e-05
-3.41914e-05
-7.02786e-07
-5.37168e-07
-6.40037e-06
1.19327e-06
1.04763e-05
3.33575e-06
1.50969e-05
5.10444e-06
1.75339e-05
5.7383e-06
1.81002e-05
4.90502e-06
1.68289e-05
3.171e-06
1.25474e-05
1.84977e-06
1.86278e-06
1.39236e-06
-1.41499e-05
-3.4138e-05
1.30601e-06
1.44629e-07
-6.55291e-06
1.70205e-06
8.86709e-06
3.64448e-06
1.31117e-05
5.35168e-06
1.58189e-05
6.14333e-06
1.73449e-05
5.83909e-06
1.71943e-05
5.13355e-06
1.32897e-05
4.41362e-06
2.58773e-06
4.06244e-06
-1.37743e-05
-3.39606e-05
3.95721e-06
3.16682e-07
-6.88442e-06
1.84617e-06
7.2842e-06
3.82008e-06
1.10875e-05
5.7714e-06
1.38619e-05
7.19929e-06
1.59569e-05
7.94041e-06
1.65069e-05
8.45317e-06
1.28018e-05
8.29965e-06
2.73985e-06
7.98274e-06
-1.34228e-05
-3.34084e-05
7.53767e-06
1.84374e-07
-7.09013e-06
1.63835e-06
5.77107e-06
3.77857e-06
8.88683e-06
6.2046e-06
1.14326e-05
8.53826e-06
1.36765e-05
1.06462e-05
1.4468e-05
1.25892e-05
1.09053e-05
1.31632e-05
2.19661e-06
1.27146e-05
-1.29106e-05
-3.20448e-05
1.14721e-05
-2.08049e-07
-6.9082e-06
1.04837e-06
4.44593e-06
3.31125e-06
6.55384e-06
6.2265e-06
8.52112e-06
9.5451e-06
1.04253e-05
1.30055e-05
1.10858e-05
1.60735e-05
7.88954e-06
1.7609e-05
6.96714e-07
1.69322e-05
-1.21722e-05
-2.91988e-05
1.41942e-05
-8.25567e-07
-6.11317e-06
1.42038e-07
3.39525e-06
2.32189e-06
4.29169e-06
5.39184e-06
5.45971e-06
9.2317e-06
6.66301e-06
1.34695e-05
6.93169e-06
1.69588e-05
4.45038e-06
1.85433e-05
-8.6305e-07
1.68888e-05
-1.04732e-05
-2.42551e-05
1.20333e-05
-1.61813e-06
-4.53257e-06
-8.5243e-07
2.52568e-06
1.09976e-06
2.24524e-06
3.82899e-06
2.74383e-06
7.22949e-06
3.3534e-06
1.08578e-05
3.39969e-06
1.34421e-05
1.91934e-06
1.36787e-05
-1.08143e-06
1.00123e-05
-6.77029e-06
-1.7284e-05
3.1251e-06
-2.58291e-06
-1.99727e-06
-1.527e-06
1.35207e-06
2.32213e-07
4.27311e-07
2.56712e-06
4.6751e-07
5.27672e-06
7.58869e-07
7.62761e-06
1.13723e-06
8.35909e-06
1.20449e-06
6.46198e-06
7.88595e-07
4.45035e-07
-7.38739e-07
-9.1305e-06
-7.59512e-06
-2.04028e-06
-7.14322e-07
-2.54798e-07
2.71539e-07
1.07142e-06
2.20744e-06
3.38832e-06
4.18135e-06
3.51211e-06
-5.5043e-06
1.58791e-07
-5.75124e-05
1.909e-06
-9.30449e-05
4.36096e-06
-0.000139093
6.83374e-06
-0.000193554
8.98923e-06
-0.000261131
9.73977e-06
-0.000353561
1.06364e-05
-0.000483253
1.56791e-05
-0.000601043
-4.85342e-06
-0.000594799
-0.00119375
1.67582e-06
-5.79147e-05
2.76991e-06
-9.41454e-05
4.56595e-06
-0.000140875
6.41409e-06
-0.000195374
8.20633e-06
-0.000262846
8.88704e-06
-0.000354121
9.82305e-06
-0.000484086
1.31621e-05
-0.000604133
5.52111e-06
-0.000587187
-0.00118824
3.83232e-06
-5.76754e-05
4.1904e-06
-9.43973e-05
5.15495e-06
-0.000141829
6.17873e-06
-0.000196493
7.4477e-06
-0.000264144
8.12074e-06
-0.000354677
9.0999e-06
-0.000485067
1.26646e-05
-0.000607956
1.55555e-05
-0.000589864
-0.00117264
6.54096e-06
-5.65128e-05
5.91173e-06
-9.36189e-05
5.95377e-06
-0.000141854
6.30375e-06
-0.000196917
7.25768e-06
-0.000265081
7.95408e-06
-0.000355412
8.56702e-06
-0.000485533
1.08421e-05
-0.000610227
1.50519e-05
-0.000593998
-0.00115758
9.26833e-06
-5.4145e-05
7.62139e-06
-9.18467e-05
6.7569e-06
-0.000141004
6.45029e-06
-0.000196647
7.15292e-06
-0.000265626
7.96995e-06
-0.000356277
8.51078e-06
-0.000486127
1.07703e-05
-0.000612382
1.40624e-05
-0.000597308
-0.00114354
1.0597e-05
-5.04134e-05
8.37031e-06
-8.95527e-05
6.95734e-06
-0.000139664
6.18681e-06
-0.000195923
6.73592e-06
-0.000265993
7.79171e-06
-0.000357372
8.43897e-06
-0.000486946
1.08451e-05
-0.000614684
1.33437e-05
-0.000599836
-0.0011302
8.12917e-06
-4.64087e-05
6.81056e-06
-8.82285e-05
5.71655e-06
-0.000138699
4.98303e-06
-0.000195225
5.6481e-06
-0.000266438
7.08396e-06
-0.000358823
8.10517e-06
-0.000488135
1.07544e-05
-0.000617234
1.17839e-05
-0.000600865
-0.00111841
1.82146e-06
-4.50197e-05
3.06703e-06
-8.9496e-05
3.07015e-06
-0.000138847
2.83933e-06
-0.000195005
3.81197e-06
-0.00026714
5.66925e-06
-0.000360668
7.30212e-06
-0.000489907
1.11673e-05
-0.000620993
1.16281e-05
-0.000601276
-0.00110676
-4.00189e-06
-4.84696e-05
-2.57807e-07
-9.32317e-05
1.75768e-07
-0.000139423
6.61209e-08
-0.000194896
9.26811e-07
-0.000267717
2.8598e-06
-0.000362582
4.82726e-06
-0.000492006
9.30731e-06
-0.000625356
1.3104e-05
-0.000604891
-0.00109366
-6.53996e-07
-5.32775e-05
3.4629e-07
-9.41428e-05
-1.46943e-06
-0.000137737
-2.77619e-06
-0.000193669
-3.14183e-06
-0.000267222
-2.4042e-06
-0.00036325
-1.95374e-06
-0.000492328
4.31947e-06
-0.000631606
1.06301e-05
-0.000611123
-0.00108311
1.93481e-06
-5.51281e-05
4.75428e-07
-9.27139e-05
-1.3761e-06
-0.000136064
-2.68235e-06
-0.000192406
-3.34612e-06
-0.000266357
-3.23114e-06
-0.000363337
-3.66398e-06
-0.000491852
-9.56439e-06
-0.00062568
5.73011e-06
-0.000626281
-0.00107741
4.13654e-06
-5.92171e-05
3.62317e-06
-9.22282e-05
2.33353e-06
-0.000134959
1.65214e-06
-0.000191732
1.5417e-06
-0.000266015
1.83154e-06
-0.000363664
1.02083e-06
-0.000491085
-6.02447e-06
-0.000618631
2.92393e-06
-0.000635211
-0.00107446
5.01237e-06
-5.27806e-05
-1.13637e-05
2.1709e-06
-8.91419e-05
7.62694e-07
-0.000133683
6.52029e-07
-0.000191673
1.41758e-06
-0.000266641
2.76415e-06
-0.000365018
2.83594e-06
-0.000491141
7.45016e-06
-0.000623246
-3.22276e-06
-0.000624524
-0.00107775
-2.50975e-06
-5.37052e-05
3.68357e-06
-3.06199e-06
-8.84372e-05
-3.71582e-06
-0.000133202
-4.09136e-06
-0.000191321
-4.19932e-06
-0.000266348
-3.47532e-06
-0.000365726
-2.73966e-06
-0.000491924
-1.31609e-06
-0.000624686
5.3705e-06
-0.000631009
-0.00107245
-6.30045e-06
-5.58376e-05
8.63255e-06
-5.73202e-06
-8.88474e-05
-5.85238e-06
-0.00013322
-6.08426e-06
-0.000191109
-6.40584e-06
-0.000265902
-6.18282e-06
-0.000365965
-6.20756e-06
-0.000491828
-1.05757e-05
-0.000620412
6.1253e-07
-0.000642061
-0.00107188
-8.04613e-06
-5.68696e-05
9.27043e-06
-7.5138e-06
-8.9197e-05
-7.58712e-06
-0.000133252
-7.91338e-06
-0.000190812
-8.51361e-06
-0.000265227
-8.83345e-06
-0.000365712
-9.14888e-06
-0.000491479
-1.36923e-05
-0.000615952
-1.22879e-06
-0.000654343
-0.00107313
-8.34551e-06
-5.69514e-05
8.61941e-06
-8.22704e-06
-8.91165e-05
-8.49576e-06
-0.000133076
-9.12734e-06
-0.000190239
-1.02349e-05
-0.00026409
-1.11751e-05
-0.000364808
-1.18872e-05
-0.000490696
-1.66121e-05
-0.000611284
-2.0066e-06
-0.000668705
-0.0010752
-7.90299e-06
-5.64406e-05
7.5802e-06
-8.10543e-06
-8.87392e-05
-8.54497e-06
-0.000132749
-9.47302e-06
-0.000189383
-1.11792e-05
-0.000262353
-1.30181e-05
-0.000362941
-1.43456e-05
-0.000489239
-1.86826e-05
-0.000606997
-5.00059e-06
-0.000682147
-0.00108035
-7.06331e-06
-5.5718e-05
6.51244e-06
-7.30296e-06
-8.84143e-05
-7.73264e-06
-0.000132467
-8.84868e-06
-0.000188331
-1.1137e-05
-0.000259998
-1.42198e-05
-0.000359777
-1.69632e-05
-0.000486352
-2.0068e-05
-0.000604005
-9.29793e-06
-0.000692717
-0.00108979
-5.95611e-06
-5.52808e-05
5.63046e-06
-5.92731e-06
-8.84768e-05
-6.06707e-06
-0.000132461
-7.09799e-06
-0.000187287
-9.77018e-06
-0.000257189
-1.41024e-05
-0.000355367
-1.83196e-05
-0.000482086
-2.006e-05
-0.000602555
-1.86714e-05
-0.000693974
-0.00110832
-4.38334e-06
-5.57279e-05
4.85153e-06
-3.48317e-06
-8.94546e-05
-2.36042e-06
-0.000133565
-2.01655e-06
-0.0001874
-3.50176e-06
-0.000255477
-8.18538e-06
-0.000350792
-1.19146e-05
-0.00047855
-1.3362e-05
-0.000601374
-2.92575e-05
-0.000678341
-0.00113735
-1.24716e-06
2.37043e-06
7.47181e-07
3.95155e-06
7.76576e-06
1.11744e-05
1.2768e-05
1.65979e-05
1.15439e-05
-5.12804e-05
-2.08221e-05
9.68976e-06
-3.08213e-05
1.3965e-05
-3.55485e-05
1.35898e-05
-3.74848e-05
1.14448e-05
-3.77566e-05
9.15264e-06
-3.70294e-05
7.08402e-06
-3.5796e-05
5.42105e-06
-3.45613e-05
4.44119e-06
-3.39586e-05
4.326e-06
2.70647e-06
-6.57197e-06
1.63418e-05
-1.41668e-05
2.15796e-05
-1.92408e-05
1.86183e-05
-2.1771e-05
1.4003e-05
-2.24329e-05
9.87508e-06
-2.17842e-05
6.49689e-06
-2.03006e-05
3.97064e-06
-1.83824e-05
2.50921e-06
-1.63957e-05
2.32277e-06
1.57404e-06
8.64468e-07
1.5471e-05
-2.40735e-06
2.46962e-05
-6.06095e-06
2.20636e-05
-8.48575e-06
1.63044e-05
-9.44078e-06
1.07393e-05
-9.20758e-06
6.19709e-06
-8.06575e-06
2.76651e-06
-6.26407e-06
6.4831e-07
-3.74725e-06
-2.47955e-07
-7.21848e-07
3.51334e-06
1.18794e-05
5.06627e-06
2.2887e-05
4.30299e-06
2.25408e-05
2.96294e-06
1.74268e-05
1.93822e-06
1.15724e-05
1.5833e-06
6.39777e-06
2.01907e-06
2.21588e-06
3.31255e-06
-7.01968e-07
5.48429e-06
-2.45828e-06
-3.33451e-06
3.65502e-06
8.12506e-06
8.43728e-06
1.78716e-05
1.14065e-05
1.93417e-05
1.23256e-05
1.63205e-05
1.2296e-05
1.14462e-05
1.21054e-05
6.46948e-06
1.21544e-05
2.09321e-06
1.26037e-05
-1.17169e-06
1.34669e-05
-3.32824e-06
-4.50833e-06
3.22904e-06
4.82061e-06
8.85913e-06
1.20874e-05
1.41032e-05
1.40054e-05
1.76183e-05
1.27258e-05
1.94631e-05
9.54626e-06
2.01668e-05
5.73381e-06
2.01608e-05
2.08982e-06
1.98713e-05
-8.79655e-07
1.95238e-05
-2.98736e-06
-4.1797e-06
2.54222e-06
2.2495e-06
7.82897e-06
6.75221e-06
1.35693e-05
8.31507e-06
1.82712e-05
8.05809e-06
2.14123e-05
6.44356e-06
2.3108e-05
4.07685e-06
2.36497e-05
1.5809e-06
2.33447e-05
-5.60371e-07
2.24256e-05
-2.07623e-06
-2.88377e-06
1.91787e-06
3.39957e-07
6.34597e-06
2.3872e-06
1.14771e-05
3.3471e-06
1.60773e-05
3.58093e-06
1.95472e-05
3.07574e-06
2.16542e-05
2.04767e-06
2.24768e-05
8.05119e-07
2.22648e-05
-3.3535e-07
2.12357e-05
-1.04564e-06
-1.24934e-06
1.19346e-06
-8.29733e-07
4.503e-06
-7.87387e-07
8.31691e-06
-2.77768e-07
1.17771e-05
2.637e-07
1.44826e-05
4.79767e-07
1.62023e-05
4.03534e-07
1.68913e-05
1.55944e-07
1.66836e-05
-1.199e-07
1.58394e-05
-2.08615e-07
1.18366e-07
-8.06707e-07
-1.49945e-06
-1.70781e-06
-1.39159e-06
-8.7527e-07
-4.4989e-07
-2.84144e-07
-4.03933e-07
-6.36006e-07
)
;

boundaryField
{
    right
    {
        type            cyclic;
        value           nonuniform List<scalar> 
20
(
0.0011884
0.000615481
0.000595975
0.000481753
0.0003522
0.000258888
0.000191316
0.000137011
9.16868e-05
5.68854e-05
3.40322e-05
1.51744e-05
1.3319e-06
-8.22841e-06
-1.47481e-05
-1.92308e-05
-2.10839e-05
-1.95692e-05
-1.45164e-05
5.29081e-07
)
;
    }
    left
    {
        type            cyclic;
        value           nonuniform List<scalar> 
20
(
-0.0011884
-0.000615481
-0.000595975
-0.000481753
-0.0003522
-0.000258888
-0.000191316
-0.000137011
-9.16868e-05
-5.68854e-05
-3.40322e-05
-1.51744e-05
-1.3319e-06
8.22841e-06
1.47481e-05
1.92308e-05
2.10839e-05
1.95692e-05
1.45164e-05
-5.29081e-07
)
;
    }
    outerWall
    {
        type            calculated;
        value           uniform 0;
    }
    stirrerWall
    {
        type            calculated;
        value           uniform 0;
    }
    top
    {
        type            empty;
        value           nonuniform List<scalar> 0();
    }
    bottom
    {
        type            empty;
        value           nonuniform List<scalar> 0();
    }
}


// ************************************************************************* //
