/*--------------------------------*- C++ -*----------------------------------*\
  =========                 |
  \\      /  F ield         | OpenFOAM: The Open Source CFD Toolbox
   \\    /   O peration     | Website:  https://openfoam.org
    \\  /    A nd           | Version:  10
     \\/     M anipulation  |
\*---------------------------------------------------------------------------*/
FoamFile
{
    format      ascii;
    class       surfaceScalarField;
    location    "600";
    object      phi;
}
// * * * * * * * * * * * * * * * * * * * * * * * * * * * * * * * * * * * * * //

dimensions      [0 3 -1 0 0 0 0];

internalField   nonuniform List<scalar> 
3880
(
7.26366e-06
-1.4769e-05
3.96176e-06
2.06843e-05
6.42933e-06
2.7976e-05
1.1195e-05
3.40365e-05
1.69613e-05
4.05278e-05
2.30378e-05
4.70998e-05
2.83463e-05
5.28314e-05
3.1703e-05
5.56423e-05
3.25793e-05
5.39475e-05
3.05998e-05
4.81008e-05
2.59591e-05
3.877e-05
1.81056e-05
2.83381e-05
5.06072e-06
2.05437e-05
-1.17887e-05
1.64312e-05
-2.38781e-05
6.43425e-06
-2.84198e-05
-1.08002e-05
-2.92402e-05
-3.16737e-05
-2.82134e-05
-5.51851e-05
-2.70322e-05
-7.81245e-05
-9.9042e-05
-2.55617e-05
3.76108e-06
-1.85175e-05
3.65823e-06
2.08876e-05
6.46835e-06
2.51787e-05
1.08979e-05
2.96218e-05
1.60565e-05
3.54371e-05
2.13745e-05
4.18063e-05
2.597e-05
4.8245e-05
2.86324e-05
5.29873e-05
2.86753e-05
5.39519e-05
2.56731e-05
5.1155e-05
1.92144e-05
4.5185e-05
8.06799e-06
3.94404e-05
-8.46983e-06
3.71376e-05
-2.42005e-05
3.22477e-05
-3.28428e-05
1.50973e-05
-3.34607e-05
-1.021e-05
-3.24874e-05
-3.26811e-05
-3.09624e-05
-5.67333e-05
-2.89414e-05
-8.01616e-05
-0.000101396
-2.661e-05
2.7843e-06
-2.13232e-05
5.2257e-06
1.82283e-05
8.67264e-06
2.1663e-05
1.25016e-05
2.59547e-05
1.63336e-05
3.16337e-05
2.01753e-05
3.787e-05
2.37315e-05
4.47363e-05
2.58148e-05
5.10082e-05
2.50669e-05
5.46715e-05
2.09672e-05
5.51637e-05
1.28406e-05
5.32404e-05
1.70591e-07
5.21112e-05
-1.62443e-05
5.35743e-05
-2.95793e-05
4.55678e-05
-3.5661e-05
2.1154e-05
-3.5717e-05
-1.01783e-05
-3.45e-05
-3.39342e-05
-3.24327e-05
-5.88169e-05
-2.97026e-05
-8.28866e-05
-0.000104372
-2.67264e-05
2.06709e-06
-2.33737e-05
5.65138e-06
1.48561e-05
9.63939e-06
1.76795e-05
1.33838e-05
2.21169e-05
1.66317e-05
2.83355e-05
1.94578e-05
3.50965e-05
2.18199e-05
4.24275e-05
2.29821e-05
4.98336e-05
2.16105e-05
5.59649e-05
1.68778e-05
5.98608e-05
8.09159e-06
6.20496e-05
-5.63893e-06
6.58819e-05
-2.0642e-05
6.85865e-05
-3.07668e-05
5.56705e-05
-3.51885e-05
2.55382e-05
-3.64725e-05
-8.91705e-06
-3.55339e-05
-3.48741e-05
-3.31176e-05
-6.12287e-05
-2.97792e-05
-8.62334e-05
-0.000107942
-2.62373e-05
1.743e-06
-2.51206e-05
5.61985e-06
1.10108e-05
9.99265e-06
1.32914e-05
1.38374e-05
1.82406e-05
1.70459e-05
2.51079e-05
1.95287e-05
3.2684e-05
2.1101e-05
4.08792e-05
2.13862e-05
4.94907e-05
1.94976e-05
5.77915e-05
1.4398e-05
6.49568e-05
4.8034e-06
7.1677e-05
-8.88352e-06
7.95845e-05
-2.1424e-05
8.1115e-05
-2.93041e-05
6.35298e-05
-3.33527e-05
2.95863e-05
-3.57772e-05
-6.47933e-06
-3.52139e-05
-3.5445e-05
-3.26561e-05
-6.38342e-05
-2.88862e-05
-9.00657e-05
-0.000112096
-2.47783e-05
1.61937e-06
-2.6753e-05
5.49959e-06
7.08103e-06
1.00638e-05
8.73372e-06
1.39147e-05
1.44655e-05
1.71818e-05
2.1856e-05
1.9718e-05
3.0154e-05
2.12227e-05
3.93517e-05
2.12272e-05
4.94265e-05
1.90972e-05
5.99097e-05
1.38631e-05
7.02203e-05
4.33183e-06
8.12235e-05
-7.87287e-06
9.17893e-05
-1.78623e-05
9.10996e-05
-2.40889e-05
6.97401e-05
-2.86155e-05
3.41099e-05
-3.25743e-05
-2.54589e-06
-3.29308e-05
-3.51418e-05
-3.0553e-05
-6.62937e-05
-2.65543e-05
-9.4145e-05
-0.000116697
-2.20038e-05
1.45095e-06
-2.81933e-05
5.15231e-06
3.41471e-06
9.70477e-06
4.19725e-06
1.37797e-05
1.04354e-05
1.70897e-05
1.85364e-05
1.97431e-05
2.74616e-05
2.15774e-05
3.74996e-05
2.20186e-05
4.89692e-05
2.02659e-05
6.16859e-05
1.53818e-05
7.51271e-05
6.8746e-06
8.9717e-05
-3.13974e-06
0.000101789
-1.11545e-05
9.91103e-05
-1.64571e-05
7.50185e-05
-2.15136e-05
3.91362e-05
-2.70796e-05
2.95442e-06
-2.82876e-05
-3.4001e-05
-2.63118e-05
-6.83329e-05
-2.2349e-05
-9.81549e-05
-0.000121529
-1.75576e-05
1.20921e-06
-2.93843e-05
4.64161e-06
6.9848e-08
9.14181e-06
-3.29063e-07
1.35542e-05
5.97662e-06
1.68411e-05
1.52087e-05
1.96011e-05
2.46591e-05
2.18188e-05
3.52863e-05
2.30647e-05
4.77366e-05
2.2277e-05
6.25e-05
1.85258e-05
7.88807e-05
1.18155e-05
9.6386e-05
4.30111e-06
0.00010927
-1.77267e-06
0.000105178
-6.58824e-06
7.98175e-05
-1.20663e-05
4.45846e-05
-1.86204e-05
9.45522e-06
-2.06338e-05
-3.20256e-05
-1.93015e-05
-6.96946e-05
-1.56972e-05
-0.000101775
-0.000126277
-1.09834e-05
8.59476e-07
-3.02362e-05
3.97706e-06
-2.96203e-06
8.35245e-06
-4.75924e-06
1.2979e-05
1.28768e-06
1.64021e-05
1.17579e-05
1.93449e-05
2.17118e-05
2.19154e-05
3.27457e-05
2.4007e-05
4.56729e-05
2.46012e-05
6.19164e-05
2.27875e-05
8.06702e-05
1.87071e-05
0.000100418
1.40485e-05
0.0001139
1.04345e-05
0.000108808
6.96743e-06
8.33129e-05
2.00927e-06
4.95494e-05
-4.78485e-06
1.62472e-05
-8.44165e-06
-2.8381e-05
-8.35233e-06
-6.98024e-05
-5.74033e-06
-0.000104392
-0.000130247
-1.78181e-06
3.84747e-07
-3.06203e-05
3.1056e-06
-5.61342e-06
7.1356e-06
-8.83277e-06
1.16974e-05
-3.28232e-06
1.55837e-05
7.87545e-06
1.88733e-05
1.84503e-05
2.18934e-05
2.97503e-05
2.48084e-05
4.27706e-05
2.70017e-05
5.97145e-05
2.76818e-05
7.99515e-05
2.6904e-05
0.000101171
2.57997e-05
0.000115013
2.49699e-05
0.000109691
2.31866e-05
8.51758e-05
1.95644e-05
5.32028e-05
1.40796e-05
2.17564e-05
8.92554e-06
-2.32601e-05
7.43479e-06
-6.83615e-05
8.34774e-06
-0.000105331
-0.00013251
1.0611e-05
-1.72972e-07
-3.04474e-05
1.93078e-06
-7.66903e-06
5.3341e-06
-1.22585e-05
9.74426e-06
-7.66103e-06
1.44749e-05
3.14713e-06
1.80155e-05
1.49373e-05
2.16637e-05
2.61022e-05
2.5466e-05
3.89504e-05
2.9292e-05
5.58671e-05
3.27148e-05
7.65015e-05
3.55794e-05
9.83106e-05
3.80514e-05
0.000112581
3.9669e-05
0.000108135
3.94141e-05
8.55007e-05
3.8098e-05
5.45133e-05
3.66575e-05
2.31693e-05
3.24155e-05
-1.90729e-05
2.89117e-05
-6.49203e-05
2.70256e-05
-0.00010349
-0.000131349
2.58488e-05
-7.82226e-07
-2.96652e-05
3.5763e-07
-8.7855e-06
2.75483e-06
-1.46629e-05
6.94521e-06
-1.18276e-05
1.25328e-05
-2.4659e-06
1.63923e-05
1.10865e-05
2.08912e-05
2.15929e-05
2.57198e-05
3.40879e-05
3.1166e-05
5.03859e-05
3.72818e-05
7.03797e-05
4.35831e-05
9.20293e-05
4.94399e-05
0.00010676
5.39369e-05
0.000103669
5.52273e-05
8.42265e-05
5.50153e-05
5.46741e-05
5.49553e-05
2.31182e-05
5.24045e-05
-1.65654e-05
4.85097e-05
-6.10392e-05
4.47667e-05
-9.97601e-05
-0.000127139
4.05422e-05
-1.48443e-06
-2.81801e-05
-1.48495e-06
-8.78023e-06
-3.71061e-07
-1.57706e-05
2.97504e-06
-1.5181e-05
8.70655e-06
-8.23195e-06
1.35037e-05
6.27343e-06
1.88547e-05
1.62263e-05
2.47951e-05
2.81137e-05
3.17705e-05
4.3364e-05
4.02592e-05
6.1892e-05
4.97383e-05
8.25871e-05
5.8956e-05
9.75706e-05
6.66387e-05
9.5984e-05
7.04912e-05
8.03509e-05
7.17787e-05
5.33697e-05
7.17362e-05
2.31211e-05
7.03462e-05
-1.51757e-05
6.7109e-05
-5.77612e-05
6.20407e-05
-9.4658e-05
-0.000119583
5.44993e-05
-2.27372e-06
-2.59007e-05
-3.51657e-06
-7.54277e-06
-3.89962e-06
-1.53695e-05
-2.06148e-06
-1.70516e-05
2.8961e-06
-1.32019e-05
9.26968e-06
-1.32979e-07
1.49291e-05
1.05373e-05
2.18695e-05
2.11511e-05
3.01117e-05
3.50903e-05
4.04787e-05
5.15193e-05
5.27346e-05
7.03676e-05
6.5265e-05
8.50708e-05
7.60277e-05
8.52073e-05
8.3523e-05
7.28144e-05
8.73725e-05
4.9504e-05
8.86872e-05
2.18112e-05
8.79867e-05
-1.44686e-05
8.49886e-05
-5.47493e-05
7.78034e-05
-8.74578e-05
-0.000107566
6.57864e-05
-3.02777e-06
-2.28609e-05
-5.46183e-06
-5.12512e-06
-7.48637e-06
-1.33201e-05
-7.73102e-06
-1.68466e-05
-4.70586e-06
-1.62167e-05
2.92357e-06
-7.78119e-06
9.03558e-06
4.39337e-06
1.62763e-05
1.38899e-05
2.52349e-05
2.61279e-05
3.69595e-05
3.97956e-05
5.14641e-05
5.58604e-05
6.70867e-05
6.94361e-05
8.08745e-05
7.13876e-05
9.20579e-05
6.15937e-05
9.92386e-05
4.2299e-05
0.000102877
1.8179e-05
0.000103118
-1.46996e-05
9.84921e-05
-5.01334e-05
8.69384e-05
-7.59095e-05
-8.98908e-05
6.92675e-05
-3.67361e-06
-1.91746e-05
-6.89773e-06
-1.9327e-06
-1.03473e-05
-9.83952e-06
-1.28875e-05
-1.43198e-05
-1.28603e-05
-1.62386e-05
-7.29493e-06
-1.33527e-05
2.59969e-07
-3.18483e-06
7.45931e-06
6.64275e-06
1.61753e-05
1.73713e-05
2.81983e-05
2.77457e-05
4.40061e-05
4.00109e-05
6.19232e-05
5.14642e-05
7.86859e-05
5.4591e-05
9.28426e-05
4.74522e-05
0.000103121
3.20661e-05
0.000108881
1.24814e-05
0.000109208
-1.49731e-05
0.000101725
-4.2611e-05
8.52497e-05
-5.93731e-05
-6.52148e-05
6.06572e-05
-4.19861e-06
-1.49691e-05
-7.44733e-06
1.27309e-06
-1.15712e-05
-5.69987e-06
-1.59835e-05
-9.87923e-06
-1.93462e-05
-1.28849e-05
-1.92944e-05
-1.34673e-05
-1.31243e-05
-9.41273e-06
-5.46118e-06
-1.04881e-06
3.23983e-06
8.67907e-06
1.41381e-05
1.68542e-05
2.93287e-05
2.48093e-05
4.79209e-05
3.28481e-05
6.64518e-05
3.60323e-05
8.24312e-05
3.14478e-05
9.42038e-05
2.02729e-05
0.000100771
5.90475e-06
0.000100051
-1.42667e-05
8.85885e-05
-3.11982e-05
6.54544e-05
-3.63297e-05
-3.49772e-05
3.51161e-05
-4.65419e-06
-1.03146e-05
-6.89607e-06
3.48005e-06
-1.0406e-05
-2.23008e-06
-1.54274e-05
-4.89166e-06
-2.09377e-05
-7.33223e-06
-2.54405e-05
-8.91006e-06
-2.58757e-05
-8.97105e-06
-2.13012e-05
-5.68929e-06
-1.32851e-05
5.95932e-07
-3.28629e-06
6.81551e-06
9.16909e-06
1.23268e-05
2.49286e-05
1.70732e-05
4.18712e-05
1.90781e-05
5.68661e-05
1.64434e-05
6.71546e-05
9.99175e-06
7.17907e-05
1.32915e-06
6.67579e-05
-9.08779e-06
4.94282e-05
-1.37374e-05
2.11187e-05
-7.91876e-06
-1.14273e-05
-2.43275e-06
-5.47019e-06
-4.85215e-06
-5.19609e-06
3.16799e-06
-6.93281e-06
-4.46552e-07
-1.03414e-05
-1.46196e-06
-1.50125e-05
-2.67771e-06
-2.0147e-05
-3.83277e-06
-2.44969e-05
-4.6354e-06
-2.53481e-05
-4.78997e-06
-2.15754e-05
-3.13045e-06
-1.48373e-05
6.92439e-08
-7.20159e-06
4.6058e-06
1.49183e-06
8.28537e-06
1.12993e-05
9.22545e-06
2.05111e-05
7.20993e-06
2.59021e-05
4.52521e-06
2.42102e-05
2.876e-06
1.09835e-05
4.05522e-06
-7.0577e-06
4.28833e-06
-1.60138e-05
1.15045e-06
-8.30687e-06
-1.88626e-05
-4.86759e-06
-1.71271e-06
-2.13614e-06
-3.57157e-06
-6.24347e-06
-1.009e-05
-1.47311e-05
-1.9511e-05
-2.26442e-05
-2.25954e-05
-1.80137e-05
-9.73706e-06
-5.14265e-07
6.71633e-06
1.1323e-05
1.42845e-05
1.83684e-05
2.2602e-05
2.36443e-05
1.52771e-05
-2.3919e-05
-0.000119444
-2.20879e-05
-0.000143108
-2.02144e-05
-0.000167308
-1.80887e-05
-0.000192166
-1.57521e-05
-0.000217366
-1.36188e-05
-0.000243183
-1.17965e-05
-0.000271052
-1.017e-05
-0.000302059
-8.69916e-06
-0.000336749
-7.35687e-06
-0.000375118
-6.11849e-06
-0.000417191
-4.99083e-06
-0.000463071
-4.03007e-06
-0.000513426
-3.23454e-06
-0.000568141
-2.5886e-06
-0.000628282
-2.0375e-06
-0.000695034
-1.53298e-06
-0.000759086
-7.15909e-07
-0.000864318
-6.50016e-07
-0.000849108
-0.00120305
-2.43488e-05
-0.000121743
-2.21661e-05
-0.000145346
-2.00282e-05
-0.00016949
-1.77599e-05
-0.00019443
-1.54856e-05
-0.000219627
-1.34404e-05
-0.000245259
-1.16727e-05
-0.000272894
-1.00806e-05
-0.000303728
-8.61245e-06
-0.00033827
-7.26645e-06
-0.000376504
-6.04746e-06
-0.000418449
-4.95506e-06
-0.000464201
-4.0308e-06
-0.000514392
-3.21375e-06
-0.000568972
-2.56467e-06
-0.000628904
-1.93047e-06
-0.000695609
-1.50662e-06
-0.000759469
-6.99422e-07
-0.000865059
-3.29474e-07
-0.000849434
-0.00120339
-2.39585e-05
-0.000124555
-2.14558e-05
-0.000147896
-1.91319e-05
-0.000171827
-1.6741e-05
-0.000196822
-1.4473e-05
-0.000221933
-1.25291e-05
-0.000247281
-1.08705e-05
-0.000274627
-9.39471e-06
-0.000305254
-8.04796e-06
-0.000339667
-6.82701e-06
-0.000377795
-5.72463e-06
-0.00041962
-4.72048e-06
-0.000465251
-3.86228e-06
-0.000515275
-3.04908e-06
-0.000569786
-2.46809e-06
-0.00062948
-1.79587e-06
-0.000696248
-1.52145e-06
-0.000759737
-9.81522e-07
-0.000865612
1.88974e-07
-0.000850617
-0.0012032
-2.3003e-05
-0.000127828
-2.02319e-05
-0.000150678
-1.77952e-05
-0.000174254
-1.54006e-05
-0.00019922
-1.31767e-05
-0.000224192
-1.13208e-05
-0.000249184
-9.77164e-06
-0.000276203
-8.42435e-06
-0.000306604
-7.21725e-06
-0.000340876
-6.13571e-06
-0.000378897
-5.16482e-06
-0.000420619
-4.26521e-06
-0.000466169
-3.49822e-06
-0.00051605
-2.71372e-06
-0.00057057
-2.22312e-06
-0.000629989
-1.52827e-06
-0.00069697
-1.36189e-06
-0.00075991
-8.41976e-07
-0.000866209
1.17389e-06
-0.000852677
-0.00120203
-2.10481e-05
-0.000131574
-1.80888e-05
-0.000153621
-1.5711e-05
-0.000176608
-1.3438e-05
-0.000201485
-1.13509e-05
-0.000226284
-9.6569e-06
-0.000250869
-8.28884e-06
-0.000277529
-7.13898e-06
-0.000307693
-6.13055e-06
-0.000341836
-5.23344e-06
-0.000379777
-4.42634e-06
-0.000421422
-3.65422e-06
-0.000466925
-3.00474e-06
-0.000516671
-2.27105e-06
-0.000571275
-1.89032e-06
-0.00063036
-1.17587e-06
-0.000697755
-1.16342e-06
-0.000759947
-6.12209e-07
-0.000866815
2.38287e-06
-0.000855721
-0.00119964
-1.78919e-05
-0.000135704
-1.48796e-05
-0.00015663
-1.2735e-05
-0.000178745
-1.07378e-05
-0.000203477
-8.91631e-06
-0.000228097
-7.49977e-06
-0.000252261
-6.41627e-06
-0.000278573
-5.55004e-06
-0.000308527
-4.80447e-06
-0.000342578
-4.13565e-06
-0.000380472
-3.52363e-06
-0.000422061
-2.90629e-06
-0.00046754
-2.40117e-06
-0.000517139
-1.73318e-06
-0.000571886
-1.50216e-06
-0.000630565
-7.25651e-07
-0.00069856
-9.06325e-07
-0.000759834
-2.72217e-07
-0.000867481
3.50509e-06
-0.000859532
-0.00119613
-1.32605e-05
-0.000140037
-1.0426e-05
-0.000159507
-8.73715e-06
-0.00018048
-7.21293e-06
-0.000205042
-5.83491e-06
-0.000229507
-4.85617e-06
-0.000253269
-4.18849e-06
-0.000279285
-3.70196e-06
-0.000309085
-3.28088e-06
-0.000343093
-2.87733e-06
-0.000380979
-2.48691e-06
-0.000422539
-2.05046e-06
-0.000468027
-1.71775e-06
-0.000517481
-1.13668e-06
-0.00057244
-1.09227e-06
-0.000630649
-2.53775e-07
-0.00069943
-6.28162e-07
-0.00075955
1.86634e-07
-0.000868307
4.22671e-06
-0.00086359
-0.00119189
-6.84135e-06
-0.000144231
-4.55023e-06
-0.000161864
-3.63631e-06
-0.000181462
-2.85272e-06
-0.000205877
-2.14993e-06
-0.000230243
-1.79309e-06
-0.00025366
-1.67072e-06
-0.000279465
-1.64831e-06
-0.000309188
-1.6032e-06
-0.00034322
-1.49694e-06
-0.000381157
-1.35345e-06
-0.00042274
-1.12211e-06
-0.000468302
-9.84792e-07
-0.000517642
-5.23909e-07
-0.000572896
-6.71272e-07
-0.000630574
2.1411e-07
-0.000700356
-3.72437e-07
-0.000759057
5.3152e-07
-0.000869208
4.39058e-06
-0.00086746
-0.00118749
1.5565e-06
-0.000147597
2.75942e-06
-0.000163095
2.52106e-06
-0.000181235
2.26784e-06
-0.000205606
2.04048e-06
-0.000229969
1.58725e-06
-0.000253157
1.04398e-06
-0.000278896
5.30414e-07
-0.000308663
1.54993e-07
-0.000342812
-6.65804e-08
-0.000380879
-1.91545e-07
-0.000422552
-1.80614e-07
-0.000468264
-2.44408e-07
-0.000517539
7.01047e-08
-0.000573185
-2.62578e-07
-0.000630293
6.5863e-07
-0.000701298
-1.14282e-07
-0.000758358
8.72897e-07
-0.00087018
4.35437e-06
-0.000870947
-0.00118313
1.21221e-05
-0.000149097
1.13966e-05
-0.000162349
9.52927e-06
-0.00017934
7.91937e-06
-0.000203957
6.50743e-06
-0.000228505
5.08008e-06
-0.000251681
3.78436e-06
-0.000277587
2.69399e-06
-0.00030758
1.87542e-06
-0.000341977
1.30934e-06
-0.000380264
9.05006e-07
-0.000422087
6.889e-07
-0.000468002
4.29903e-07
-0.000517241
5.91371e-07
-0.000573338
8.9809e-08
-0.000629843
1.01204e-06
-0.000702228
1.26078e-07
-0.000757526
1.19763e-06
-0.00087123
4.09348e-06
-0.000873845
-0.00117903
2.38784e-05
-0.000147127
2.0193e-05
-0.000158664
1.63786e-05
-0.000175548
1.33405e-05
-0.000200969
1.0699e-05
-0.000225928
8.29259e-06
-0.000249343
6.27775e-06
-0.000275664
4.65472e-06
-0.000306058
3.42534e-06
-0.000340821
2.53293e-06
-0.000379409
1.86147e-06
-0.00042144
1.42761e-06
-0.000467599
9.91278e-07
-0.000516823
1.00841e-06
-0.000573399
3.69412e-07
-0.000629275
1.24527e-06
-0.000703114
2.51988e-07
-0.000756575
1.46354e-06
-0.000872423
3.52085e-06
-0.000875905
-0.00117552
3.48533e-05
-0.000141452
2.77807e-05
-0.000151609
2.20617e-05
-0.000169867
1.78073e-05
-0.000196774
1.41053e-05
-0.000222273
1.08623e-05
-0.000246103
8.26371e-06
-0.000273041
6.2219e-06
-0.000303975
4.66927e-06
-0.000339209
3.51751e-06
-0.000378194
2.62657e-06
-0.000420514
2.00545e-06
-0.000466985
1.42286e-06
-0.000516255
1.31133e-06
-0.000573337
5.86974e-07
-0.000628618
1.43797e-06
-0.00070397
2.52548e-07
-0.000755416
1.63876e-06
-0.000873788
2.53401e-06
-0.000876802
-0.00117299
4.42661e-05
-0.000131212
3.33862e-05
-0.000140714
2.6121e-05
-0.00016257
2.10183e-05
-0.000191624
1.65158e-05
-0.00021771
1.26481e-05
-0.00024214
9.63342e-06
-0.000269905
7.29092e-06
-0.000301523
5.49725e-06
-0.000337331
4.15094e-06
-0.000376783
3.09991e-06
-0.000419442
2.34621e-06
-0.000466255
1.67442e-06
-0.000515607
1.46727e-06
-0.000573183
7.19041e-07
-0.000627929
1.54953e-06
-0.000704801
1.19602e-07
-0.000754003
1.72986e-06
-0.000875377
1.27054e-06
-0.000876349
-0.00117172
5.01964e-05
-0.000115659
3.60967e-05
-0.00012666
2.83037e-05
-0.000154807
2.27829e-05
-0.000186131
1.77613e-05
-0.000212768
1.35056e-05
-0.000238007
1.0238e-05
-0.000266755
7.72463e-06
-0.000299094
5.80755e-06
-0.000335468
4.36685e-06
-0.000375369
3.23928e-06
-0.000418357
2.42023e-06
-0.000465504
1.72146e-06
-0.000514956
1.45204e-06
-0.000572973
7.57819e-07
-0.000627292
1.48986e-06
-0.000705538
-6.93912e-08
-0.000752459
1.70841e-06
-0.00087714
1.83964e-07
-0.000874837
-0.00117155
4.85516e-05
-9.49757e-05
3.39826e-05
-0.000112144
2.76116e-05
-0.00014847
2.23439e-05
-0.000180845
1.73337e-05
-0.000207674
1.31645e-05
-0.0002337
9.97055e-06
-0.000263449
7.49447e-06
-0.000296554
5.59285e-06
-0.000333541
4.16108e-06
-0.000373926
3.04292e-06
-0.00041726
2.22527e-06
-0.00046474
1.5599e-06
-0.000514319
1.26473e-06
-0.00057271
7.48572e-07
-0.000626808
1.31494e-06
-0.000706098
-2.55019e-07
-0.000750891
1.75758e-06
-0.000879133
-5.235e-07
-0.000872561
-0.00117208
3.70547e-05
-7.12864e-05
2.70922e-05
-0.000102138
2.39681e-05
-0.000145361
1.96152e-05
-0.000176516
1.5206e-05
-0.000203312
1.15413e-05
-0.000230072
8.70787e-06
-0.000260642
6.50354e-06
-0.000294357
4.79096e-06
-0.000331837
3.49653e-06
-0.000372629
2.4908e-06
-0.000416267
1.75048e-06
-0.000464037
1.18146e-06
-0.000513754
8.80264e-07
-0.000572414
5.28974e-07
-0.000626468
8.67046e-07
-0.00070642
-6.20017e-07
-0.000749392
1.67697e-06
-0.000881406
-1.57418e-06
-0.000869315
-0.00117367
1.80542e-05
-5.42848e-05
1.79237e-05
-0.000101977
1.82095e-05
-0.000145607
1.50838e-05
-0.000173376
1.17445e-05
-0.000199962
8.91003e-06
-0.000227257
6.63373e-06
-0.00025841
4.86669e-06
-0.000292607
3.47008e-06
-0.00033047
2.41246e-06
-0.00037159
1.60646e-06
-0.00041548
1.00594e-06
-0.000463477
5.82057e-07
-0.000513331
2.97874e-07
-0.000572124
1.91512e-07
-0.000626368
2.74082e-07
-0.000706483
-1.08832e-06
-0.000748
1.24446e-06
-0.000883707
-3.26605e-06
-0.000864816
-0.00117694
5.79368e-07
-5.74172e-05
9.42018e-06
-0.000110883
1.16174e-05
-0.000147818
9.70105e-06
-0.000171415
7.49583e-06
-0.000197687
5.48654e-06
-0.000225225
3.83035e-06
-0.000256772
2.5986e-06
-0.00029136
1.6309e-06
-0.000329529
8.98144e-07
-0.000370881
3.89221e-07
-0.000414966
-1.53053e-08
-0.000463096
-2.31122e-07
-0.000513101
-5.47591e-07
-0.000571772
-3.2688e-07
-0.000626567
-6.54687e-07
-0.000706127
-9.63765e-07
-0.000747656
1.98093e-07
-0.000884831
-4.6354e-06
-0.000859977
-0.00118157
-1.82114e-06
-7.43261e-05
5.48153e-06
-0.000118164
6.58465e-06
-0.000148928
4.44958e-06
-0.000169293
2.82078e-06
-0.000196048
1.21678e-06
-0.000223654
1.45741e-07
-0.000255768
-5.55985e-07
-0.000290659
-9.74126e-07
-0.000329157
-1.29982e-06
-0.000370623
-1.35445e-06
-0.000414906
-1.49328e-06
-0.000462975
-1.28517e-06
-0.000513299
-1.7622e-06
-0.000571254
-9.227e-07
-0.000627375
-3.08955e-06
-0.000703927
-6.4151e-07
-0.000750061
-3.64547e-06
-0.000881772
-4.82463e-06
-0.000858794
-0.00118639
1.27855e-05
-7.18307e-05
8.20259e-06
-0.000113517
3.06226e-06
-0.000143732
-1.57371e-07
-0.00016609
-2.23123e-06
-0.000193968
-3.35159e-06
-0.000222536
-4.10693e-06
-0.000255077
-4.46672e-06
-0.0002903
-4.51245e-06
-0.000329107
-4.48005e-06
-0.000370736
-4.08671e-06
-0.000415273
-3.79716e-06
-0.000463256
-3.18286e-06
-0.000513897
-3.37972e-06
-0.000571033
-2.21649e-06
-0.000628516
-4.7682e-06
-0.000701339
-1.16277e-06
-0.000753659
-7.13482e-06
-0.000875756
-1.13208e-05
-0.000854599
-0.0011977
1.5894e-06
-7.34252e-05
-2.2522e-07
-0.000111707
-2.56298e-07
-0.000143695
-8.59906e-07
-0.000165501
-9.08132e-07
-0.000193932
-1.16099e-06
-0.000222279
-1.29954e-06
-0.000254958
-1.49002e-06
-0.00029013
-1.57754e-06
-0.000329019
-1.61406e-06
-0.000370718
-1.52871e-06
-0.000415355
-1.46452e-06
-0.000463306
-1.21489e-06
-0.00051414
-1.27321e-06
-0.000570975
-7.18285e-07
-0.000629063
-1.3735e-06
-0.000700659
9.52261e-08
-0.000755123
-1.81948e-06
-0.000873835
2.34266e-06
-0.000858762
-0.00119535
1.74251e-06
-7.51654e-05
-1.58341e-07
-0.000109804
-1.46656e-07
-0.000143706
-7.26476e-07
-0.000164925
-7.52853e-07
-0.000193907
-9.93921e-07
-0.000222036
-1.13106e-06
-0.000254819
-1.33082e-06
-0.000289934
-1.43194e-06
-0.000328913
-1.48339e-06
-0.000370667
-1.4118e-06
-0.000415425
-1.36216e-06
-0.000463359
-1.12385e-06
-0.000514376
-1.19517e-06
-0.0005709
-6.49961e-07
-0.000629611
-1.35994e-06
-0.000699949
1.13618e-07
-0.000756595
-1.88435e-06
-0.000871834
2.28513e-06
-0.000862933
-0.00119307
1.66424e-06
-7.68279e-05
-4.88713e-08
-0.00010809
-4.77463e-08
-0.000143707
-5.64117e-07
-0.000164412
-5.76921e-07
-0.000193895
-7.98572e-07
-0.000221814
-9.39669e-07
-0.000254675
-1.15097e-06
-0.000289724
-1.27005e-06
-0.000328787
-1.33972e-06
-0.000370599
-1.28502e-06
-0.000415478
-1.2495e-06
-0.000463399
-1.02929e-06
-0.000514594
-1.10759e-06
-0.000570817
-5.92191e-07
-0.00063013
-1.31079e-06
-0.000699232
1.44236e-07
-0.000758049
-1.86941e-06
-0.000869817
2.17417e-06
-0.000866978
-0.00119089
1.57787e-06
-7.84052e-05
8.54452e-08
-0.000106598
8.60937e-08
-0.00014371
-3.61442e-07
-0.000163968
-3.61814e-07
-0.000193896
-5.67414e-07
-0.000221609
-7.17195e-07
-0.00025452
-9.44739e-07
-0.000289499
-1.08662e-06
-0.000328638
-1.17856e-06
-0.00037051
-1.14388e-06
-0.000415509
-1.12427e-06
-0.000463422
-9.24913e-07
-0.000514793
-1.01182e-06
-0.000570726
-5.29925e-07
-0.000630616
-1.25113e-06
-0.000698513
1.8756e-07
-0.000759487
-1.8433e-06
-0.000867783
2.09658e-06
-0.00087092
-0.0011888
1.51305e-06
-7.99188e-05
2.44917e-07
-0.000105332
2.5026e-07
-0.000143718
-1.27036e-07
-0.000163593
-1.17525e-07
-0.000193906
-3.09613e-07
-0.000221419
-4.70879e-07
-0.000254352
-7.17207e-07
-0.000289255
-8.84697e-07
-0.000328463
-1.00129e-06
-0.000370398
-9.89118e-07
-0.000415517
-9.87146e-07
-0.000463428
-8.11144e-07
-0.00051497
-9.08059e-07
-0.000570626
-4.61599e-07
-0.000631066
-1.18267e-06
-0.000697794
2.35874e-07
-0.000760905
-1.81492e-06
-0.000865729
2.03982e-06
-0.000874778
-0.00118676
1.47964e-06
-8.13996e-05
4.31555e-07
-0.000104286
4.44727e-07
-0.000143733
1.37605e-07
-0.000163287
1.53771e-07
-0.000193922
-2.74923e-08
-0.000221239
-2.02768e-07
-0.000254169
-4.69815e-07
-0.000288991
-6.65212e-07
-0.00032826
-8.08452e-07
-0.00037026
-8.21145e-07
-0.000415499
-8.38522e-07
-0.000463413
-6.88264e-07
-0.000515121
-7.9666e-07
-0.000570514
-3.8763e-07
-0.000631479
-1.10718e-06
-0.000697076
2.87139e-07
-0.000762299
-1.78383e-06
-0.000863655
2.00475e-06
-0.00087857
-0.00118475
1.47822e-06
-8.28789e-05
6.45421e-07
-0.000103455
6.69978e-07
-0.000143758
4.31939e-07
-0.000163047
4.50786e-07
-0.000193941
2.7721e-07
-0.000221068
8.54083e-08
-0.00025397
-2.03779e-07
-0.000288708
-4.28843e-07
-0.000328026
-6.00428e-07
-0.000370094
-6.4027e-07
-0.000415453
-6.78727e-07
-0.000463376
-5.56506e-07
-0.000515246
-6.77908e-07
-0.00057039
-3.08392e-07
-0.000631851
-1.02506e-06
-0.000696362
3.41218e-07
-0.000763665
-1.75191e-06
-0.000861558
1.98961e-06
-0.000882314
-0.00118276
1.50804e-06
-8.43873e-05
8.87307e-07
-0.000102835
9.26194e-07
-0.000143795
7.55133e-07
-0.000162874
7.71932e-07
-0.000193956
6.02333e-07
-0.0002209
3.91372e-07
-0.000253752
7.90802e-08
-0.000288403
-1.76841e-07
-0.000327762
-3.78082e-07
-0.0003699
-4.4712e-07
-0.000415377
-5.08272e-07
-0.000463316
-4.16259e-07
-0.000515341
-5.52923e-07
-0.000570251
-2.25406e-07
-0.000632181
-9.36597e-07
-0.000695652
3.98013e-07
-0.000764998
-1.72077e-06
-0.000859435
1.99287e-06
-0.000886031
-0.00118077
1.56945e-06
-8.59561e-05
1.15908e-06
-0.000102425
1.21315e-06
-0.000143847
1.10577e-06
-0.000162764
1.11504e-06
-0.000193965
9.45085e-07
-0.000220733
7.12304e-07
-0.000253512
3.76353e-07
-0.000288077
8.89522e-08
-0.000327466
-1.42713e-07
-0.000369676
-2.4263e-07
-0.000415271
-3.27919e-07
-0.000463231
-2.68041e-07
-0.000515405
-4.20771e-07
-0.000570095
-1.37961e-07
-0.000632465
-8.41805e-07
-0.000694949
4.57219e-07
-0.000766296
-1.69092e-06
-0.000857283
2.01486e-06
-0.00088974
-0.00117875
1.66085e-06
-8.76151e-05
1.461e-06
-0.000102226
1.53148e-06
-0.000143914
1.48183e-06
-0.000162712
1.47732e-06
-0.000193959
1.30193e-06
-0.000220561
1.04474e-06
-0.00025325
6.85114e-07
-0.00028773
3.66319e-07
-0.000327139
1.04112e-07
-0.000369421
-2.79465e-08
-0.000415131
-1.38661e-07
-0.000463119
-1.1262e-07
-0.000515436
-2.81823e-07
-0.000569924
-4.64551e-08
-0.0006327
-7.40441e-07
-0.000694255
5.18377e-07
-0.000767553
-1.66368e-06
-0.000855096
2.05623e-06
-0.000893463
-0.0011767
1.78052e-06
-8.93927e-05
1.79267e-06
-0.000102241
1.88053e-06
-0.000143998
1.88086e-06
-0.000162712
1.8557e-06
-0.000193933
1.66863e-06
-0.000220378
1.38451e-06
-0.000252961
1.00185e-06
-0.00028736
6.52664e-07
-0.000326781
3.60502e-07
-0.000369136
1.95478e-07
-0.000414959
5.82818e-08
-0.00046298
4.90781e-08
-0.000515432
-1.36483e-07
-0.000569736
5.14044e-08
-0.000632888
-6.30005e-07
-0.000693574
5.80983e-07
-0.000768763
-1.63794e-06
-0.000852872
2.12329e-06
-0.000897227
-0.00117457
1.92705e-06
-9.13157e-05
2.15409e-06
-0.000102472
2.259e-06
-0.000144098
2.30016e-06
-0.000162756
2.24643e-06
-0.000193878
2.0402e-06
-0.000220176
1.72676e-06
-0.000252643
1.32236e-06
-0.000286968
9.4484e-07
-0.000326396
6.2408e-07
-0.000368823
4.25841e-07
-0.000414754
2.61475e-07
-0.000462813
2.15932e-07
-0.000515392
1.46435e-08
-0.000569534
1.57056e-07
-0.00063303
-5.06329e-07
-0.00069291
6.48246e-07
-0.000769917
-1.61381e-06
-0.000850606
2.21682e-06
-0.000901061
-0.00117235
2.1002e-06
-9.34109e-05
2.54375e-06
-0.000102921
2.66722e-06
-0.000144216
2.73929e-06
-0.000162832
2.64459e-06
-0.000193782
2.41114e-06
-0.000219947
2.06604e-06
-0.000252293
1.64175e-06
-0.000286556
1.23908e-06
-0.000325984
8.9202e-07
-0.000368482
6.61024e-07
-0.000414517
4.69234e-07
-0.000462619
3.86615e-07
-0.000515316
1.70688e-07
-0.000569317
2.67167e-07
-0.000633127
-3.71836e-07
-0.000692271
7.20598e-07
-0.000771009
-1.59165e-06
-0.000848289
2.3388e-06
-0.000904995
-0.00117001
2.30073e-06
-9.57058e-05
2.95922e-06
-0.000103586
3.10009e-06
-0.000144351
3.19096e-06
-0.000162928
3.04417e-06
-0.000193633
2.77519e-06
-0.000219682
2.39631e-06
-0.00025191
1.95479e-06
-0.000286125
1.53116e-06
-0.000325552
1.16108e-06
-0.000368118
8.9862e-07
-0.000414249
6.79618e-07
-0.000462396
5.59621e-07
-0.000515202
3.30393e-07
-0.000569087
3.8011e-07
-0.000633177
-2.32416e-07
-0.000691658
7.92235e-07
-0.000772034
-1.57216e-06
-0.000845921
2.49217e-06
-0.000909063
-0.00116752
2.53013e-06
-9.82291e-05
3.39664e-06
-0.000104459
3.55244e-06
-0.000144502
3.64832e-06
-0.000163028
3.43849e-06
-0.00019342
3.12538e-06
-0.000219373
2.71091e-06
-0.000251491
2.25573e-06
-0.000285679
1.81665e-06
-0.000325104
1.42778e-06
-0.000367735
1.13591e-06
-0.000413952
8.90416e-07
-0.000462147
7.33372e-07
-0.00051505
4.92155e-07
-0.000568846
4.89628e-07
-0.000633175
-9.43831e-08
-0.000691073
8.6251e-07
-0.000772992
-1.55646e-06
-0.0008435
2.68026e-06
-0.000913303
-0.00116484
2.79031e-06
-0.000101012
3.85087e-06
-0.000105525
4.01758e-06
-0.000144665
4.1037e-06
-0.000163119
3.82014e-06
-0.000193133
3.45432e-06
-0.000219012
3.00274e-06
-0.000251036
2.5384e-06
-0.000285223
2.09068e-06
-0.000324648
1.68836e-06
-0.000367338
1.37003e-06
-0.000413631
1.09932e-06
-0.000461874
9.06089e-07
-0.000514862
6.54373e-07
-0.000568595
6.00081e-07
-0.000633123
4.85171e-08
-0.000690521
9.30043e-07
-0.000773875
-1.54526e-06
-0.000841023
2.90595e-06
-0.000917758
-0.00116193
3.08334e-06
-0.000104088
4.31593e-06
-0.000106761
4.48388e-06
-0.000144832
4.54615e-06
-0.000163183
4.18103e-06
-0.000192765
3.7545e-06
-0.000218589
3.26447e-06
-0.000250543
2.79644e-06
-0.000284761
2.34811e-06
-0.000324191
1.93879e-06
-0.000366933
1.59779e-06
-0.000413288
1.30395e-06
-0.000461577
1.07577e-06
-0.000514638
8.15754e-07
-0.000568336
7.09288e-07
-0.000633018
1.96396e-07
-0.000690008
9.8828e-07
-0.000774669
-1.53568e-06
-0.000838498
3.17006e-06
-0.000922466
-0.00115876
3.39837e-06
-0.000107481
4.76219e-06
-0.000108128
4.93824e-06
-0.000145008
4.96508e-06
-0.000163211
4.51393e-06
-0.000192311
4.01835e-06
-0.000218098
3.48833e-06
-0.000250012
3.02303e-06
-0.000284301
2.58334e-06
-0.000323744
2.17467e-06
-0.000366527
1.81571e-06
-0.000412929
1.50185e-06
-0.00046126
1.24022e-06
-0.000514378
9.72974e-07
-0.000568069
8.11989e-07
-0.00063286
3.38859e-07
-0.000689534
1.01427e-06
-0.000775345
-1.52518e-06
-0.000835957
3.47207e-06
-0.000927465
-0.00115529
3.78262e-06
-0.00011126
5.22016e-06
-0.000109567
5.38326e-06
-0.000145173
5.35818e-06
-0.000163185
4.8122e-06
-0.000191762
4.23452e-06
-0.000217525
3.66237e-06
-0.000249439
3.20708e-06
-0.000283849
2.78791e-06
-0.000323316
2.3892e-06
-0.000366129
2.01887e-06
-0.00041256
1.68869e-06
-0.000460928
1.39707e-06
-0.000514086
1.12241e-06
-0.000567794
9.10123e-07
-0.000632651
4.79129e-07
-0.000689101
1.03181e-06
-0.000775898
-1.52102e-06
-0.000833402
3.8206e-06
-0.000932806
-0.00115147
4.09782e-06
-0.000115355
5.71155e-06
-0.000111181
5.73611e-06
-0.000145198
5.65694e-06
-0.000163107
5.00445e-06
-0.000191103
4.35565e-06
-0.000216883
3.75296e-06
-0.00024884
3.32397e-06
-0.000283422
2.94169e-06
-0.000322926
2.56606e-06
-0.000365752
2.19278e-06
-0.000412192
1.85349e-06
-0.000460588
1.53287e-06
-0.00051376
1.25715e-06
-0.000567517
9.86561e-07
-0.000632387
6.29191e-07
-0.000688744
1.01585e-06
-0.000776279
-1.40211e-06
-0.000830981
3.97963e-06
-0.000938189
-0.00114749
3.54704e-05
-9.43918e-05
-5.6418e-05
4.17644e-05
-0.000117515
3.53903e-05
-0.000138861
3.41399e-05
-0.000161966
2.97263e-05
-0.00018655