/*--------------------------------*- C++ -*----------------------------------*\
  =========                 |
  \\      /  F ield         | OpenFOAM: The Open Source CFD Toolbox
   \\    /   O peration     | Website:  https://openfoam.org
    \\  /    A nd           | Version:  10
     \\/     M anipulation  |
\*---------------------------------------------------------------------------*/
FoamFile
{
    format      ascii;
    class       volVectorField;
    location    "600";
    object      U;
}
// * * * * * * * * * * * * * * * * * * * * * * * * * * * * * * * * * * * * * //

dimensions      [0 1 -1 0 0 0 0];

internalField   nonuniform List<vector> 
420
(
(0.277969 8.7458 5.13224e-18)
(-0.588982 11.4122 -4.36903e-17)
(-0.187415 13.0657 -2.32666e-16)
(-0.0616782 14.4595 6.34523e-17)
(-0.0360475 15.6002 -4.42529e-16)
(-0.14387 16.5408 0)
(-0.349333 17.3227 0)
(-0.547136 17.7801 5.45502e-16)
(-0.646629 17.8395 -5.57648e-16)
(-0.709561 17.4677 0)
(-0.290904 8.47193 2.69022e-17)
(-1.37312 11.1283 -1.06834e-16)
(-1.11678 12.8227 7.15189e-16)
(-1.09171 14.2718 -1.03071e-15)
(-1.15354 15.5253 3.18873e-16)
(-1.33327 16.6128 -1.73824e-18)
(-1.52655 17.4973 2.77954e-15)
(-1.71048 17.873 -7.38848e-16)
(-1.82745 17.7819 1.24357e-15)
(-1.87478 17.3668 0)
(-0.778086 8.44218 8.50034e-17)
(-2.08909 10.8594 -4.89936e-16)
(-1.99668 12.5498 7.16629e-16)
(-2.10745 14.0372 1.18839e-15)
(-2.27862 15.3859 -7.81027e-16)
(-2.52036 16.5787 3.70361e-15)
(-2.69013 17.4918 1.65451e-15)
(-2.85918 17.8127 4.85392e-15)
(-2.97744 17.6609 -1.93385e-15)
(-2.97534 17.2205 -3.93978e-15)
(-1.33409 8.37988 -2.61807e-17)
(-2.84209 10.5559 4.4629e-16)
(-2.87266 12.2108 -8.87105e-16)
(-3.08616 13.7071 8.08262e-16)
(-3.33131 15.1168 -1.54825e-15)
(-3.59021 16.3783 1.67066e-15)
(-3.74706 17.3047 -9.18047e-15)
(-3.89156 17.6369 0)
(-4.00823 17.4792 -5.09431e-15)
(-3.98761 17.0368 4.03854e-15)
(-1.93654 8.2454 0)
(-3.60639 10.1882 3.41899e-16)
(-3.73917 11.7893 -3.27514e-16)
(-4.02357 13.2706 0)
(-4.3105 14.7113 -2.93055e-16)
(-4.57762 16.0251 -2.78264e-16)
(-4.72938 16.9789 2.95027e-15)
(-4.85356 17.4297 -4.17658e-15)
(-4.96632 17.3125 0)
(-4.95964 16.8794 -1.59e-14)
(-2.56549 8.06546 3.85145e-18)
(-4.37611 9.75403 0)
(-4.5966 11.2707 0)
(-4.93526 12.7073 1.3677e-15)
(-5.24755 14.1413 -2.08637e-15)
(-5.5045 15.4685 2.24625e-15)
(-5.67108 16.4467 5.73511e-16)
(-5.8011 17.0493 8.2801e-15)
(-5.93436 17.0625 -1.18152e-14)
(-6.00246 16.7131 7.1354e-15)
(-3.22248 7.86181 0)
(-5.13921 9.26284 -3.43008e-16)
(-5.43625 10.6638 -2.13545e-15)
(-5.83465 12.019 -8.58636e-16)
(-6.18883 13.3967 -3.56964e-15)
(-6.47275 14.7098 2.20867e-15)
(-6.68758 15.7347 -5.11354e-15)
(-6.89282 16.4203 7.08198e-16)
(-7.1409 16.6146 -3.07928e-15)
(-7.3777 16.4467 -1.01518e-14)
(-3.91858 7.64561 -6.9127e-18)
(-5.8698 8.72299 3.40575e-16)
(-6.22233 9.9904 2.85314e-15)
(-6.68687 11.2335 5.65237e-16)
(-7.12447 12.4976 2.22803e-15)
(-7.51094 13.713 0)
(-7.86696 14.7473 5.39676e-15)
(-8.2903 15.5229 6.62945e-15)
(-8.76915 15.9569 7.63797e-15)
(-9.28165 16.0143 7.63298e-15)
(-4.673 7.39802 -7.42041e-18)
(-6.54311 8.17104 3.41147e-16)
(-6.96333 9.35913 -3.62485e-16)
(-7.50924 10.5278 -1.8e-15)
(-8.05778 11.7017 5.50572e-15)
(-8.60655 12.8394 7.25259e-15)
(-9.18905 13.8423 -2.50003e-15)
(-9.8814 14.6688 0)
(-10.6536 15.2821 0)
(-11.4364 15.392 -8.92436e-15)
(-5.5135 7.04584 7.91048e-17)
(-6.92046 7.73182 8.49103e-16)
(-7.50667 8.70641 0)
(-8.24303 9.6908 0)
(-9.00216 10.6842 -3.66297e-15)
(-9.75709 11.7082 -4.22859e-17)
(-10.5207 12.7608 6.42892e-15)
(-11.3015 13.8332 -1.42216e-14)
(-12.0574 14.7689 1.69668e-14)
(-12.6145 14.8417 1.27444e-15)
(-0.681425 16.8414 0)
(-0.598575 16.0114 0)
(-0.425537 15.0898 0)
(-0.212074 14.33 -8.01008e-16)
(-0.0814555 13.573 0)
(-0.252265 12.3527 0)
(0.102349 10.5045 8.71425e-16)
(2.22644 10.4212 0)
(-5.59477 15.0943 0)
(7.35329 1.33288 0)
(-1.80623 16.7081 1.53612e-15)
(-1.70823 15.8353 2.51625e-15)
(-1.50286 14.8864 1.17496e-16)
(-1.27226 14.151 9.05742e-16)
(-1.10495 13.424 8.67517e-17)
(-1.16843 12.2603 1.20842e-15)
(-0.819439 10.3858 2.39628e-16)
(1.77755 10.372 4.77575e-17)
(-6.77369 15.1892 -2.98277e-15)
(6.96355 1.62724 -8.75933e-16)
(-2.87189 16.5465 1.45146e-15)
(-2.76949 15.6286 0)
(-2.53031 14.6504 -2.10095e-15)
(-2.2968 13.9264 -1.8669e-15)
(-2.10437 13.2117 5.6096e-15)
(-2.0618 12.1075 -1.1342e-15)
(-1.66485 10.2326 1.98869e-15)
(0.996087 10.3425 0)
(-7.53127 14.5883 3.04563e-15)
(6.69208 2.65332 -1.56679e-17)
(-3.88885 16.3872 3.32406e-15)
(-3.80673 15.4212 7.93912e-15)
(-3.53211 14.401 -8.28657e-15)
(-3.29079 13.6736 3.30856e-15)
(-3.06537 12.9556 6.54334e-17)
(-2.91562 11.8925 0)
(-2.43369 10.0454 -1.96176e-15)
(0.115187 10.2564 -3.76245e-15)
(-8.5451 13.866 -2.97174e-15)
(6.38144 3.59729 3.56449e-15)
(-4.91955 16.2684 2.97157e-15)
(-4.85671 15.233 -2.52754e-15)
(-4.53285 14.1549 8.35458e-15)
(-4.27576 13.3948 -3.40853e-15)
(-4.0087 12.6524 3.00687e-15)
(-3.75034 11.6146 -4.57576e-15)
(-3.17166 9.81408 4.26076e-15)
(-0.726851 10.1255 3.94021e-15)
(-9.47627 13.0972 0)
(6.03108 4.53631 -7.26461e-15)
(-6.08486 16.1411 3.38812e-15)
(-5.99547 15.0064 -1.48508e-14)
(-5.57538 13.8728 -4.30672e-15)
(-5.27884 13.0714 1.0343e-14)
(-4.94987 12.2894 9.01388e-15)
(-4.57265 11.2648 3.7667e-16)
(-3.88825 9.51941 1.33219e-16)
(-1.5518 9.91307 -3.47608e-15)
(-10.3391 12.2992 -2.54816e-15)
(5.62586 5.44015 7.2343e-15)
(-7.57771 15.8672 3.38441e-15)
(-7.2902 14.6018 5.09471e-15)
(-6.68258 13.4706 0)
(-6.31554 12.6539 -3.37261e-15)
(-5.89604 11.8384 -5.45497e-15)
(-5.38305 10.8286 3.33169e-16)
(-4.58758 9.15102 -1.1287e-14)
(-2.34594 9.61879 -3.51039e-15)
(-11.1479 11.3805 5.27751e-15)
(5.18165 6.28358 -3.6088e-15)
(-9.36387 15.2407 1.30935e-14)
(-8.62036 13.8545 -4.75103e-15)
(-7.78585 12.8673 0)
(-7.34972 12.0988 -2.58137e-16)
(-6.82829 11.2766 2.23109e-14)
(-6.17125 10.292 -8.93275e-15)
(-5.26264 8.68988 -7.55783e-15)
(-3.1113 9.23005 6.22011e-15)
(-11.8985 10.5953 -4.66889e-15)
(4.70328 7.07897 0)
(-10.848 14.0933 3.7583e-16)
(-9.69708 12.833 -4.81701e-15)
(-8.8112 12.1264 0)
(-8.34342 11.4366 6.77791e-15)
(-7.7471 10.6178 -1.62807e-14)
(-6.96383 9.65893 8.87337e-15)
(-5.94357 8.13313 3.59015e-15)
(-3.88447 8.70384 0)
(-12.6294 9.77294 3.82515e-16)
(4.18861 7.91463 3.54714e-15)
(-11.2351 13.1906 4.79134e-16)
(-10.4669 11.9774 -5.18185e-17)
(-9.79304 11.4603 0)
(-9.32137 10.7795 -1.34139e-14)
(-8.69324 9.93894 5.16336e-15)
(-7.84002 8.97553 -4.53615e-15)
(-6.73117 7.53369 3.68155e-15)
(-4.74952 7.94636 -4.04319e-16)
(-13.4076 8.74586 -3.8194e-16)
(3.59038 8.80008 -3.48959e-15)
(-10.7158 13.3547 2.92442e-15)
(-10.91 11.5448 -5.05095e-15)
(-10.4178 10.9965 0)
(-9.89766 10.28 0)
(-9.20723 9.41524 0)
(-8.27207 8.41723 -2.12591e-15)
(-7.08955 7.04753 8.20972e-15)
(-5.50075 7.32635 0)
(-13.7601 6.82365 0)
(3.18118 9.7061 0)
(-11.2978 12.6546 -2.81875e-15)
(-11.4397 11.2312 -4.83348e-15)
(-10.9578 10.645 0)
(-10.3496 9.93553 3.32736e-15)
(-9.57681 9.09899 -2.54633e-15)
(-8.54686 8.13783 2.02712e-15)
(-7.33166 6.85389 2.90205e-15)
(-5.88104 7.34983 1.85485e-16)
(-13.8731 5.94486 9.57044e-16)
(2.84706 9.73909 0)
(-12.5694 11.3191 1.57068e-16)
(-12.2054 10.6581 6.51931e-17)
(-11.6941 10.0121 0)
(-10.9678 9.36333 1.56423e-16)
(-10.1047 8.60396 4.89157e-15)
(-8.96984 7.73864 -3.68096e-15)
(-7.69628 6.6282 -8.69095e-15)
(-6.31382 7.23209 -3.72929e-15)
(-14.0949 5.6279 5.95574e-15)
(2.16654 9.86186 3.07239e-15)
(-14.0083 9.97988 -1.22192e-14)
(-13.2796 9.48547 4.72192e-15)
(-12.572 8.9124 0)
(-11.7364 8.30257 -6.10946e-15)
(-10.8076 7.56778 -4.85504e-15)
(-9.58142 6.73051 7.27035e-15)
(-8.18173 5.81201 2.5995e-15)
(-7.04496 6.07167 0)
(-14.325 4.94477 -3.26934e-15)
(1.39523 10.1581 -4.3732e-16)
(-14.6803 8.61104 -2.63087e-16)
(-14.0277 8.28568 4.72651e-15)
(-13.2745 7.84196 0)
(-12.3921 7.33038 1.23131e-14)
(-11.4166 6.67379 8.41578e-17)
(-10.1149 5.87911 -4.16701e-17)
(-8.61804 5.13803 4.77465e-15)
(-7.7287 5.24988 -3.86295e-15)
(-14.3301 3.35668 -2.30285e-15)
(0.570544 10.1918 0)
(-15.2104 7.3691 -2.86461e-15)
(-14.6297 7.11356 9.3107e-15)
(-13.8666 6.74391 7.63194e-15)
(-12.9589 6.31782 -8.75137e-15)
(-11.9533 5.73988 -1.36293e-14)
(-10.5843 5.00067 1.119e-16)
(-9.00049 4.45456 -2.4238e-15)
(-8.3996 4.46372 -1.70561e-15)
(-14.1833 2.18228 -2.43283e-15)
(-0.187674 10.0668 -3.08131e-15)
(-15.6822 6.21173 -8.43548e-15)
(-15.127 5.97076 4.46347e-15)
(-14.3539 5.65459 -3.48662e-15)
(-13.4369 5.30241 -8.60194e-15)
(-12.4187 4.7919 6.7041e-15)
(-10.9967 4.11165 1.09126e-16)
(-9.34028 3.76649 4.92175e-15)
(-9.0009 3.65154 1.34388e-15)
(-13.861 0.87001 1.06754e-15)
(-0.819696 10.2152 5.01701e-16)
(-16.1108 5.07712 2.47994e-15)
(-15.5487 4.84702 -2.24813e-15)
(-14.7536 4.58187 -5.04912e-17)
(-13.8376 4.30277 8.49298e-15)
(-12.8251 3.85664 -1.09011e-14)
(-11.3619 3.23663 3.30105e-15)
(-9.65264 3.06444 -2.285e-15)
(-9.49163 2.8081 5.21825e-15)
(-13.4123 -0.402197 0)
(-1.38658 10.2447 -2.0169e-16)
(-16.4916 3.9323 2.75212e-15)
(-15.8906 3.72889 2.24615e-15)
(-15.0679 3.52723 3.65289e-15)
(-14.1705 3.3275 -5.62774e-15)
(-13.1897 2.94666 2.14632e-15)
(-11.7112 2.38756 0)
(-9.96255 2.33582 -1.26907e-15)
(-9.92148 1.97432 -3.12359e-15)
(-13.0208 -1.64782 2.60158e-16)
(-1.89552 10.4259 3.04014e-15)
(-16.787 2.75978 1.26729e-15)
(-16.1251 2.61003 0)
(-15.2841 2.48934 1.83633e-15)
(-14.4236 2.37908 1.48654e-15)
(-13.492 2.07219 1.13333e-17)
(-12.0344 1.55941 -8.48462e-16)
(-10.2587 1.61266 1.25673e-15)
(-10.0857 1.2516 0)
(-12.666 -3.11782 1.01109e-15)
(-2.45921 10.8592 3.99327e-15)
(-16.9181 1.57048 1.41153e-15)
(-16.2022 1.51542 -2.33979e-15)
(-15.3601 1.52161 -8.78779e-17)
(-14.5479 1.54507 6.76686e-16)
(-13.6634 1.38967 -2.31401e-17)
(-12.2083 0.907421 8.32372e-16)
(-10.4165 1.1501 -1.38345e-15)
(-9.8617 1.03903 1.53346e-16)
(-12.036 -4.80317 1.778e-15)
(-2.6772 11.392 -2.71399e-15)
(-16.9304 0.481148 2.08424e-29)
(-16.1681 0.521101 0)
(-15.2858 0.656155 0)
(-14.5261 0.878737 -7.55095e-16)
(-13.7666 1.02313 0)
(-12.5502 0.778038 0)
(-10.6526 1.26373 7.31732e-16)
(-10.6312 2.56641 0)
(-14.5149 -4.96943 0)
(-0.613497 6.169 -1.27674e-29)
(-14.2119 12.2855 8.29566e-16)
(-14.857 10.2243 -7.30086e-15)
(-15.2196 8.64394 6.88446e-15)
(-15.5616 7.4001 -9.17313e-15)
(-15.9624 6.2842 6.00071e-15)
(-16.3799 5.18895 -1.23931e-14)
(-16.7904 4.06937 3.09125e-15)
(-17.1478 2.88707 -3.34885e-15)
(-17.3737 1.63538 0)
(-17.4849 0.480103 -3.9962e-16)
(-14.8921 11.5889 1.49135e-14)
(-15.4099 9.68701 0)
(-15.5497 8.30655 7.1105e-15)
(-15.7349 7.21177 -2.8087e-15)
(-16.0252 6.1995 -9.27755e-15)
(-16.3883 5.19007 0)
(-16.7918 4.13598 -3.45464e-15)
(-17.1821 2.99234 -1.59559e-15)
(-17.4983 1.73019 1.07149e-15)
(-17.7374 0.543109 -4.59571e-16)
(-14.6649 10.7803 -1.23859e-14)
(-15.5085 9.02372 0)
(-15.6234 7.80305 6.54943e-15)
(-15.7392 6.87474 4.82168e-16)
(-15.9337 5.98954 7.66972e-15)
(-16.2126 5.09109 -3.65418e-15)
(-16.5552 4.13297 0)
(-16.916 3.07006 4.31801e-15)
(-17.2483 1.87112 -7.38175e-16)
(-17.5422 0.640848 6.06474e-16)
(-13.6284 10.0108 5.61867e-15)
(-15.0624 8.39095 -2.32114e-15)
(-15.4005 7.28387 5.38206e-15)
(-15.5689 6.50837 -6.01239e-15)
(-15.7092 5.75684 6.19796e-16)
(-15.9023 4.95188 3.96666e-15)
(-16.1596 4.0837 -1.25793e-14)
(-16.466 3.11011 2.02814e-15)
(-16.7767 2.01948 3.14641e-15)
(-17.0596 0.835578 8.70254e-17)
(-12.4049 9.31223 -8.43381e-15)
(-14.0078 7.84795 6.43314e-15)
(-14.7916 6.84755 0)
(-15.1704 6.13691 2.0758e-15)
(-15.3929 5.48311 2.25607e-15)
(-15.5733 4.78137 -2.78964e-16)
(-15.7742 4.00567 1.79526e-15)
(-16.0092 3.1189 3.95606e-15)
(-16.2348 2.11927 -2.30343e-18)
(-16.4153 1.01316 3.48808e-16)
(-11.1927 8.65913 -3.39849e-15)
(-12.7093 7.39429 4.81321e-15)
(-13.6658 6.49129 1.83202e-15)
(-14.3345 5.80985 -3.0428e-15)
(-14.7421 5.19566 -1.82566e-15)
(-15.0241 4.55945 -2.31472e-16)
(-15.2315 3.84709 -3.37712e-15)
(-15.4021 3.02426 1.03616e-15)
(-15.537 2.09225 3.16598e-16)
(-15.6092 1.05631 -3.48142e-16)
(-10.0423 8.02968 0)
(-11.2962 6.95713 -1.60082e-15)
(-12.2923 6.17584 4.5766e-16)
(-13.0701 5.51955 -7.06048e-16)
(-13.6313 4.90532 1.15689e-15)
(-14.0208 4.27436 0)
(-14.2945 3.58637 7.37039e-16)
(-14.4749 2.80925 1.11342e-15)
(-14.566 1.93371 -9.83938e-16)
(-14.5645 0.967306 -2.96039e-17)
(-8.93064 7.38582 0)
(-9.89036 6.53074 -3.5618e-16)
(-10.8007 5.8863 2.54817e-15)
(-11.5718 5.26229 -1.84603e-15)
(-12.1917 4.6422 0)
(-12.6486 4.00025 -2.92505e-16)
(-12.9624 3.31081 -7.9411e-16)
(-13.1554 2.5522 6.63183e-16)
(-13.2349 1.70714 6.61995e-16)
(-13.2131 0.780605 -2.6338e-16)
(-7.83398 6.6588 -9.3528e-16)
(-8.55468 6.03103 3.69318e-16)
(-9.32869 5.46783 3.54594e-16)
(-10.0106 4.85304 -3.39158e-16)
(-10.5763 4.21338 0)
(-11.012 3.53985 3.17312e-16)
(-11.3153 2.82608 3.96213e-16)
(-11.4953 2.06793 -4.37672e-16)
(-11.5581 1.24942 -9.4819e-17)
(-11.5363 0.371533 4.76202e-18)
(-6.36992 6.25529 -2.89977e-16)
(-6.57892 6.04945 6.83546e-17)
(-6.97965 5.57546 5.42569e-17)
(-7.4075 5.0059 0)
(-7.80816 4.42282 -1.7883e-17)
(-8.15518 3.83685 0)
(-8.43678 3.23727 -4.32409e-17)
(-8.6545 2.61051 9.78788e-17)
(-8.82497 1.93192 3.07411e-17)
(-8.95396 1.17419 -7.47697e-18)
)
;

boundaryField
{
    right
    {
        type            cyclic;
    }
    left
    {
        type            cyclic;
    }
    outerWall
    {
        type            calculated;
        value           nonuniform List<vector> 
22
(
(-1.55201 41.8305 0)
(-4.64749 41.6006 0)
(-7.71741 41.1419 0)
(-10.7449 40.4569 0)
(-13.7132 39.5492 0)
(-16.6061 38.424 0)
(-19.4075 37.0874 0)
(-22.1022 35.5467 0)
(-24.6752 33.8104 0)
(-27.1124 31.8882 0)
(-28.9573 30.2506 0)
(-30.2506 28.9573 0)
(-31.8882 27.1124 0)
(-33.8104 24.6752 0)
(-35.5467 22.1022 0)
(-37.0874 19.4075 0)
(-38.424 16.6061 0)
(-39.5492 13.7132 0)
(-40.4569 10.7449 0)
(-41.1419 7.71741 0)
(-41.6006 4.64749 0)
(-41.8305 1.55201 0)
)
;
    }
    stirrerWall
    {
        type            calculated;
        value           nonuniform List<vector> 
42
(
(-0.310178 8.3662 0)
(-0.928834 8.32046 0)
(-1.54239 8.22894 0)
(-2.14746 8.09214 0)
(-2.74072 7.91082 0)
(-3.31888 7.68598 0)
(-3.87877 7.41885 0)
(-4.41729 7.11092 0)
(-4.93148 6.76387 0)
(-5.4185 6.37963 0)
(-6.07951 6.64185 0)
(-6.92878 7.56862 0)
(-7.77806 8.49539 0)
(-8.62734 9.42216 0)
(-9.47661 10.3489 0)
(-10.3259 11.2757 0)
(-11.1752 12.2025 0)
(-12.0244 13.1292 0)
(-12.8737 14.056 0)
(-13.723 14.9828 0)
(-14.4723 15.1215 0)
(-15.1215 14.4723 0)
(-14.9828 13.723 0)
(-14.056 12.8737 0)
(-13.1292 12.0244 0)
(-12.2025 11.1752 0)
(-11.2757 10.3259 0)
(-10.3489 9.47661 0)
(-9.42216 8.62734 0)
(-8.49539 7.77806 0)
(-7.56862 6.92878 0)
(-6.64185 6.07951 0)
(-6.37963 5.4185 0)
(-6.76387 4.93148 0)
(-7.11092 4.41729 0)
(-7.41885 3.87877 0)
(-7.68598 3.31888 0)
(-7.91082 2.74072 0)
(-8.09214 2.14746 0)
(-8.22894 1.54239 0)
(-8.32046 0.928834 0)
(-8.3662 0.310178 0)
)
;
    }
    top
    {
        type            empty;
    }
    bottom
    {
        type            empty;
    }
}


// ************************************************************************* //
