/*--------------------------------*- C++ -*----------------------------------*\
  =========                 |
  \\      /  F ield         | OpenFOAM: The Open Source CFD Toolbox
   \\    /   O peration     | Website:  https://openfoam.org
    \\  /    A nd           | Version:  10
     \\/     M anipulation  |
\*---------------------------------------------------------------------------*/
FoamFile
{
    format      ascii;
    class       volVectorField;
    location    "600";
    object      U;
}
// * * * * * * * * * * * * * * * * * * * * * * * * * * * * * * * * * * * * * //

dimensions      [0 1 -1 0 0 0 0];

internalField   nonuniform List<vector> 
2000
(
(4.64249 40.068 2.34606e-17)
(0.165497 49.7476 2.45441e-17)
(0.546881 54.6943 -1.88894e-17)
(1.22769 59.0366 0)
(2.23811 63.3348 0)
(3.48595 67.5774 4.44461e-16)
(4.60368 71.5866 -4.96723e-16)
(5.27186 75.0188 -5.72633e-16)
(5.38596 77.6646 6.87403e-16)
(4.95503 79.5401 8.56519e-16)
(4.05982 80.811 1.10782e-15)
(2.66619 81.7701 0)
(0.585423 82.9297 2.04118e-15)
(-2.14599 84.9063 2.54378e-15)
(-4.64899 87.2153 2.9193e-15)
(-5.69686 88.633 2.54862e-15)
(-6.0675 88.4989 -2.07398e-15)
(-5.95367 87.6135 8.78627e-16)
(-5.64505 86.8675 7.74267e-16)
(-5.303 86.562 2.9397e-15)
(3.01623 40.8957 -1.39287e-16)
(-2.62224 49.8835 -1.14792e-17)
(-1.48989 54.0102 -2.64169e-16)
(-0.887235 58.0218 -9.89172e-16)
(-0.189862 62.1892 1.77401e-16)
(0.709954 66.4376 -1.95033e-15)
(1.52541 70.6558 1.00298e-15)
(1.9354 74.4784 1.78349e-15)
(1.79956 77.5478 6.86396e-16)
(1.13988 79.9546 8.57653e-16)
(-0.0510382 81.7342 -2.20493e-15)
(-1.88016 83.424 -1.47671e-15)
(-4.86156 85.5375 -2.31528e-15)
(-7.64818 88.3017 -2.64746e-15)
(-9.53015 89.4742 -7.46278e-15)
(-10.2065 88.7955 -2.66508e-15)
(-10.0106 88.0342 5.8902e-15)
(-9.70125 87.1312 -5.09303e-15)
(-9.19433 86.4445 0)
(-8.66901 86.1099 -4.29038e-15)
(1.43042 40.4413 8.73833e-17)
(-4.46396 49.663 -1.06038e-16)
(-2.89928 53.5865 2.71116e-16)
(-2.37655 57.569 9.57857e-16)
(-2.18177 61.749 1.72094e-15)
(-1.86407 65.9615 4.58949e-16)
(-1.51389 70.2139 1.13634e-15)
(-1.37949 74.2717 -1.85717e-15)
(-1.7458 77.7599 -1.49828e-15)
(-2.69107 80.6073 -1.83477e-15)
(-4.23603 82.9398 2.36491e-15)
(-6.61103 85.2336 0)
(-9.57666 88.4849 -7.41178e-15)
(-12.0236 90.74 0)
(-13.616 90.0981 0)
(-14.083 88.1577 0)
(-13.6921 87.3539 3.9188e-15)
(-13.1261 86.4328 -6.54429e-15)
(-12.4955 85.6593 0)
(-11.8548 85.2862 2.7968e-15)
(-0.17007 40.0744 6.79256e-17)
(-6.34949 48.9903 -8.77427e-17)
(-4.6587 52.8522 0)
(-4.12352 56.8166 1.70951e-15)
(-4.14831 61.0341 5.9912e-16)
(-4.26128 65.335 2.82717e-16)
(-4.41378 69.6771 -2.24693e-17)
(-4.67462 73.9335 3.94134e-15)
(-5.32873 77.8174 0)
(-6.53516 81.1699 1.74062e-15)
(-8.42151 84.0829 2.22193e-15)
(-11.0274 87.3056 5.63523e-15)
(-13.7864 90.7706 5.45684e-15)
(-16.073 91.8941 1.15636e-14)
(-17.2725 90.1407 -6.31025e-15)
(-17.434 87.5142 -2.00054e-16)
(-17.0796 86.5175 1.42837e-14)
(-16.361 85.4674 6.49685e-15)
(-15.6243 84.6092 5.90481e-15)
(-14.8993 84.2397 5.48823e-15)
(-1.75286 39.7048 0)
(-8.12247 48.1258 8.3429e-17)
(-6.51238 52.008 -5.49098e-16)
(-6.06558 55.9924 -2.15363e-15)
(-6.11964 60.2867 -2.86103e-15)
(-6.46827 64.6881 9.28134e-16)
(-6.99727 69.1546 -2.50291e-15)
(-7.69384 73.5928 -4.09814e-15)
(-8.69516 77.8254 -1.48135e-15)
(-10.1909 81.6873 3.37889e-16)
(-12.3925 85.2863 -4.18229e-15)
(-15.0831 89.18 -4.66227e-15)
(-17.7554 92.371 -4.67268e-15)
(-19.7028 92.5082 -5.00253e-15)
(-20.632 89.9217 0)
(-20.4821 87.1018 2.59988e-16)
(-20.1834 85.654 1.80937e-16)
(-19.347 84.38 -6.28758e-15)
(-18.5537 83.3857 -1.7436e-14)
(-17.7475 83.0148 5.185e-15)
(-3.30267 39.3034 0)
(-9.80534 47.1358 -8.71305e-17)
(-8.26816 51.0014 0)
(-8.13275 55.12 1.34625e-15)
(-8.1667 59.5 3.3734e-15)
(-8.69186 63.9701 0)
(-9.39653 68.5711 4.92072e-15)
(-10.4076 73.2208 8.50166e-15)
(-11.737 77.7856 0)
(-13.567 82.1196 -3.4778e-15)
(-15.9344 86.404 8.98351e-15)
(-18.6262 90.6969 5.99753e-16)
(-21.1684 93.3734 4.67342e-15)
(-22.713 92.8044 -4.5851e-15)
(-23.3975 89.81 0)
(-23.024 86.8337 -1.72159e-14)
(-22.9682 84.8776 -6.96714e-15)
(-22.0396 83.2394 0)
(-21.1995 82.0349 1.1422e-14)
(-20.3287 81.6406 -2.089e-14)
(-4.8168 38.8679 7.15291e-16)
(-11.4842 46.0933 -2.924e-16)
(-10.0458 49.8965 -4.04163e-16)
(-10.2024 54.1458 -4.22046e-16)
(-10.2643 58.6401 -2.27849e-16)
(-10.952 63.1678 -2.47287e-15)
(-11.7757 67.8704 4.79887e-15)
(-12.9288 72.7366 -8.05579e-15)
(-14.4873 77.6411 -9.76259e-15)
(-16.5721 82.4453 6.51858e-15)
(-19.0345 87.3187 -4.04548e-15)
(-21.7402 91.818 -4.03176e-15)
(-24.0386 94.0886 3.7222e-15)
(-25.3282 92.9994 -9.47355e-15)
(-25.7706 89.8927 0)
(-25.2523 86.9435 3.64559e-14)
(-25.4078 84.2341 -2.80239e-14)
(-24.3794 82.1295 1.19221e-14)
(-23.5014 80.654 1.12191e-14)
(-22.5911 80.1896 1.89042e-16)
(-6.30505 38.4116 2.03376e-16)
(-13.147 45.0233 -1.80083e-17)
(-11.8413 48.6985 4.53105e-16)
(-12.1272 52.9913 -1.67001e-15)
(-12.399 57.6613 -3.43972e-15)
(-13.1927 62.2775 0)
(-14.188 67.0427 -4.88759e-15)
(-15.3955 72.073 0)
(-17.0743 77.3021 6.04149e-15)
(-19.271 82.5891 0)
(-21.7878 87.9497 0)
(-24.5158 92.5626 -4.92534e-16)
(-26.4429 94.6102 1.5405e-14)
(-27.553 93.1406 9.93455e-15)
(-27.7956 90.095 4.76683e-16)
(-27.1746 87.3257 -1.89204e-14)
(-27.4126 83.7847 0)
(-26.2951 81.1617 0)
(-25.3897 79.3485 1.08921e-14)
(-24.475 78.7489 2.07833e-14)
(-7.77894 37.9465 -7.68288e-16)
(-14.802 43.933 1.03109e-15)
(-13.6266 47.4148 5.5304e-16)
(-13.9959 51.6804 -3.40772e-16)
(-14.5651 56.5261 -2.01253e-15)
(-15.3739 61.2836 1.6635e-15)
(-16.5887 66.0893 2.70441e-15)
(-17.8656 71.2057 -2.29858e-15)
(-19.5879 76.7094 0)
(-21.755 82.4471 -6.85804e-15)
(-24.2691 88.2346 6.09704e-15)
(-26.8509 92.9691 -6.96211e-15)
(-28.4647 94.8487 0)
(-29.2035 93.3522 2.71436e-16)
(-29.2162 90.5566 5.5525e-16)
(-28.43 88.1205 2.28022e-14)
(-28.7827 83.7411 -3.04768e-14)
(-27.6563 80.5136 1.21148e-14)
(-26.7624 78.286 -1.09773e-14)
(-25.9281 77.4621 -1.03499e-14)
(-9.25263 37.4878 0)
(-16.4569 42.8221 1.2118e-16)
(-15.42 46.0754 -2.07228e-16)
(-15.9496 50.2586 2.27889e-16)
(-16.8159 55.2489 0)
(-17.5233 60.1458 0)
(-18.9229 64.9947 -7.01763e-15)
(-20.3166 70.1368 2.20486e-15)
(-22.0405 75.8209 -1.14206e-14)
(-24.1002 81.9191 -1.14772e-15)
(-26.489 88.0726 1.23501e-14)
(-28.7962 93.0178 -6.32664e-15)
(-30.0383 94.9173 4.51352e-16)
(-30.4352 93.6224 7.99197e-16)
(-30.2559 91.1889 -1.49268e-14)
(-29.2319 89.0719 0)
(-29.4239 84.2436 -1.75386e-14)
(-28.4108 80.3438 5.24791e-14)
(-27.5721 77.6553 -2.20358e-14)
(-26.9236 76.5342 1.05178e-14)
(-10.7471 37.0513 -9.87638e-17)
(-18.1078 41.717 -4.48038e-16)
(-17.292 44.7217 2.0496e-16)
(-18.023 48.7257 4.31198e-16)
(-19.0161 53.7333 1.09201e-15)
(-19.7141 58.816 0)
(-21.1701 63.7075 1.92902e-15)
(-22.6862 68.8292 2.10384e-15)
(-24.407 74.589 -5.55346e-15)
(-26.3331 80.9191 1.06983e-14)
(-28.4885 87.3318 6.46526e-15)
(-30.4227 92.4579 -6.19633e-15)
(-31.3779 94.5723 1.42964e-14)
(-31.5293 93.6555 9.70018e-15)
(-31.2546 91.5964 1.57539e-14)
(-29.9589 90.2158 1.82196e-15)
(-29.4886 85.7383 -2.06262e-14)
(-28.6067 81.0021 -8.96105e-17)
(-27.8663 77.7951 -2.43953e-14)
(-27.5985 76.2727 -1.14937e-14)
(-12.2599 36.6445 0)
(-19.7724 40.6495 2.43471e-16)
(-19.2899 43.3717 -2.32694e-16)
(-20.2742 47.0705 -8.34052e-16)
(-21.2026 51.9124 2.62076e-15)
(-22.0848 57.2444 -1.48847e-15)
(-23.3873 62.1786 0)
(-24.9719 67.2738 0)
(-26.7083 72.9909 5.01118e-15)
(-28.4436 79.3847 0)
(-30.3335 85.9783 3.41285e-16)
(-31.9594 91.3518 -1.07568e-14)
(-32.6379 93.8371 6.33021e-15)
(-32.5285 93.4484 -8.43801e-15)
(-32.1009 91.4948 0)
(-30.8314 89.5805 1.83135e-14)
(-29.9248 86.1131 0)
(-29.1278 81.6459 -1.26618e-14)
(-28.4816 78.2341 -2.14315e-14)
(-28.5547 76.5166 1.87835e-14)
(-13.7963 36.2795 8.14811e-16)
(-21.5051 39.6575 1.06361e-15)
(-21.3551 42.0395 0)
(-22.6012 45.2924 -8.2342e-16)
(-23.6992 49.8128 -6.83116e-16)
(-24.777 55.3626 -1.54654e-15)
(-25.6626 60.2901 0)
(-27.2804 65.3438 0)
(-29.0131 70.9631 4.51916e-15)
(-30.5754 77.2987 0)
(-32.1891 83.9792 5.17087e-15)
(-33.497 89.6452 -4.65713e-15)
(-33.9299 92.5152 -5.46264e-15)
(-33.5638 92.9621 6.78359e-16)
(-33.015 91.477 -3.0003e-14)
(-32.075 89.6649 1.31005e-14)
(-30.8906 86.4253 -1.37727e-14)
(-29.918 82.2993 0)
(-29.367 78.9619 -9.31772e-15)
(-29.8555 77.2531 2.67514e-14)
(-15.3551 35.97 -5.95199e-16)
(-23.3222 38.7584 -2.22122e-15)
(-23.5463 40.8126 2.92154e-16)
(-25.0133 43.4794 7.5988e-16)
(-26.3429 47.4145 1.97269e-15)
(-27.7074 52.9746 -4.75612e-15)
(-28.1305 57.9668 8.6023e-15)
(-29.7311 62.9251 -9.06257e-15)
(-31.4021 68.4246 -7.24477e-16)
(-32.8522 74.5854 -5.00464e-15)
(-34.1984 81.2301 1.26636e-14)
(-35.1604 87.1297 -9.04531e-15)
(-35.3909 90.4213 5.45091e-15)
(-34.7822 91.7819 0)
(-34.013 90.9884 0)
(-33.1596 89.5289 0)
(-31.931 86.659 1.28335e-14)
(-30.8434 82.8754 4.00891e-16)
(-30.5605 79.8396 -8.31672e-15)
(-31.7758 78.3571 -8.34712e-15)
(-16.9344 35.7509 4.27286e-16)
(-25.1972 37.9748 2.37883e-15)
(-25.7861 39.715 -1.06116e-16)
(-27.5447 41.7937 1.01999e-16)
(-29.121 44.9167 1.02145e-15)
(-30.6745 49.8968 -1.29784e-15)
(-31.0909 55.3853 0)
(-32.3731 59.9999 0)
(-34.0186 65.2944 0)
(-35.3597 71.1837 0)
(-36.4719 77.6522 -9.08262e-15)
(-37.1221 83.7488 1.41363e-14)
(-37.1657 87.6308 -4.6136e-15)
(-36.3486 89.6149 0)
(-35.3459 89.7544 0)
(-34.4644 88.899 0)
(-33.2155 86.55 1.97739e-14)
(-32.2354 83.2668 3.03849e-16)
(-32.8417 80.7215 5.86307e-16)
(-35.1235 79.6111 0)
(-18.5551 35.5784 0)
(-27.0681 37.2906 -5.02362e-15)
(-27.96 38.844 -9.99602e-17)
(-30.0208 40.4207 1.27548e-15)
(-31.9613 42.7063 -2.74229e-15)
(-33.6872 46.3466 0)
(-34.6491 52.0562 0)
(-35.554 56.7946 1.02082e-14)
(-37.0469 61.635 0)
(-38.3041 66.9962 0)
(-39.1919 73.114 -8.49204e-15)
(-39.5911 79.1621 1.33186e-14)
(-39.4024 83.59 -4.44545e-15)
(-38.4976 86.2322 -2.219e-14)
(-37.3708 87.2667 -1.46734e-15)
(-36.4955 87.1774 -1.60782e-15)
(-35.4188 85.5286 3.25592e-14)
(-35.0856 83.1018 1.50762e-14)
(-36.875 81.3466 0)
(-40.3622 80.7139 -1.66065e-14)
(-20.2546 35.3987 0)
(-28.852 36.6567 2.66836e-15)
(-29.9147 38.2178 -4.74291e-16)
(-32.2161 39.5243 -7.08058e-16)
(-34.5663 41.1923 2.19941e-15)
(-36.8268 43.5269 0)
(-38.4598 47.6119 0)
(-39.3539 52.7729 -5.27943e-16)
(-40.7035 57.6765 -6.5411e-15)
(-41.7715 62.301 4.91982e-15)
(-42.4709 67.6349 1.03796e-14)
(-42.7701 73.3943 -1.00077e-14)
(-42.4829 78.1716 -2.03031e-14)
(-41.6013 81.4426 2.05809e-14)
(-40.5661 83.1982 1.21062e-14)
(-39.9375 83.8689 -1.64813e-14)
(-39.3922 83.1228 -1.11954e-15)
(-40.026 81.8549 -1.54371e-14)
(-43.379 81.0981 -1.68587e-14)
(-48.6133 81.1536 3.87128e-14)
(-22.0773 35.1556 0)
(-30.4394 35.9714 -2.69192e-15)
(-31.4972 37.7896 5.17168e-16)
(-33.8762 39.1974 8.33131e-16)
(-36.5238 40.5261 5.18882e-16)
(-39.2412 42.1848 0)
(-41.6671 44.4415 0)
(-43.397 48.3124 -5.0523e-15)
(-44.6251 52.77 -1.24774e-15)
(-45.6568 57.4371 6.03164e-15)
(-46.3377 61.965 0)
(-46.6595 66.7735 0)
(-46.5838 71.3588 1.08801e-14)
(-46.0879 74.9649 -1.36152e-15)
(-45.6319 77.3575 1.50602e-14)
(-45.7941 78.727 -1.5401e-14)
(-46.2144 79.104 0)
(-48.621 79.0219 0)
(-53.7485 79.3693 0)
(-59.6168 80.0849 0)
(-24.136 34.6828 -2.29582e-16)
(-31.7242 35.1608 6.27207e-15)
(-32.7008 37.4727 -3.87534e-16)
(-34.9648 39.3441 -1.77151e-15)
(-37.5347 40.9769 -2.2517e-15)
(-40.2842 42.5235 7.15691e-15)
(-43.0958 44.2717 0)
(-45.5665 46.5128 -8.22018e-15)
(-47.4698 49.8859 -6.0204e-15)
(-48.816 53.683 6.36546e-15)
(-50.0325 57.9003 2.59607e-14)
(-51.0887 61.7184 -2.62518e-14)
(-51.603 65.0885 3.20585e-14)
(-51.839 68.0598 -1.56248e-14)
(-52.3609 70.4176 1.99421e-14)
(-53.5477 72.2062 -3.93966e-14)
(-55.7488 73.3558 2.3333e-14)
(-59.7401 74.0428 -2.74029e-14)
(-64.5782 75.4354 0)
(-65.8382 76.4764 0)
(-26.8685 33.7549 0)
(-32.2168 34.4944 1.1185e-15)
(-33.2419 36.8798 -2.9809e-15)
(-35.3734 39.0507 0)
(-37.812 41.065 0)
(-40.5397 43.0447 -8.30452e-15)
(-43.541 45.0529 -5.51415e-15)
(-46.6607 47.1448 5.24411e-15)
(-49.5727 49.4412 0)
(-52.0762 51.902 0)
(-53.5433 54.7166 -1.93984e-14)
(-54.5375 57.9887 0)
(-55.343 61.515 -2.94389e-14)
(-56.3721 64.8085 -3.13048e-14)
(-57.9011 67.9825 6.37622e-14)
(-60.1388 71.0928 3.64546e-14)
(-62.641 74.5719 0)
(-64.1032 78.1221 5.42019e-14)
(-65.592 79.9277 5.74692e-14)
(-67.3827 79.1701 -6.4228e-14)
(-4.95286 86.67 -1.32714e-15)
(-4.60688 87.2036 -1.91087e-17)
(-4.31433 88.1069 1.1352e-15)
(-4.02153 89.3675 -1.10219e-15)
(-3.68578 91.0135 1.00352e-15)
(-3.37716 93.007 -9.8827e-16)
(-3.13397 95.1931 8.96928e-16)
(-2.94657 97.4795 8.86019e-16)
(-2.80002 99.8422 -8.00284e-16)
(-2.68056 102.326 -1.55546e-15)
(-2.5798 104.971 -2.99623e-15)
(-2.50696 107.81 1.37781e-15)
(-2.44622 110.823 0)
(-2.42279 114.066 0)
(-2.43915 117.49 -2.51888e-15)
(-2.32646 121.057 0)
(-2.94158 125.517 0)
(-0.806458 127.731 1.10748e-15)
(-8.39797 138.963 -1.07388e-15)
(12.7163 126.647 3.59152e-15)
(-8.21823 86.1915 -2.70641e-15)
(-7.84103 86.7036 -1.30912e-15)
(-7.54205 87.5905 -4.26634e-17)
(-7.27615 88.8411 -2.14759e-15)
(-7.0071 90.5079 -4.13544e-15)
(-6.77888 92.5537 3.77325e-15)
(-6.63017 94.7917 7.52283e-17)
(-6.53778 97.1122 -3.37493e-15)
(-6.4823 99.5014 -3.27154e-15)
(-6.45604 102.008 -1.62763e-15)
(-6.45478 104.676 4.35356e-15)
(-6.49276 107.536 2.75576e-15)
(-6.54328 110.568 8.06799e-15)
(-6.65147 113.825 0)
(-6.77742 117.263 7.55124e-15)
(-6.82044 120.84 -4.96162e-15)
(-7.56335 125.285 9.19904e-15)
(-5.56543 127.549 4.42878e-15)
(-13.4747 138.563 -4.30634e-15)
(7.94849 126.985 -3.64631e-19)
(-11.3331 85.3998 -5.32513e-15)
(-10.9236 85.9711 4.76166e-15)
(-10.6469 86.9189 1.1385e-14)
(-10.4171 88.1881 -2.05462e-15)
(-10.2062 89.8891 0)
(-10.0672 91.987 -7.49734e-17)
(-10.0239 94.2712 3.55065e-15)
(-10.0389 96.6244 0)
(-10.0895 99.0364 3.25839e-15)
(-10.1722 101.562 -6.34277e-15)
(-10.2839 104.245 5.7519e-15)
(-10.4419 107.118 -5.63687e-15)
(-10.6091 110.166 1.45882e-16)
(-10.8531 113.429 -5.08518e-15)
(-11.0925 116.884 -5.02911e-15)
(-11.2995 120.456 0)
(-12.1698 124.898 -4.66035e-15)
(-10.316 127.208 0)
(-18.593 137.922 -8.84464e-15)
(3.28642 127.194 0)
(-14.314 84.4372 8.51098e-17)
(-13.8916 85.1118 -4.70004e-15)
(-13.6459 86.1282 -8.95057e-15)
(-13.4768 87.4193 0)
(-13.3351 89.1583 -8.16966e-15)
(-13.2914 91.315 3.67067e-15)
(-13.3588 93.6467 3.62393e-15)
(-13.4842 96.0304 6.88762e-15)
(-13.6451 98.46 -6.52734e-15)
(-13.8404 100.997 6.33928e-15)
(-14.0686 103.69 2.91451e-16)
(-14.3496 106.568 -5.49802e-15)
(-14.6369 109.626 0)
(-15.0197 112.882 1.04515e-14)
(-15.3751 116.351 -1.03384e-14)
(-15.7496 119.901 -2.68692e-16)
(-16.7447 124.35 -9.60292e-15)
(-15.0394 126.697 8.5809e-15)
(-23.6348 137.032 9.46828e-15)
(-1.3373 127.283 3.22824e-16)
(-17.0951 83.3152 2.04624e-14)
(-16.6776 84.1384 -1.41931e-14)
(-16.501 85.2493 4.27895e-15)
(-16.4154 86.5664 0)
(-16.3605 88.3444 0)
(-16.4289 90.5613 -7.77618e-15)
(-16.621 92.9376 1.43555e-14)
(-16.8679 95.3463 -1.39101e-14)
(-17.1478 97.7859 6.06444e-15)
(-17.4623 100.326 1.20877e-14)
(-17.8115 103.019 1.20863e-14)
(-18.2181 105.892 -1.12763e-14)
(-18.629 108.953 1.05623e-14)
(-19.1517 112.188 1.49467e-17)
(-19.6265 115.672 1.03421e-14)
(-20.1681 119.176 2.57972e-16)
(-21.2896 123.645 -9.605e-15)
(-19.7359 126.007 1.69891e-14)
(-28.621 135.897 -1.76708e-14)
(-5.94739 127.278 -1.46341e-14)
(-19.6408 82.0624 5.18226e-15)
(-19.2603 83.0843 -4.37206e-15)
(-19.1945 84.3211 1.56272e-16)
(-19.2201 85.6628 0)
(-19.2735 87.4736 0)
(-19.4758 89.7444 -1.5549e-14)
(-19.8094 92.156 1.42185e-14)
(-20.1901 94.5796 2.78881e-14)
(-20.5978 97.0184 -1.92857e-14)
(-21.0373 99.5505 -1.26981e-14)
(-21.5114 102.236 2.36178e-14)
(-22.0458 105.094 -4.51758e-14)
(-22.5843 108.151 1.03013e-14)
(-23.2456 111.353 1.01939e-14)
(-23.8455 114.852 1.03498e-14)
(-24.5495 118.287 -9.39227e-15)
(-25.7988 122.785 0)
(-24.4034 125.142 1.76434e-14)
(-33.5051 134.526 1.88284e-14)
(-10.665 127.169 1.5308e-14)
(-21.9087 80.7357 -9.9433e-15)
(-21.6184 81.9991 0)
(-21.7164 83.3876 1.79811e-14)
(-21.8847 84.7442 -1.63695e-14)
(-22.0726 86.5725 0)
(-22.4347 88.8822 0)
(-22.9284 91.312 -7.27076e-15)
(-23.4553 93.7343 -2.76388e-14)
(-23.9979 96.1579 1.31115e-14)
(-24.5665 98.6705 0)
(-25.1681 101.337 0)
(-25.8314 104.172 1.12997e-14)
(-26.5018 107.219 -1.08563e-14)
(-27.2984 110.376 -1.04521e-14)
(-28.0314 113.89 -2.07213e-14)
(-28.8903 117.233 1.87884e-14)
(-30.2731 121.773 5.43457e-16)
(-29.0382 124.091 5.13223e-16)
(-38.2718 132.946 -1.75198e-14)
(-15.536 126.925 -1.46459e-14)
(-23.8589 79.4111 -9.75942e-15)
(-23.7376 80.955 -1.92228e-14)
(-24.0708 82.506 -6.58103e-16)
(-24.4188 83.8547 2.48123e-14)
(-24.7721 85.6752 0)
(-25.3212 88.0004 1.5347e-14)
(-25.9909 90.4248 -1.49527e-14)
(-26.6735 92.8253 1.32375e-14)
(-27.3552 95.2169 1.28713e-14)
(-28.0544 97.6956 -1.27668e-14)
(-28.7845 100.332 1.15723e-14)
(-29.5757 103.132 0)
(-30.3812 106.159 -2.2326e-14)
(-31.3078 109.259 4.18861e-14)
(-32.1834 112.786 -3.98951e-14)
(-33.1839 116.015 0)
(-34.7122 120.612 -1.42279e-17)
(-33.6317 122.859 -1.72016e-14)
(-42.9778 131.203 3.56486e-14)
(-20.4821 126.491 -4.31989e-14)
(-25.4838 78.2063 -3.59461e-16)
(-25.6423 80.0456 2.87969e-14)
(-26.2917 81.7473 -1.77021e-14)
(-26.8551 83.0514 -8.46737e-15)
(-27.4031 84.8285 1.61439e-14)
(-28.1631 87.1349 -3.12619e-14)
(-29.0192 89.5213 1.44156e-14)
(-29.8623 91.8737 0)
(-30.6832 94.2128 3.24273e-16)
(-31.512 96.6406 -1.2223e-14)
(-32.369 99.2324 -2.43839e-14)
(-33.2844 101.983 2.21599e-14)
(-34.226 104.98 -2.23703e-14)
(-35.2731 108.008 2.09571e-14)
(-36.3028 111.543 2.12991e-14)
(-37.4237 114.638 -1.87919e-14)
(-39.1153 119.303 5.67559e-14)
(-38.1721 121.453 -1.66892e-14)
(-47.6107 129.315 -3.47245e-14)
(-25.4519 125.854 1.29755e-19)
(-26.8056 77.3117 -1.02968e-14)
(-27.4008 79.4103 3.98988e-14)
(-28.4485 81.1905 7.14546e-16)
(-29.253 82.3831 -3.45056e-14)
(-30.0164 84.0639 -1.70462e-14)
(-31.0008 86.3018 3.10024e-14)
(-32.0425 88.6074 0)
(-33.0424 90.8796 1.44173e-14)
(-33.9968 93.1434 -2.63213e-14)
(-34.9498 95.5028 0)
(-35.9295 98.0354 -2.39186e-14)
(-36.9632 100.723 2.28064e-14)
(-38.0402 103.678 0)
(-39.1951 106.627 4.19805e-14)
(-40.3919 110.16 -2.02864e-14)
(-41.6044 113.106 0)
(-43.4856 117.848 -5.68478e-14)
(-42.6535 119.875 5.18394e-14)
(-52.1679 127.296 3.54019e-14)
(-30.4437 124.997 5.80678e-14)
(-28.051 76.94 1.98815e-14)
(-29.2478 79.1303 1.00838e-14)
(-30.7133 80.8286 -1.79689e-14)
(-31.7351 81.8266 -1.74681e-14)
(-32.6999 83.36 3.26036e-14)
(-33.8933 85.4778 -3.09473e-14)
(-35.0975 87.6603 1.49388e-14)
(-36.2351 89.8213 -2.89833e-14)
(-37.3068 91.9887 3.95464e-14)
(-38.3728 94.2647 2.5926e-14)
(-39.468 96.7265 -2.34642e-14)
(-40.6117 99.3431 5.84172e-16)
(-41.8227 102.247 -2.13725e-14)
(-43.0711 105.11 -6.35976e-14)
(-44.4482 108.633 4.06187e-14)
(-45.7169 111.428 1.02691e-15)
(-47.8235 116.223 3.80956e-14)
(-47.0698 118.123 0)
(-56.6572 125.162 -3.44548e-14)
(-35.4461 123.897 2.89177e-14)
(-29.5946 77.0861 0)
(-31.4479 79.2063 0)
(-33.2622 80.6044 -1.81578e-14)
(-34.4107 81.3162 -6.87492e-16)
(-35.5257 82.6705 4.82019e-14)
(-36.8908 84.6308 -1.51738e-14)
(-38.2182 86.6589 1.55467e-14)
(-39.464 88.6872 -2.76063e-14)
(-40.6298 90.7434 0)
(-41.7904 92.9232 2.53528e-14)
(-42.9876 95.3031 2.40329e-14)
(-44.2298 97.8403 0)
(-45.5707 100.682 -2.2526e-14)
(-46.8973 103.458 4.15442e-14)
(-48.4665 106.957 4.12311e-14)
(-49.7523 109.609 -1.77551e-14)
(-52.1269 114.445 -7.42661e-14)
(-51.4129 116.195 0)
(-61.0896 122.931 0)
(-40.4409 122.53 -3.84935e-19)
(-31.617 77.7834 -1.75388e-14)
(-34.1961 79.6482 0)
(-36.191 80.4537 3.83847e-16)
(-37.3198 80.7911 1.72637e-14)
(-38.5219 81.9558 -3.15989e-14)
(-40.0126 83.7322 0)
(-41.4152 85.5825 1.4854e-14)
(-42.7362 87.4612 0)
(-43.9716 89.3945 0)
(-45.2087 91.4684 -2.53385e-14)
(-46.4935 93.7579 0)
(-47.8202 96.2099 2.34907e-14)
(-49.2837 98.9804 -6.59989e-14)
(-50.6716 101.673 4.21135e-14)
(-52.4419 105.128 -1.98504e-14)
(-53.7053 107.651 7.70644e-14)
(-56.397 112.504 0)
(-55.6665 114.095 -3.42279e-14)
(-65.4851 120.621 0)
(-45.3598 120.885 5.75044e-14)
(-34.4597 78.9232 0)
(-37.6916 80.2822 4.38984e-16)
(-39.5019 80.204 7.99708e-16)
(-40.4502 80.1451 -4.96681e-14)
(-41.6834 81.136 1.56394e-14)
(-43.2505 82.7104 -1.55186e-14)
(-44.6797 84.3713 -1.48812e-14)
(-46.0454 86.0951 2.90083e-14)
(-47.3262 87.9054 -2.62191e-14)
(-48.621 89.8741 -5.14334e-14)
(-49.9788 92.0728 2.35374e-14)
(-51.3767 94.4401 2.2963e-14)
(-52.9548 97.1334 2.20101e-14)
(-54.3891 99.7502 2.10667e-14)
(-56.3674 103.139 0)
(-57.5712 105.548 1.02669e-15)
(-60.6356 110.408 -7.45334e-14)
(-59.8108 111.836 -8.14845e-16)
(-69.8652 118.219 3.36279e-14)
(-50.1051 118.997 -5.7528e-14)
(-38.7351 80.1668 1.76908e-14)
(-42.2016 80.6361 1.87603e-14)
(-43.1892 79.5517 1.76684e-14)
(-43.8473 79.234 -1.74043e-14)
(-45.0464 80.1166 1.53933e-14)
(-46.6199 81.501 3.19826e-14)
(-48.0115 82.9884 -1.42709e-14)
(-49.3839 84.5672 -5.76666e-14)
(-50.6835 86.2619 -1.26562e-15)
(-52.0173 88.1297 -1.22664e-15)
(-53.4341 90.2403 2.35965e-14)
(-54.8911 92.5262 -4.59854e-14)
(-56.5756 95.1379 0)
(-58.0449 97.69 2.21538e-14)
(-60.2364 100.982 -8.17076e-14)
(-61.3454 103.349 3.74621e-14)
(-64.8439 108.139 3.78361e-14)
(-63.8308 109.435 0)
(-74.1849 115.707 -3.45615e-14)
(-54.715 116.897 0)
(-44.9607 81.0515 3.90925e-16)
(-47.5191 80.1053 4.72182e-16)
(-47.0084 78.2318 1.79927e-14)
(-47.4607 77.9408 -5.166e-14)
(-48.5616 78.8098 4.83917e-14)
(-50.0826 80.0386 1.58313e-14)
(-51.391 81.3928 -1.51217e-14)
(-52.7424 82.8502 2.80444e-14)
(-54.0365 84.4479 2.64849e-14)
(-55.3914 86.2261 -1.70446e-17)
(-56.853 88.2549 0)
(-58.3571 90.4658 -5.65783e-16)
(-60.139 92.9927 2.15409e-14)
(-61.6368 95.4926 4.32602e-14)
(-64.0379 98.6551 2.12142e-15)
(-65.0308 101.02 -7.59102e-14)
(-69.0168 105.662 3.89817e-14)
(-67.7142 106.899 -6.70307e-14)
(-78.4669 113.07 3.46624e-14)
(-59.2667 114.556 0)
(-52.803 80.7753 0)
(-52.6179 77.9859 -2.15556e-14)
(-50.5606 76.1552 -1.86113e-14)
(-51.1546 76.1839 0)
(-52.1024 77.1413 5.1111e-14)
(-53.5494 78.2653 -4.75661e-14)
(-54.7543 79.5463 -6.20404e-14)
(-56.0756 80.9156 -6.80954e-16)
(-57.3531 82.4424 0)
(-58.7191 84.1482 -1.14376e-17)
(-60.2172 86.1052 2.43426e-14)
(-61.7607 88.2512 0)
(-63.6325 90.6922 4.53448e-14)
(-65.1574 93.1546 -8.44233e-14)
(-67.7564 96.156 3.9814e-14)
(-68.625 98.5841 4.27656e-18)
(-73.1343 102.964 -3.79327e-14)
(-71.4254 104.214 3.39122e-14)
(-82.7319 110.275 -3.63011e-14)
(-63.7445 111.946 5.62556e-14)
(-59.6292 78.0127 0)
(-56.2942 74.0731 0)
(-53.6172 73.5666 -3.94356e-14)
(-54.7826 73.9947 7.23543e-14)
(-55.544 75.1319 -6.81505e-14)
(-56.9578 76.1875 1.6457e-14)
(-58.0669 77.4474 6.23992e-14)
(-59.3574 78.7528 3.01405e-14)
(-60.6114 80.2324 -2.70386e-14)
(-61.9816 81.8836 2.59817e-14)
(-63.5097 83.7808 -4.95224e-14)
(-65.0876 85.8746 2.25966e-14)
(-67.043 88.23 4.53498e-14)
(-68.5995 90.6725 4.43099e-14)
(-71.3819 93.4838 -3.97709e-14)
(-72.14 96.0377 3.74107e-14)
(-77.1985 100.062 7.59682e-14)
(-74.9359 101.495 -3.28703e-14)
(-87.0169 107.368 0)
(-68.0911 108.995 0)
(-61.3096 73.5625 0)
(-58.5588 70.0715 2.42364e-14)
(-56.4715 71.2993 -1.93679e-14)
(-58.372 71.7449 -3.85076e-14)
(-58.9519 72.9988 1.60883e-14)
(-60.3588 73.9144 3.30351e-14)
(-61.3663 75.1438 1.8848e-17)
(-62.614 76.3799 0)
(-63.8383 77.8257 0)
(-65.2067 79.4412 5.30767e-14)
(-66.7578 81.2937 1.16188e-15)
(-68.3621 83.3528 -4.57315e-14)
(-70.3921 85.6264 0)
(-71.9831 88.0721 -8.43037e-14)
(-74.9292 90.6701 4.18094e-14)
(-75.6162 93.4231 -1.14191e-13)
(-81.2822 96.8331 3.78512e-14)
(-78.3007 98.8921 3.46939e-14)
(-91.468 104.28 -7.06502e-14)
(-72.2255 105.506 5.57561e-14)
(-60.6015 74.5925 -5.40495e-16)
(-61.4375 68.4644 -2.20564e-14)
(-59.8873 69.9962 -1.96401e-14)
(-61.9564 69.7029 1.90423e-14)
(-62.425 70.8281 3.65905e-14)
(-63.7097 71.4952 -3.26018e-14)
(-64.6008 72.6557 -3.11063e-14)
(-65.807 73.804 2.97556e-14)
(-67.005 75.1924 -2.65734e-14)
(-68.3893 76.784 -2.61128e-14)
(-69.9563 78.5863 4.79146e-14)
(-71.5931 80.6396 5.40251e-16)
(-73.6893 82.8348 -4.39823e-14)
(-75.3254 85.3266 4.00669e-14)
(-78.3889 87.6784 0)
(-79.1029 90.7655 3.76359e-14)
(-85.1003 93.2805 1.13394e-15)
(-81.6473 96.6068 -3.21805e-14)
(-96.2748 100.724 0)
(-76.23 101.329 -5.46219e-14)
(-58.9257 73.7855 2.15335e-14)
(-62.8986 66.919 3.70485e-17)
(-60.7584 68.3781 1.68658e-14)
(-63.2576 68.1096 -3.20265e-14)
(-63.522 69.3383 -4.78248e-16)
(-64.9744 70.0998 1.45273e-14)
(-65.9497 71.2491 4.23086e-16)
(-67.2908 72.3522 1.82706e-17)
(-68.5965 73.6567 -2.35703e-14)
(-70.0517 75.1718 -2.20789e-14)
(-71.6704 76.9136 6.36771e-16)
(-73.3499 78.9523 -1.93578e-14)
(-75.4583 81.0682 0)
(-77.1695 83.6452 7.06738e-14)
(-80.212 85.7878 0)
(-81.1221 89.2207 -3.27494e-14)
(-86.9655 91.0377 3.15745e-14)
(-83.6803 95.52 2.85348e-14)
(-98.2813 97.8524 -4.5476e-16)
(-78.6487 100.034 3.28798e-16)
(-59.1357 73.4403 0)
(-63.4426 66.9069 1.48926e-14)
(-61.1015 68.1793 0)
(-63.6202 67.9665 1.3075e-14)
(-63.8199 69.1413 0)
(-65.2726 69.9155 -2.34143e-14)
(-66.2367 71.043 3.53131e-16)
(-67.5873 72.136 -3.1626e-16)
(-68.8996 73.4157 1.94431e-14)
(-70.3657 74.911 1.81779e-14)
(-71.9921 76.6298 -1.73307e-14)
(-73.6882 78.6581 3.24583e-14)
(-75.8009 80.7494 0)
(-77.5422 83.3384 -3.02296e-14)
(-80.5651 85.4284 4.72615e-16)
(-81.5506 88.9317 2.45123e-17)
(-87.3474 90.575 -4.12272e-16)
(-84.1658 95.2932 -2.47546e-14)
(-98.6349 97.1737 -2.25244e-14)
(-79.1687 99.7729 -1.82714e-14)
(-59.4624 72.8256 2.57383e-16)
(-63.9341 66.8622 -2.24124e-16)
(-61.4004 67.9213 0)
(-63.9234 67.7905 1.34401e-14)
(-64.0609 68.9175 1.18683e-14)
(-65.5211 69.7167 2.30265e-14)
(-66.4835 70.8283 6.88535e-16)
(-67.851 71.9136 1.53588e-17)
(-69.1751 73.1677 -2.94349e-16)
(-70.6558 74.6415 -3.60438e-14)
(-72.2916 76.3357 8.81061e-18)
(-74.0062 78.3523 -3.24729e-14)
(-76.1231 80.4182 2.36624e-16)
(-77.8988 83.0178 -4.83784e-16)
(-80.8992 85.056 -2.89406e-14)
(-81.9772 88.6261 2.83114e-14)
(-87.6701 90.1104 4.35687e-16)
(-84.6567 95.0709 -3.69052e-16)
(-98.9268 96.4879 2.27932e-14)
(-79.7041 99.5615 3.6614e-14)
(-59.8103 72.1568 0)
(-64.3594 66.7903 0)
(-61.6655 67.6687 1.34099e-14)
(-64.181 67.6283 -1.30454e-14)
(-64.2682 68.715 -1.18656e-14)
(-65.7393 69.5397 -3.72938e-16)
(-66.7084 70.6347 -2.17049e-14)
(-68.0971 71.71 -6.46708e-16)
(-69.4376 72.9355 2.94456e-16)
(-70.9357 74.3845 1.8027e-14)
(-72.5831 76.0517 3.38868e-14)
(-74.3171 78.0539 8.10986e-18)
(-76.439 80.0939 1.55089e-14)
(-78.2518 82.7002 0)
(-81.2281 84.69 2.89061e-14)
(-82.4038 88.316 4.30037e-16)
(-87.9822 89.6613 2.69375e-14)
(-85.1487 94.8432 2.44669e-14)
(-99.2055 95.8222 3.71614e-16)
(-80.221 99.3499 -1.83143e-14)
(-60.1563 71.5034 1.51522e-14)
(-64.7357 66.7123 -1.40991e-17)
(-61.9106 67.4338 1.38583e-16)
(-64.4063 67.4833 -4.16532e-16)
(-64.4538 68.5319 -1.18462e-14)
(-65.9364 69.3803 -1.17363e-14)
(-66.9177 70.4577 2.17652e-14)
(-68.3294 71.5214 3.16235e-16)
(-69.6889 72.7164 1.93278e-14)
(-71.2059 74.138 0)
(-72.8663 75.7764 -1.69571e-14)
(-74.621 77.7619 3.22295e-14)
(-76.7482 79.7756 -1.55133e-14)
(-78.6004 82.3844 0)
(-81.5513 84.3295 -4.71706e-16)
(-82.8289 88.0034 -2.79209e-14)
(-88.2838 89.2204 -2.69031e-14)
(-85.6446 94.607 -2.4112e-14)
(-99.4755 95.1686 -3.45679e-16)
(-80.7234 99.1368 2.87036e-16)
(-60.4831 70.8749 -3.05538e-14)
(-65.0638 66.6337 1.47425e-14)
(-62.1351 67.2172 -7.72517e-17)
(-64.6006 67.3554 1.96709e-16)
(-64.6193 68.3674 2.44562e-14)
(-66.1147 69.2376 1.1363e-14)
(-67.1135 70.2964 -2.14538e-14)
(-68.5498 71.3472 -3.16922e-16)
(-69.9305 72.5102 -1.93732e-14)
(-71.4675 73.9022 -2.88807e-16)
(-73.1418 75.5101 2.58808e-16)
(-74.9183 77.4764 -1.61236e-14)
(-77.0513 79.4633 -1.52519e-14)
(-78.9448 82.0704 -2.29984e-16)
(-81.8694 83.9745 2.93201e-14)
(-83.2523 87.6879 2.83766e-14)
(-88.576 88.7862 2.72727e-14)
(-86.1457 94.3629 -3.70525e-16)
(-99.7356 94.5272 -2.2761e-14)
(-81.2137 98.9252 2.72703e-16)
(-60.7855 70.2701 1.49071e-14)
(-65.3444 66.5542 -1.48394e-14)
(-62.3387 67.0193 -2.65265e-14)
(-64.7642 67.2454 0)
(-64.7664 68.2214 -2.82188e-17)
(-66.2758 69.1112 -3.91153e-16)
(-67.2975 70.1501 2.25551e-14)
(-68.7596 71.1869 3.33419e-16)
(-70.1631 72.3168 -2.96013e-16)
(-71.7209 73.6771 0)
(-73.4101 75.2529 0)
(-75.2095 77.1974 1.61192e-14)
(-77.3487 79.1572 1.55065e-14)
(-79.2852 81.7585 3.02156e-14)
(-82.1831 83.6254 -5.909e-14)
(-83.6743 87.3691 4.3079e-16)
(-88.8596 88.3587 -2.68085e-14)
(-86.652 94.111 0)
(-99.986 93.8945 2.93833e-17)
(-81.6929 98.7167 -1.8415e-14)
(-61.0619 69.6838 1.4632e-14)
(-65.577 66.4761 1.52143e-14)
(-62.5215 66.8403 1.3243e-14)
(-64.8977 67.1536 1.2958e-14)
(-64.8966 68.0937 -2.48527e-14)
(-66.4217 69.0002 -1.10655e-14)
(-67.4716 70.0176 1.74239e-17)
(-68.9604 71.0393 -2.12211e-14)
(-70.3879 72.1355 0)
(-71.967 73.4624 1.81071e-14)
(-73.672 75.0046 -2.71672e-16)
(-75.4951 76.9249 -1.56292e-14)
(-77.6408 78.8572 -2.36351e-16)
(-79.622 81.4486 -1.79808e-17)
(-82.4929 83.2802 2.9301e-14)
(-84.0946 87.0467 0)
(-89.1348 87.9383 0)
(-87.1632 93.8515 -2.46412e-14)
(-100.227 93.2678 2.96493e-17)
(-82.1614 98.5129 -2.85333e-17)
(-61.3116 69.1093 -2.95108e-14)
(-65.7579 66.4036 -1.50458e-14)
(-62.6844 66.6801 -1.31254e-14)
(-65.0021 67.0804 -1.2993e-14)
(-65.0121 67.9837 2.44762e-14)
(-66.5547 68.9036 0)
(-67.6381 69.8973 0)
(-69.1541 70.9029 7.70845e-18)
(-70.6065 71.9652 0)
(-72.2069 73.2575 -1.8141e-14)
(-73.9281 74.7647 -1.67167e-14)
(-75.7756 76.6586 -1.63716e-14)
(-77.9283 78.5631 -1.57362e-14)
(-79.9553 81.1408 -6.02155e-14)
(-82.7988 82.941 0)
(-84.5134 86.7205 0)
(-89.4017 87.5249 0)
(-87.6797 93.5845 2.46827e-14)
(-100.46 92.6462 4.40612e-14)
(-82.619 98.3155 1.83932e-14)
(-61.5333 68.5417 1.46326e-14)
(-65.8882 66.3378 0)
(-62.8262 66.5394 1.31252e-14)
(-65.0785 67.0255 4.15923e-16)
(-65.1156 67.8903 -1.26295e-14)
(-66.6776 68.8198 0)
(-67.7996 69.7873 0)
(-69.3428 70.7757 2.10344e-14)
(-70.8205 71.8044 3.12173e-16)
(-72.4418 73.0613 -5.67431e-16)
(-74.1795 74.5329 1.72684e-14)
(-76.0519 76.398 1.61395e-14)
(-78.2119 78.2747 1.54954e-14)
(-80.2856 80.8347 2.9748e-14)
(-83.1011 82.6077 -2.47684e-17)
(-84.9315 86.3914 4.31537e-16)
(-89.6609 87.1189 0)
(-88.2017 93.3099 0)
(-100.684 92.0267 -2.19202e-14)
(-83.0644 98.1268 0)
(-61.7259 67.9766 1.43493e-14)
(-65.9687 66.2785 0)