/*--------------------------------*- C++ -*----------------------------------*\
  =========                 |
  \\      /  F ield         | OpenFOAM: The Open Source CFD Toolbox
   \\    /   O peration     | Website:  https://openfoam.org
    \\  /    A nd           | Version:  10
     \\/     M anipulation  |
\*---------------------------------------------------------------------------*/
FoamFile
{
    format      ascii;
    class       volVectorField;
    location    "600";
    object      Urel;
}
// * * * * * * * * * * * * * * * * * * * * * * * * * * * * * * * * * * * * * //

dimensions      [0 1 -1 0 0 0 0];

internalField   nonuniform List<vector> 
2000
(
(5.44793 -3.39503 2.34606e-17)
(1.02917 3.14538 2.45441e-17)
(1.46878 4.95268 -1.88894e-17)
(2.20782 6.15548 0)
(3.27647 7.31405 0)
(4.58255 8.41695 4.44461e-16)
(5.75852 9.2864 -4.96723e-16)
(6.48493 9.57871 -5.72633e-16)
(6.65727 9.08458 6.87403e-16)
(6.28458 7.82019 8.56519e-16)
(5.44761 5.95106 1.10782e-15)
(4.11222 3.77014 0)
(2.08969 1.78964 2.04118e-15)
(-0.583475 0.626166 2.54378e-15)
(-3.02823 -0.204949 2.9193e-15)
(-4.01786 -1.92743 2.54862e-15)
(-4.33026 -5.20168 -2.07398e-15)
(-4.15818 -9.22737 8.78627e-16)
(-3.79132 -13.1136 7.74267e-16)
(-3.39102 -16.5593 2.9397e-15)
(5.43147 -2.50819 -1.39287e-16)
(-0.0324015 3.3447 -1.14792e-17)
(1.27456 4.33642 -2.64169e-16)
(2.05182 5.21291 -9.89172e-16)
(2.92381 6.24502 1.77401e-16)
(3.99825 7.35815 -1.95033e-15)
(4.98834 8.44092 1.00298e-15)
(5.57296 9.12801 1.78349e-15)
(5.61175 9.06189 6.86396e-16)
(5.12671 8.33306 8.57653e-16)
(4.11043 6.97711 -2.20493e-15)
(2.45596 5.53119 -1.47671e-15)
(-0.350808 4.50895 -2.31528e-15)
(-2.96278 4.13744 -2.64746e-15)
(-4.6701 2.1742 -7.46278e-15)
(-5.17184 -1.64034 -2.66508e-15)
(-4.80122 -5.53738 5.8902e-15)
(-4.31725 -9.57626 -5.09303e-15)
(-3.63568 -13.3988 0)
(-2.9357 -16.8693 -4.29038e-15)
(5.45216 -2.84384 8.73833e-17)
(-0.151493 3.25171 -1.06038e-16)
(1.70393 4.0489 2.71116e-16)
(2.51741 4.90491 9.57857e-16)
(3.00295 5.95841 1.72094e-15)
(3.61142 7.04415 4.58949e-16)
(4.25238 8.16985 1.13634e-15)
(4.67756 9.10088 -1.85717e-15)
(4.60204 9.46217 -1.49828e-15)
(3.94757 9.18269 -1.83477e-15)
(2.69341 8.38823 2.36491e-15)
(0.609211 7.55499 0)
(-2.06562 7.67924 -7.41178e-15)
(-4.2218 6.80731 0)
(-5.52339 3.03834 0)
(-5.69955 -2.02918 0)
(-5.01781 -5.96019 3.9188e-15)
(-4.16103 -10.0084 -6.54429e-15)
(-3.23959 -13.9091 0)
(-2.30806 -17.4094 2.7968e-15)
(5.45265 -3.03231 6.79256e-17)
(-0.320315 2.77032 -8.77427e-17)
(1.77695 3.51888 0)
(2.71862 4.36982 1.70951e-15)
(3.10034 5.47364 5.9912e-16)
(3.39388 6.66084 2.82717e-16)
(3.64791 7.88918 -2.24693e-17)
(3.79361 9.03174 3.94134e-15)
(3.54604 9.80177 0)
(2.74616 10.0403 1.74062e-15)
(1.26637 9.83928 2.22193e-15)
(-0.932965 9.94792 5.63523e-15)
(-3.28543 10.2989 5.45684e-15)
(-5.16546 8.30822 1.15636e-14)
(-5.95831 3.44075 -6.31025e-15)
(-5.71328 -2.29989 -2.00054e-16)
(-4.95225 -6.41079 1.42837e-14)
(-3.82713 -10.5751 6.49685e-15)
(-2.68381 -14.5475 5.90481e-15)
(-1.55226 -18.0312 5.48823e-15)
(5.46311 -3.16423 0)
(-0.384873 2.16076 8.3429e-17)
(1.74686 2.9468 -5.49098e-16)
(2.71534 3.83493 -2.15363e-15)
(3.18297 5.03294 -2.86103e-15)
(3.35605 6.33778 9.28134e-16)
(3.34877 7.70778 -2.50291e-15)
(3.17393 9.04936 -4.09814e-15)
(2.69435 10.1853 -1.48135e-15)
(1.72037 10.9504 3.37889e-16)
(0.0405101 11.4527 -4.18229e-15)
(-2.12831 12.2496 -4.66227e-15)
(-4.2789 12.3438 -4.67268e-15)
(-5.70452 9.3841 -5.00253e-15)
(-6.11195 3.70071 0)
(-5.44018 -2.21615 2.59988e-16)
(-4.61978 -6.76086 1.80937e-16)
(-3.26156 -11.1319 -6.28758e-15)
(-1.94643 -15.2231 -1.7436e-14)
(-0.618476 -18.691 5.185e-15)
(5.49664 -3.269 0)
(-0.36996 1.48891 -8.71305e-17)
(1.80334 2.27989 0)
(2.57488 3.32364 1.34625e-15)
(3.1771 4.62874 3.3734e-15)
(3.28811 6.02388 0)
(3.21963 7.54987 4.92072e-15)
(2.84479 9.12435 8.50166e-15)
(2.15156 10.614 0)
(0.957785 11.8728 -3.4778e-15)
(-0.773314 13.0819 8.98351e-15)
(-2.82892 14.2995 5.99753e-16)
(-4.73483 13.9007 4.67342e-15)
(-5.64315 10.2562 -4.5851e-15)
(-5.69146 4.18642 0)
(-4.68159 -1.86533 -1.72159e-14)
(-3.9896 -6.89686 -6.96714e-15)
(-2.42468 -11.6106 0)
(-0.948348 -15.8905 1.1422e-14)
(0.558738 -19.3604 -2.089e-14)
(5.55373 -3.34918 7.15291e-16)
(-0.364031 0.827366 -2.924e-16)
(1.82412 1.58159 -4.04163e-16)
(2.41726 2.78186 -4.22046e-16)
(3.10503 4.22688 -2.27849e-16)
(3.16714 5.70528 -2.47287e-15)
(3.09329 7.35857 4.79887e-15)
(2.68994 9.17531 -8.05579e-15)
(1.88125 11.0304 -9.76259e-15)
(0.546334 12.785 6.51858e-15)
(-1.1662 14.6088 -4.04548e-15)
(-3.1221 16.0586 -4.03176e-15)
(-4.67064 15.2794 3.7222e-15)
(-5.21034 11.1406 -9.47355e-15)
(-4.90285 4.98422 0)
(-3.63462 -1.0147 3.64559e-14)
(-3.04027 -6.77388 -2.80239e-14)
(-1.26194 -11.9282 1.19221e-14)
(0.36591 -16.4535 1.12191e-14)
(2.02618 -19.9678 1.89042e-16)
(5.62243 -3.39222 2.03376e-16)
(-0.357345 0.200536 -1.80083e-17)
(1.81065 0.856722 4.53105e-16)
(2.38709 2.13032 -1.67001e-15)
(2.97753 3.78093 -3.43972e-15)
(3.04625 5.37772 0)
(2.91334 7.12353 -4.88759e-15)
(2.56818 9.13421 0)
(1.75178 11.3438 6.04149e-15)
(0.417489 13.6111 0)
(-1.23687 15.952 0)
(-3.10241 17.5452 -4.92534e-16)
(-4.16708 16.573 1.5405e-14)
(-4.41473 12.0836 9.93455e-15)
(-3.79483 6.01823 4.76683e-16)
(-2.31136 0.229045 -1.89204e-14)
(-1.68687 -6.33178 0)
(0.293102 -11.9747 0)
(2.06098 -16.8078 1.08921e-14)
(3.8382 -20.4273 2.07833e-14)
(5.68908 -3.38648 -7.68288e-16)
(-0.360431 -0.384876 1.03109e-15)
(1.78862 0.111835 5.5304e-16)
(2.39305 1.39229 -3.40772e-16)
(2.79755 3.25272 -2.01253e-15)
(2.96252 5.0248 1.6635e-15)
(2.72144 6.84506 2.70441e-15)
(2.4183 8.97592 -2.29858e-15)
(1.66986 11.4941 0)
(0.476555 14.2462 -6.85804e-15)
(-1.06376 17.048 6.09704e-15)
(-2.67167 18.7968 -6.96211e-15)
(-3.31161 17.6907 0)
(-3.07657 13.2085 2.71436e-16)
(-2.11542 7.42704 5.5525e-16)
(-0.355317 2.00513 2.28022e-14)
(0.265905 -5.36004 -3.04768e-14)
(2.36618 -11.5734 1.21148e-14)
(4.23399 -16.7869 -1.09773e-14)
(6.04219 -20.5966 -1.03499e-14)
(5.7374 -3.31746 0)
(-0.383236 -0.929972 1.2118e-16)
(1.73737 -0.623631 -2.07228e-16)
(2.29144 0.612588 2.27889e-16)
(2.50895 2.65565 0)
(2.88532 4.6053 0)
(2.56948 6.50693 -7.01763e-15)
(2.25968 8.70165 2.20486e-15)
(1.6196 11.4383 -1.14206e-14)
(0.643773 14.589 -1.14772e-15)
(-0.661062 17.7949 1.23501e-14)
(-1.88438 19.7926 -6.32664e-15)
(-2.04256 18.7445 4.51352e-16)
(-1.35554 14.5019 7.99197e-16)
(-0.0923336 9.1208 -1.49268e-14)
(2.01563 4.05611 0)
(2.90759 -3.71984 -1.75386e-14)
(5.00464 -10.5674 5.24791e-14)
(6.92736 -16.2036 -2.20358e-14)
(8.65978 -20.2724 1.05178e-14)
(5.74433 -3.17009 -9.87638e-17)
(-0.424262 -1.40906 -4.48038e-16)
(1.58383 -1.30915 2.0496e-16)
(2.04507 -0.210035 4.31198e-16)
(2.24431 1.89255 1.09201e-15)
(2.73863 4.07018 0)
(2.47504 6.05655 1.92902e-15)
(2.15136 8.27303 2.10384e-15)
(1.623 11.1275 -5.55346e-15)
(0.889353 14.5524 1.06983e-14)
(-0.0736016 18.0597 6.46526e-15)
(-0.815228 20.2804 -6.19633e-15)
(-0.577956 19.4894 1.42964e-14)
(0.463178 15.6671 9.70018e-15)
(1.93041 10.7025 1.57539e-14)
(4.41859 6.41647 1.82196e-15)
(6.08142 -0.96663 -2.06262e-14)
(8.15586 -8.6083 -8.96105e-17)
(10.0889 -14.7208 -2.43953e-14)
(11.5493 -19.1488 -1.14937e-14)
(5.71013 -2.93779 0)
(-0.503289 -1.79123 2.43471e-16)
(1.27836 -1.92765 -2.32694e-16)
(1.5933 -1.0876 -8.34052e-16)
(1.9642 0.895442 2.62076e-15)
(2.38121 3.36851 -1.48847e-15)
(2.37804 5.4437 0)
(2.09285 7.67983 0)
(1.65578 10.5378 5.01118e-15)
(1.21996 14.0726 0)
(0.629405 17.8069 3.41285e-16)
(0.302958 20.3212 -1.07568e-14)
(0.923922 19.9472 6.33021e-15)
(2.33279 16.6992 -8.43801e-15)
(4.05983 11.8863 0)
(6.62885 7.11265 1.83135e-14)
(8.83489 0.785871 0)
(10.9314 -6.54066 -1.26618e-14)
(12.8771 -12.8119 -2.14315e-14)
(14.1036 -17.3888 1.87835e-14)
(5.62765 -2.60911 8.14811e-16)
(-0.676882 -2.0395 1.06361e-15)
(0.877351 -2.46614 0)
(1.03561 -2.02182 -8.2342e-16)
(1.3421 -0.310231 -6.83116e-16)
(1.66874 2.43074 -1.54654e-15)
(2.18754 4.54929 0)
(1.97427 6.794 0)
(1.64615 9.60432 4.51916e-15)
(1.48837 13.1308 0)
(1.27926 17.0022 5.17087e-15)
(1.37598 19.8591 -4.65713e-15)
(2.34768 19.9199 -5.46264e-15)
(4.11845 17.5576 6.78359e-16)
(6.07188 13.2632 -3.0003e-14)
(8.41658 8.64195 1.31005e-14)
(11.0056 2.59301 -1.37727e-14)
(13.3828 -4.34228 0)
(15.3386 -10.4889 -9.31772e-15)
(16.2547 -15.0071 2.67514e-14)
(5.49603 -2.17149 -5.95199e-16)
(-0.963697 -2.13762 -2.22122e-15)
(0.319801 -2.83799 2.92154e-16)
(0.360313 -2.92592 7.5988e-16)
(0.538408 -1.74564 1.97269e-15)
(0.68161 1.05954 -4.75612e-15)
(1.76615 3.29676 8.6023e-15)
(1.67338 5.50001 -9.06257e-15)
(1.51016 8.24438 -7.24477e-16)
(1.56779 11.65 -5.00464e-15)
(1.7294 15.5395 1.26636e-14)
(2.27531 18.684 -9.04531e-15)
(3.55267 19.2204 5.45091e-15)
(5.66917 17.8257 0)
(7.94633 14.2769 0)
(10.3076 10.062 0)
(13.0441 4.43678 1.28335e-14)
(15.6396 -2.10206 4.00891e-16)
(17.4305 -7.89329 -8.31672e-15)
(17.7231 -12.1312 -8.34712e-15)
(5.31514 -1.59107 4.27286e-16)
(-1.33902 -2.06391 2.37883e-15)
(-0.319318 -3.02068 -1.06116e-16)
(-0.469128 -3.63893 1.01999e-16)
(-0.436675 -3.2131 1.02145e-15)
(-0.381303 -0.930188 -1.29784e-15)
(0.81118 1.86104 0)
(1.13793 3.77838 0)
(1.10136 6.37545 0)
(1.36927 9.56738 0)
(1.86605 13.3384 -9.08262e-15)
(2.82485 16.7375 1.41363e-14)
(4.39027 17.922 -4.6136e-15)
(6.81642 17.2086 0)
(9.42815 14.6505 0)
(11.9188 11.0975 0)
(14.7768 6.05094 1.97739e-14)
(17.3659 0.0700416 3.03849e-16)
(18.3688 -5.17284 5.86307e-16)
(17.6961 -8.98095 0)
(5.06219 -0.912602 0)
(-1.74319 -1.83578 -5.02362e-15)
(-0.927534 -2.91789 -9.99602e-17)
(-1.28059 -3.97677 1.27548e-15)
(-1.51335 -4.32692 -2.74229e-15)
(-1.53146 -3.32233 0)
(-0.785538 -0.248609 0)
(0.0174444 1.85393 1.02082e-14)
(0.232527 4.05838 0)
(0.683278 6.78357 0)
(1.50345 10.2654 -8.49204e-15)
(2.81217 13.6774 1.33186e-14)
(4.70892 15.4692 -4.44545e-15)
(7.32178 15.4752 -2.219e-14)
(10.1566 13.8736 -1.46734e-15)
(12.74 11.1481 -1.60782e-15)
(15.5247 6.86318 3.25592e-14)
(17.566 1.8002 1.50762e-14)
(17.4846 -2.5912 0)
(15.7056 -5.86015 -1.66065e-14)
(4.69798 -0.191203 0)
(-2.09528 -1.50355 2.66836e-15)
(-1.35373 -2.51285 -4.74291e-16)
(-1.85078 -3.77693 -7.08058e-16)
(-2.3966 -4.67965 2.19941e-15)
(-2.85269 -4.91579 0)
(-2.68127 -3.40155 0)
(-1.77078 -0.811465 -5.27943e-16)
(-1.31593 1.52123 -6.5411e-15)
(-0.579356 3.5748 4.91982e-15)
(0.525869 6.33771 1.03796e-14)
(2.03135 9.52607 -1.00077e-14)
(4.1231 11.7324 -2.03031e-14)
(6.80944 12.4322 2.05809e-14)
(9.64927 11.6167 1.21062e-14)
(12.0826 9.71636 -1.64813e-14)
(14.4326 6.39909 -1.11954e-15)
(15.6035 2.56008 -1.54371e-14)
(14.0552 -0.767837 -1.68587e-14)
(10.6257 -3.28359 3.87128e-14)
(4.17615 0.515772 0)
(-2.28761 -1.17015 -2.69192e-15)
(-1.44707 -1.85392 5.17168e-16)
(-1.92756 -2.94813 8.33131e-16)
(-2.6767 -4.12148 5.18882e-16)
(-3.49547 -4.96502 0)
(-4.02282 -5.21051 0)
(-3.85398 -3.84198 -5.0523e-15)
(-3.18339 -1.88669 -1.24774e-15)
(-2.31635 0.278092 6.03164e-15)
(-1.09852 2.30349 0)
(0.478416 4.60962 0)
(2.45299 6.69245 1.08801e-14)
(4.84765 7.79599 -1.36152e-15)
(7.2025 7.68604 1.50602e-14)
(8.93917 6.55307 -1.5401e-14)
(10.4177 4.42745 0)
(9.91003 1.84284 0)
(6.68144 -0.312392 0)
(2.71197 -2.09938 0)
(3.3822 1.04073 -2.29582e-16)
(-2.21614 -0.911057 6.27207e-15)
(-1.20288 -1.02907 -3.87534e-16)
(-1.47689 -1.58769 -1.77151e-15)
(-2.05673 -2.38503 -2.2517e-15)
(-2.81605 -3.26861 7.15691e-15)
(-3.63754 -3.95069 0)
(-4.11796 -4.13983 -8.22018e-15)
(-4.03099 -3.19703 -6.0204e-15)
(-3.3869 -1.83033 6.36546e-15)
(-2.61313 -0.0434655 2.59607e-14)
(-1.67901 1.34416 -2.62518e-14)
(-0.202926 2.28381 3.20585e-14)
(1.55152 2.82467 -1.56248e-14)
(3.01992 2.7519 1.99421e-14)
(3.82354 2.11001 -3.93966e-14)
(3.61293 0.829114 2.3333e-14)
(1.6121 -0.914453 -2.74029e-14)
(-1.23563 -1.95244 0)
(-0.505085 -3.34208 0)
(1.87654 1.15674 0)
(-1.39311 -0.458196 1.1185e-15)
(-0.339521 -0.427364 -2.9809e-15)
(-0.392238 -0.611181 0)
(-0.751892 -0.951664 0)
(-1.4007 -1.32676 -8.30452e-15)
(-2.32302 -1.6735 -5.51415e-15)
(-3.36361 -1.9365 5.24411e-15)
(-4.19657 -1.99509 0)
(-4.62092 -1.88936 0)
(-4.00888 -1.42984 -1.93984e-14)
(-2.9239 -0.512778 0)
(-1.6502 0.658383 -2.94389e-14)
(-0.600098 1.59669 -3.13048e-14)
(-0.0497975 2.4156 6.37622e-14)
(-0.208318 3.17066 3.64546e-14)
(-0.631255 4.29465 0)
(-0.0141485 5.48954 5.42019e-14)
(0.57637 4.93998 5.74692e-14)
(0.864921 1.82715 -6.4228e-14)
(-2.98221 -19.6144 -1.32714e-15)
(-2.57566 -22.3458 -1.91087e-17)
(-2.21956 -24.8689 1.1352e-15)
(-1.86007 -27.204 -1.10219e-15)
(-1.45433 -29.3313 1.00352e-15)
(-1.07226 -31.2976 -9.8827e-16)
(-0.751992 -33.2668 8.96928e-16)
(-0.483709 -35.3412 8.86019e-16)
(-0.252276 -37.5547 -8.00284e-16)
(-0.0437428 -39.873 -1.55546e-15)
(0.150492 -42.2675 -2.99623e-15)
(0.321425 -44.717 1.37781e-15)
(0.485104 -47.254 0)
(0.616562 -49.8348 0)
(0.71357 -52.5231 -2.51888e-15)
(0.945223 -55.3699 0)
(0.454946 -57.6405 0)
(2.72108 -62.4898 1.10748e-15)
(-4.73295 -58.6697 -1.07388e-15)
(16.5256 -78.764 3.59152e-15)
(-2.30899 -19.9465 -2.70641e-15)
(-1.75019 -22.6949 -1.30912e-15)
(-1.26063 -25.2297 -4.26634e-17)
(-0.794742 -27.5699 -2.14759e-15)
(-0.315829 -29.6712 -4.13544e-15)
(0.132635 -31.5798 3.77325e-15)
(0.512469 -33.4915 7.52283e-17)
(0.847402 -35.5258 -3.37493e-15)
(1.15741 -37.7065 -3.27154e-15)
(1.45077 -39.9953 -1.62763e-15)
(1.73233 -42.3602 4.35356e-15)
(1.9885 -44.7818 2.75576e-15)
(2.24666 -47.2917 8.06799e-15)
(2.4624 -49.8507 0)
(2.67639 -52.5168 7.55124e-15)
(2.99011 -55.3449 -4.96162e-15)
(2.62156 -57.6212 9.19904e-15)
(5.01233 -62.4103 4.42878e-15)
(-2.48466 -58.7985 -4.30634e-15)
(19.3712 -78.1447 -3.64631e-19)
(-1.49336 -20.4459 -5.32513e-15)
(-0.781504 -23.1262 4.76166e-15)
(-0.187438 -25.5907 1.1385e-14)
(0.375286 -27.9023 -2.05462e-15)
(0.935658 -29.9592 0)
(1.44138 -31.8048 -7.49734e-17)
(1.86954 -33.659 3.55065e-15)
(2.25846 -35.6486 0)
(2.63165 -37.7939 3.25839e-15)
(2.99378 -40.0512 -6.34277e-15)
(3.34877 -42.3864 5.7519e-15)
(3.68055 -44.7806 -5.63687e-15)
(4.02738 -47.2595 1.45882e-16)
(4.32275 -49.7967 -5.08518e-15)
(4.64937 -52.4289 -5.02911e-15)
(5.0364 -55.2439 0)
(4.78949 -57.5051 -4.66035e-15)
(7.29749 -62.2295 0)
(-0.293051 -58.8973 -8.84464e-15)
(22.3067 -77.3714 0)
(-0.55739 -20.9708 8.51098e-17)
(0.287794 -23.5343 -4.70004e-15)
(0.977126 -25.9161 -8.95057e-15)
(1.61186 -28.1911 0)
(2.2421 -30.1944 -8.16966e-15)
(2.7985 -31.965 3.67067e-15)
(3.2692 -33.7545 3.62393e-15)
(3.70837 -35.6956 6.88762e-15)
(4.14005 -37.8046 -6.52734e-15)
(4.56651 -40.0307 6.33928e-15)
(4.99086 -42.3356 2.91451e-16)
(5.39468 -44.7027 -5.49802e-15)
(5.82601 -47.1491 0)
(6.19729 -49.6694 1.04515e-14)
(6.63328 -52.2613 -1.03384e-14)
(7.0892 -55.0727 -2.68692e-16)
(6.96561 -57.299 -9.60292e-15)
(9.58551 -61.9576 8.5809e-15)
(1.94986 -58.9733 9.46828e-15)
(25.2545 -76.4365 3.22824e-16)
(0.559526 -21.5103 2.04624e-14)
(1.51958 -23.9074 -1.41931e-14)
(2.26559 -26.1759 4.27895e-15)
(2.94864 -28.4051 0)
(3.63063 -30.3487 0)
(4.22016 -32.0374 -7.77618e-15)
(4.71865 -33.7595 1.43555e-14)
(5.19637 -35.6518 -1.39101e-14)
(5.6769 -37.7257 6.06444e-15)
(6.16032 -39.9225 1.20877e-14)
(6.64858 -42.1993 1.20863e-14)
(7.1208 -44.5422 -1.12763e-14)
(7.63214 -46.9557 1.05623e-14)
(8.07723 -49.4648 1.49467e-17)
(8.61806 -52.0087 1.03421e-14)
(9.14224 -54.8304 2.57972e-16)
(9.13918 -57.0006 -9.605e-15)
(11.8666 -61.6048 1.69891e-14)
(4.21318 -59.0256 -1.76708e-14)
(28.1794 -75.3163 -1.46341e-14)
(1.88762 -22.0366 5.18226e-15)
(2.92974 -24.2126 -4.37206e-15)
(3.68983 -26.3318 1.56272e-16)
(4.39282 -28.5119 0)
(5.10406 -30.3969 0)
(5.70414 -32.0046 -1.5549e-14)
(6.21251 -33.663 1.42185e-14)
(6.71541 -35.5105 2.78881e-14)
(7.23506 -37.5539 -1.92857e-14)
(7.76863 -39.7254 -1.26981e-14)
(8.3157 -41.9763 2.36178e-14)
(8.85291 -44.2974 -4.51758e-14)
(9.43897 -46.6768 1.03013e-14)
(9.95786 -49.1795 1.01939e-14)
(10.5963 -51.6665 1.03498e-14)
(11.192 -54.5134 -9.39227e-15)
(11.3065 -56.6074 0)
(14.1332 -61.1688 1.76434e-14)
(6.53348 -59.0447 1.88284e-14)
(30.9498 -74.0202 1.5308e-14)
(3.4639 -22.4938 -9.9433e-15)
(4.53399 -24.4016 0)
(5.25422 -26.3411 1.79811e-14)
(5.94464 -28.4768 -1.63695e-14)
(6.65779 -30.3134 0)
(7.2414 -31.8496 0)
(7.74007 -33.4558 -7.27076e-15)
(8.25452 -35.269 -2.76388e-14)
(8.80477 -37.29 1.31115e-14)
(9.38308 -39.4418 0)
(9.98493 -41.6697 0)
(10.5846 -43.971 1.12997e-14)
(11.2396 -46.3151 -1.08563e-14)
(11.8338 -48.8151 -1.04521e-14)
(12.5605 -51.2372 -2.07213e-14)
(13.2332 -54.123 1.87884e-14)
(13.4579 -56.1201 5.43457e-16)
(16.3796 -60.663 5.13223e-16)
(8.91611 -59.0073 -1.75198e-14)
(33.5095 -72.5831 -1.46459e-14)
(5.32304 -22.8071 -9.75942e-15)
(6.34121 -24.4034 -1.92228e-14)
(6.94909 -26.1475 -6.58103e-16)
(7.58866 -28.2569 2.48123e-14)
(8.27174 -30.0654 0)
(8.81023 -31.5484 1.5347e-14)
(9.28192 -33.1204 -1.49527e-14)
(9.79703 -34.9138 1.32375e-14)
(10.3723 -36.9232 1.28713e-14)
(10.9921 -39.0631 -1.27668e-14)
(11.6462 -41.2732 1.15723e-14)
(12.3076 -43.5596 0)
(13.0264 -45.8696 -2.2326e-14)
(13.6994 -48.3716 4.18861e-14)
(14.5026 -50.7227 -3.98951e-14)
(15.2637 -53.6611 0)
(15.5841 -55.5378 -1.42279e-17)
(18.6046 -60.084 -1.72016e-14)
(11.2944 -58.8679 3.56486e-14)
(35.9266 -71.0608 -4.31989e-14)
(7.46746 -22.8602 -3.59461e-16)
(8.32152 -24.1256 2.87969e-14)
(8.73478 -25.6819 -1.77021e-14)
(9.2866 -27.7968 -8.46737e-15)
(9.9088 -29.6078 1.61439e-14)
(10.3769 -31.0666 -3.12619e-14)
(10.8096 -32.6315 1.44156e-14)
(11.3189 -34.4256 0)
(11.9172 -36.4379 3.24273e-16)
(12.5778 -38.5765 -1.2223e-14)
(13.2838 -40.7767 -2.43839e-14)
(14.0085 -43.0553 2.21599e-14)
(14.7881 -45.3355 -2.23703e-14)
(15.5473 -47.8447 2.09571e-14)
(16.4131 -50.1219 2.12991e-14)
(17.2813 -53.1256 -1.87919e-14)
(17.6772 -54.8604 5.67559e-14)
(20.811 -59.4266 -1.66892e-14)
(13.6712 -58.6132 -3.47245e-14)
(38.2424 -69.4703 1.29755e-19)
(9.86965 -22.4642 -1.02968e-14)
(10.4015 -23.4306 3.98988e-14)
(10.5366 -24.8668 7.14546e-16)
(10.9732 -27.0495 -3.45056e-14)
(11.5123 -28.9107 -1.70462e-14)
(11.8948 -30.3899 3.10024e-14)
(12.2874 -31.985 0)
(12.7928 -33.8063 1.44173e-14)
(13.418 -35.8383 -2.63213e-14)
(14.1227 -37.9868 0)
(14.8825 -40.1849 -2.39186e-14)
(15.6744 -42.4615 2.28064e-14)
(16.513 -44.7163 0)
(17.3685 -47.2351 4.19805e-14)
(18.2814 -49.4386 -2.02864e-14)
(19.2828 -52.5133 0)
(19.725 -54.0899 -5.68478e-14)
(22.9952 -58.6934 5.18394e-14)
(16.0393 -58.2302 3.54019e-14)
(40.4485 -67.8308 5.80678e-14)
(12.298 -21.4083 1.98815e-14)
(12.341 -22.239 1.00838e-14)
(12.1767 -23.7109 -1.79689e-14)
(12.5203 -26.0399 -1.74681e-14)
(12.9885 -27.9978 3.26036e-14)
(13.2988 -29.5437 -3.09473e-14)
(13.6726 -31.2061 1.49388e-14)
(14.1911 -33.0798 -2.89833e-14)
(14.8571 -35.1465 3.95464e-14)
(15.6148 -37.3139 2.5926e-14)
(16.4334 -39.515 -2.34642e-14)
(17.298 -41.7917 5.84172e-16)
(18.1947 -44.0232 -2.13725e-14)
(19.1579 -46.549 -6.35976e-14)
(20.1017 -48.6807 4.06187e-14)
(21.2687 -51.82 1.02691e-15)
(21.7182 -53.2521 3.80956e-14)
(25.1541 -57.8875 0)
(18.3815 -57.7069 -3.44548e-14)
(42.5465 -66.1689 2.89177e-14)
(14.3726 -19.6994 0)
(13.8703 -20.5522 0)
(13.4738 -22.2738 -1.81578e-14)
(13.8133 -24.8359 -6.87492e-16)
(14.2597 -26.9173 4.82019e-14)
(14.5331 -28.5625 -1.51738e-14)
(14.9252 -30.318 1.55467e-14)
(15.4838 -32.2602 -2.76063e-14)
(16.2116 -34.3708 0)
(17.0382 -36.5635 2.53528e-14)
(17.9263 -38.7722 2.40329e-14)
(18.8726 -41.0503 0)
(19.8282 -43.2619 -2.2526e-14)
(20.9116 -45.7887 4.15442e-14)
(21.8714 -47.8547 4.12311e-14)
(23.2396 -51.0425 -1.77551e-14)
(23.6501 -52.335 -7.42661e-14)
(27.2869 -57.0161 0)
(20.6773 -57.0292 0)
(44.5447 -64.5128 -3.84935e-19)
(15.9081 -17.3065 -1.75388e-14)
(14.7894 -18.3624 0)
(14.3269 -20.6219 3.83847e-16)
(14.8064 -23.5009 1.72637e-14)
(15.2919 -25.7116 -3.15989e-14)
(15.5723 -27.4773 0)
(16.0284 -29.3441 1.4854e-14)
(16.6578 -31.3663 0)
(17.4691 -33.5264 0)
(18.38 -35.7484 -2.53385e-14)
(19.3492 -37.9669 0)
(20.3879 -40.2456 2.34907e-14)
(21.4067 -42.4398 -6.59989e-14)
(22.6237 -44.9573 4.21135e-14)
(23.5871 -46.9688 -1.98504e-14)
(25.1924 -50.1833 7.70644e-14)
(25.5111 -51.3509 0)
(29.4008 -56.0791 -3.42279e-14)
(22.8975 -56.1834 0)
(46.5019 -62.8774 5.75044e-14)
(16.5579 -14.3404 0)
(14.8937 -15.8458 4.38984e-16)
(14.7285 -18.93 7.99708e-16)
(15.5066 -22.1433 -4.96681e-14)
(16.0851 -24.4628 1.56394e-14)
(16.4192 -26.3624 -1.55186e-14)
(16.9851 -28.3471 -1.48812e-14)
(17.7131 -30.449 2.90083e-14)
(18.6294 -32.6534 -2.62191e-14)
(19.6403 -34.8978 -5.14334e-14)
(20.7022 -37.1204 2.35374e-14)
(21.8434 -39.3927 2.2963e-14)
(22.9299 -41.5684 2.20101e-14)
(24.292 -44.0611 2.10667e-14)
(25.2482 -46.0339 0)
(27.1237 -49.2522 1.02669e-15)
(27.291 -50.2972 -7.45334e-14)
(31.5071 -55.0661 -8.14845e-16)
(25.0114 -55.186 3.36279e-14)
(48.5062 -61.2312 -5.7528e-14)
(15.7052 -11.1423 1.76908e-14)
(13.9115 -13.4772 1.87603e-14)
(14.6792 -17.5045 1.76684e-14)
(15.8633 -20.9105 -1.74043e-14)
(16.5973 -23.2687 1.53933e-14)
(17.0525 -25.2852 3.19826e-14)
(17.7898 -27.3668 -1.42709e-14)
(18.6514 -29.5334 -5.76666e-14)
(19.6963 -31.769 -1.26562e-15)
(20.8228 -34.0258 -1.22664e-15)
(21.988 -36.2436 2.35965e-14)
(23.2404 -38.5 -4.59854e-14)
(24.3992 -40.6549 0)
(25.9137 -43.105 2.21538e-14)
(26.8534 -45.062 -8.17076e-14)
(29.0303 -48.2043 3.74621e-14)
(28.9801 -49.1952 3.78361e-14)
(33.6118 -53.9651 0)
(27.0552 -54.0592 -3.45615e-14)
(50.5102 -59.5502 0)
(12.8274 -8.17762 3.90925e-16)
(12.0446 -11.8641 4.72182e-16)
(14.4185 -16.6132 1.79927e-14)
(15.9215 -19.922 -5.166e-14)
(16.8726 -22.2198 4.83917e-14)
(17.505 -24.3143 1.58313e-14)
(18.4564 -26.4476 -1.51217e-14)
(19.4764 -28.6499 2.80444e-14)
(20.6708 -30.8929 2.64849e-14)
(21.9274 -33.145 -1.70446e-17)
(23.2064 -35.3458 0)
(24.5782 -37.5734 -5.65783e-16)
(25.8144 -39.7043 2.15409e-14)
(27.4838 -42.0924 4.32602e-14)
(28.4063 -44.0594 2.12142e-15)
(30.9013 -47.0778 -7.59102e-14)
(30.5755 -48.0845 3.89817e-14)
(35.7192 -52.7754 -6.70307e-14)
(28.9973 -52.8252 3.46624e-14)
(52.4276 -57.8676 0)
(8.25357 -6.25138 0)
(10.3146 -11.7132 -2.15556e-14)
(14.3404 -16.3483 -1.86113e-14)
(15.8123 -19.2627 0)
(17.0325 -21.3937 5.1111e-14)
(17.8605 -23.5107 -4.75661e-14)
(19.0431 -25.631 -6.20404e-14)
(20.2272 -27.8309 -6.80954e-16)
(21.579 -30.0497 0)
(22.9721 -32.2745 -1.14376e-17)
(24.3694 -34.4424 2.43426e-14)
(25.8645 -36.6251 0)
(27.1813 -38.7266 4.53448e-14)
(29.0026 -41.0311 -8.44233e-14)
(29.9151 -43.0322 3.9814e-14)
(32.7315 -45.8538 4.27656e-18)
(32.0893 -46.983 -3.79327e-14)
(37.8564 -51.514 3.39122e-14)
(30.8086 -51.5201 -3.63011e-14)
(54.265 -56.2154 5.62556e-14)
(4.61197 -6.69184 0)
(9.92063 -13.2324 0)
(14.6689 -16.4683 -3.94356e-14)
(15.677 -18.9045 7.23543e-14)
(17.1965 -20.7731 -6.81505e-14)
(18.1763 -22.8719 1.6457e-14)
(19.5792 -24.9222 6.23992e-14)
(20.9247 -27.0905 3.01405e-14)
(22.4369 -29.2563 -2.70386e-14)
(23.9696 -31.4306 2.59817e-14)
(25.488 -33.5479 -4.95224e-14)
(27.1069 -35.6669 2.25966e-14)
(28.5064 -37.7325 4.53498e-14)
(30.4704 -39.9295 4.43099e-14)
(31.3826 -41.9868 -3.97709e-14)
(34.5016 -44.5422 3.74107e-14)
(33.5117 -45.8798 7.59682e-14)
(40.044 -50.0735 -3.28703e-14)
(32.4435 -50.1048 0)
(56.0713 -54.6741 0)
(6.02799 -8.70362 0)
(10.8475 -14.7204 2.42364e-14)
(15.1058 -16.1433 -1.93679e-14)
(15.4835 -18.4793 -3.85076e-14)
(17.2943 -20.1445 1.60883e-14)
(18.3964 -22.2922 3.30351e-14)
(20.0217 -24.2774 1.8848e-17)
(21.537 -26.4148 0)
(23.2122 -28.5092 0)
(24.8864 -30.6086 5.30767e-14)
(26.5284 -32.6548 1.16188e-15)
(28.2749 -34.687 -4.57315e-14)
(29.7613 -36.7067 0)
(31.8604 -38.7665 -8.43037e-14)
(32.7868 -40.8967 4.18094e-14)
(36.1636 -43.1053 -1.14191e-13)
(34.7622 -44.9023 3.78512e-14)
(42.2188 -48.3074 3.46939e-14)
(33.748 -48.6535 -7.06502e-14)
(57.9189 -53.4453 5.57561e-14)
(9.74008 -5.1221 -5.40495e-16)
(11.0649 -13.6975 -2.20564e-14)
(14.8829 -14.7339 -1.96401e-14)
(15.1935 -17.7224 1.90423e-14)
(17.2223 -19.4254 3.65905e-14)
(18.5582 -21.7263 -3.26018e-14)
(20.4173 -23.6805 -3.11063e-14)
(22.0972 -25.8007 2.97556e-14)
(23.9279 -27.8423 -2.65734e-14)
(25.7219 -29.8502 -2.61128e-14)
(27.4903 -31.8252 4.79146e-14)
(29.3536 -33.736 5.40251e-16)
(30.9305 -35.7006 -4.39823e-14)
(33.1489 -37.5742 4.00669e-14)
(34.1305 -39.8035 0)
(37.6613 -41.5238 3.76359e-14)
(36.1185 -44.0537 1.13394e-15)
(44.2462 -46.0216 -3.21805e-14)
(34.5244 -47.4607 0)
(59.7173 -52.6851 -5.46219e-14)
(13.0592 -4.46096 2.15335e-14)
(11.298 -13.7301 3.70485e-17)
(15.7593 -14.7923 1.68658e-14)
(15.6958 -17.7066 -3.20265e-14)
(17.9875 -19.2545 -4.78248e-16)
(19.2174 -21.4068 1.45273e-14)
(21.057 -23.3153 4.23086e-16)
(22.6699 -25.421 1.82706e-17)
(24.4641 -27.4839 -2.35703e-14)
(26.262 -29.5026 -2.20789e-14)
(28.0571 -31.4691 6.36771e-16)
(29.9601 -33.322 -1.93578e-14)
(31.6112 -35.29 0)
(33.8452 -36.9987 7.06738e-14)
(34.9428 -39.3535 0)
(38.3775 -40.6402 -3.27494e-14)
(37.0935 -43.776 3.15745e-14)
(45.1634 -44.4912 2.85348e-14)
(35.5834 -47.6131 -4.5476e-16)
(60.4852 -51.1555 3.28798e-16)
(13.1792 -4.47701 0)
(11.0949 -13.4038 1.48926e-14)
(15.7685 -14.6431 0)
(15.6975 -17.4917 1.3075e-14)
(18.0664 -19.0829 0)
(19.3093 -21.2114 -2.34143e-14)
(21.174 -23.1299 3.53131e-16)
(22.7918 -25.2336 -3.1626e-16)
(24.5948 -27.3084 1.94431e-14)
(26.3977 -29.3334 1.81779e-14)
(28.202 -31.3088 -1.73307e-14)
(30.106 -33.1572 3.24583e-14)
(31.7713 -35.1342 0)
(33.9948 -36.8145 -3.02296e-14)
(35.1324 -39.2048 4.72615e-16)
(38.5129 -40.403 2.45123e-17)
(37.298 -43.6936 -4.12272e-16)
(45.2879 -44.153 -2.47546e-14)
(35.8646 -47.706 -2.25244e-14)
(60.6259 -50.8088 -1.82714e-14)
(13.1825 -4.76258 2.57383e-16)
(10.9442 -13.1101 -2.24124e-16)
(15.8216 -14.5529 0)
(15.7583 -17.3093 1.34401e-14)
(18.2019 -18.9376 1.18683e-14)
(19.4504 -21.0298 2.30265e-14)
(21.3305 -22.9525 6.88535e-16)
(22.9459 -25.0514 1.53588e-17)
(24.7521 -27.1389 -2.94349e-16)
(26.5564 -29.1717 -3.60438e-14)
(28.3679 -31.1574 8.81061e-18)
(30.271 -33.0025 -3.24729e-14)
(31.9504 -34.9892 2.36624e-16)
(34.1586 -36.6423 -4.83784e-16)
(35.3391 -39.067 -2.89406e-14)
(38.6483 -40.1803 2.83114e-14)
(37.5596 -43.6107 4.35687e-16)
(45.4046 -43.8078 -3.69052e-16)
(36.2048 -47.8033 2.27932e-14)
(60.7483 -50.4096 3.6614e-14)
(13.1644 -5.10217 0)
(10.8595 -12.8434 0)
(15.9084 -14.4572 1.34099e-14)
(15.8643 -17.1127 -1.30454e-14)
(18.3706 -18.7706 -1.18656e-14)
(19.6212 -20.8259 -3.72938e-16)
(21.5082 -22.7532 -2.17049e-14)
(23.1168 -24.8496 -6.46708e-16)
(24.9216 -26.9525 2.94456e-16)
(26.7242 -28.9964 1.8027e-14)
(28.5406 -30.9947 3.38868e-14)
(30.4416 -32.839 8.10986e-18)
(32.1343 -34.8356 1.55089e-14)
(34.3245 -36.4653 0)
(35.549 -38.9209 2.89061e-14)
(38.7818 -39.9599 4.30037e-16)
(37.8295 -43.5101 2.69375e-14)
(45.5178 -43.4655 2.44669e-14)
(36.5556 -47.8776 3.71614e-16)
(60.8864 -50.0074 -1.83143e-14)
(13.1482 -5.42629 1.51522e-14)
(10.8236 -12.5826 -1.40991e-17)
(16.0149 -14.3433 1.38583e-16)
(16.0022 -16.8987 -4.16532e-16)
(18.5606 -18.5836 -1.18462e-14)
(19.8125 -20.6037 -1.17363e-14)
(21.7009 -22.5367 2.17652e-14)
(23.3005 -24.6321 3.16235e-16)
(25.1012 -26.7522 1.93278e-14)
(26.9006 -28.8095 0)
(28.7204 -30.822 -1.69571e-14)
(30.6179 -32.6676 3.22295e-14)
(32.3233 -34.6745 -1.55133e-14)
(34.4931 -36.2848 0)
(35.7629 -38.7673 -4.71706e-16)
(38.9146 -39.7397 -2.79209e-14)
(38.1077 -43.3987 -2.69031e-14)
(45.6246 -43.1289 -2.4112e-14)
(36.9125 -47.937 -3.45679e-16)
(61.0363 -49.6038 2.87036e-16)
(13.1512 -5.72544 -3.05538e-14)
(10.8358 -12.3224 1.47425e-14)
(16.1417 -14.211 -7.72517e-17)
(16.1709 -16.6671 1.96709e-16)
(18.7701 -18.3776 2.44562e-14)
(20.0221 -20.3643 1.1363e-14)
(21.9063 -22.3037 -2.14538e-14)
(23.4954 -24.3992 -3.16922e-16)
(25.2898 -26.5379 -1.93732e-14)
(27.0846 -28.6108 -2.88807e-16)
(28.9067 -30.639 2.58808e-16)
(30.7994 -32.4883 -1.61236e-14)
(32.517 -34.5057 -1.52519e-14)
(34.6642 -36.1006 -2.29984e-16)
(35.98 -38.6062 2.93201e-14)
(39.047 -39.5205 2.83766e-14)
(38.393 -43.2784 2.72727e-14)
(45.7239 -42.7978 -3.70525e-16)
(37.2766 -47.9814 -2.2761e-14)
(61.1952 -49.1957 2.72703e-16)
(13.1786 -6.00083 1.49071e-14)
(10.8954 -12.0628 -1.48394e-14)
(16.2892 -14.0597 -2.65265e-14)
(16.3699 -16.4173 0)
(18.9977 -18.1525 -2.82188e-17)
(20.2482 -20.1081 -3.91153e-16)
(22.1229 -22.055 2.25551e-14)
(23.7002 -24.1516 3.33419e-16)
(25.4863 -26.3098 -2.96013e-16)
(27.2757 -28.4002 0)
(29.0989 -30.4456 0)
(30.9857 -32.301 1.61192e-14)
(32.7148 -34.3291 1.55065e-14)
(34.8375 -35.9126 3.02156e-14)
(36.1997 -38.4374 -5.909e-14)
(39.1789 -39.3022 4.3079e-16)
(38.6848 -43.1489 -2.68085e-14)
(45.8155 -42.4719 0)
(37.6478 -48.0144 2.93833e-17)
(61.3624 -48.7814 -1.8415e-14)
(13.2319 -6.25773 1.4632e-14)
(11.0028 -11.8018 1.52143e-14)
(16.4573 -13.8893 1.3243e-14)
(16.5987 -16.1489 1.2958e-14)
(19.2417 -17.9088 -2.48527e-14)
(20.4891 -19.8357 -1.10655e-14)
(22.3487 -21.7918 1.74239e-17)
(23.9131 -23.8904 -2.12211e-14)
(25.6896 -26.0687 0)
(27.473 -28.1781 1.81071e-14)
(29.2965 -30.242 -2.71672e-16)
(31.1762 -32.1059 -1.56292e-14)
(32.9163 -34.1448 -2.36351e-16)
(35.0129 -35.7208 -1.79808e-17)
(36.4213 -38.2626 2.9301e-14)
(39.3103 -39.0856 0)
(38.9827 -43.0101 0)
(45.8996 -42.151 -2.46412e-14)
(38.0252 -48.0385 2.96493e-17)
(61.5375 -48.3594 -2.85333e-17)
(13.3118 -6.50278 -2.95108e-14)
(11.1618 -11.5349 -1.50458e-14)
(16.6451 -13.6999 -1.31254e-14)
(16.8562 -15.8616 -1.2993e-14)
(19.4999 -17.6469 2.44762e-14)
(20.7423 -19.5484 0)
(22.5814 -21.5156 0)
(24.1323 -23.6172 7.70845e-18)
(25.8982 -25.8156 0)
(27.6753 -27.9451 -1.8141e-14)
(29.4984 -30.0287 -1.67167e-14)
(31.3704 -31.9031 -1.63716e-14)
(33.1209 -33.9531 -1.57362e-14)
(35.1899 -35.5253 -6.02155e-14)
(36.6449 -38.0799 0)
(39.4411 -38.8705 0)
(39.2865 -42.8619 0)
(45.9761 -41.8351 2.46827e-14)
(38.4086 -48.0549 4.40612e-14)
(61.7204 -47.928 1.83932e-14)
(13.4197 -6.74082 1.46326e-14)
(11.3713 -11.2612 0)
(16.8537 -13.4906 1.31252e-14)
(17.1413 -15.5556 4.15923e-16)
(19.7697 -17.3679 -1.26295e-14)
(21.005 -19.2478 0)
(22.8183 -21.2285 0)
(24.3556 -23.334 2.10344e-14)
(26.1105 -25.552 3.12173e-16)
(27.8816 -27.7023 -5.67431e-16)
(29.704 -29.8062 1.72684e-14)
(31.5674 -31.6932 1.61395e-14)
(33.3279 -33.7541 1.54954e-14)
(35.3683 -35.3261 2.9748e-14)
(36.8702 -37.8894 -2.47684e-17)
(39.5706 -38.6561 4.31537e-16)
(39.5959 -42.704 0)