/*--------------------------------*- C++ -*----------------------------------*\
  =========                 |
  \\      /  F ield         | OpenFOAM: The Open Source CFD Toolbox
   \\    /   O peration     | Website:  https://openfoam.org
    \\  /    A nd           | Version:  10
     \\/     M anipulation  |
\*---------------------------------------------------------------------------*/
FoamFile
{
    format      ascii;
    class       volVectorField;
    location    "600";
    object      Urel;
}
// * * * * * * * * * * * * * * * * * * * * * * * * * * * * * * * * * * * * * //

dimensions      [0 1 -1 0 0 0 0];

internalField   nonuniform List<vector> 
420
(
(0.611969 -0.262454 5.13224e-18)
(-0.208481 1.15085 -4.36903e-17)
(0.239601 1.55083 -2.32666e-16)
(0.411863 1.69091 6.34523e-17)
(0.484026 1.57764 -4.42529e-16)
(0.422743 1.26408 0)
(0.263822 0.791771 0)
(0.112565 -0.00516466 5.45502e-16)
(0.0596213 -1.20015 -5.57648e-16)
(0.04324 -2.82642 0)
(0.709273 -0.487034 2.69022e-17)
(-0.233694 0.923143 -1.06834e-16)
(0.161934 1.371 7.15189e-16)
(0.326319 1.57326 -1.03071e-15)
(0.403831 1.57971 3.18873e-16)
(0.363465 1.42001 -1.73824e-18)
(0.309557 1.05727 2.77954e-15)
(0.265004 0.185536 -7.38848e-16)
(0.28743 -1.15303 1.24357e-15)
(0.379494 -2.8157 0)
(0.882776 -0.418206 8.50034e-17)
(-0.197 0.766641 -4.89936e-16)
(0.126704 1.22423 7.16629e-16)
(0.247282 1.47854 1.18839e-15)
(0.307501 1.59394 -7.81027e-16)
(0.297169 1.55334 3.70361e-15)
(0.358831 1.23287 1.65451e-15)
(0.421239 0.320235 4.85392e-15)
(0.534443 -1.06532 -1.93385e-15)
(0.768021 -2.7395 -3.93978e-15)
(0.978324 -0.333194 -2.61807e-17)
(-0.20774 0.63093 4.4629e-16)
(0.0837206 1.0736 -8.87105e-16)
(0.192333 1.35732 8.08262e-16)
(0.269344 1.55432 -1.54825e-15)
(0.332633 1.6029 1.67066e-15)
(0.498018 1.31629 -9.18047e-15)
(0.675767 0.435443 0)
(0.881368 -0.935389 -5.09431e-15)
(1.22427 -2.59102 4.03854e-15)
(1.0147 -0.272431 0)
(-0.244266 0.485652 3.41899e-16)
(0.0339643 0.901645 -3.27514e-16)
(0.160662 1.19762 0)
(0.284899 1.45279 -2.93055e-16)
(0.428989 1.58087 -2.78264e-16)
(0.688487 1.34885 2.95027e-15)
(0.975582 0.613765 -4.17658e-15)
(1.27414 -0.689327 0)
(1.69214 -2.30847 -1.59e-14)
(1.00833 -0.210276 3.85145e-18)
(-0.304705 0.327249 0)
(-0.0274689 0.692509 0)
(0.131703 0.977405 1.3677e-15)
(0.317336 1.25961 -2.08637e-15)
(0.558368 1.43477 2.24625e-15)
(0.889807 1.26097 5.73511e-16)
(1.25785 0.711329 8.2801e-15)
(1.62268 -0.427739 -1.18152e-14)
(2.0527 -1.92943 7.1354e-15)
(0.95426 -0.12631 0)
(-0.380934 0.163654 -3.43008e-16)
(-0.0962521 0.453194 -2.13545e-15)
(0.0871957 0.696754 -8.58636e-16)
(0.314966 0.96263 -3.56964e-15)
(0.61305 1.16376 2.20867e-15)
(0.980294 1.0766 -5.11354e-15)
(1.35716 0.650025 7.08198e-16)
(1.69123 -0.267862 -3.07928e-15)
(2.03661 -1.54798 -1.01518e-14)
(0.838064 -0.0109662 -6.9127e-18)
(-0.450834 0.00144348 3.40575e-16)
(-0.140837 0.203547 2.85314e-15)
(0.0573053 0.38115 5.65237e-16)
(0.28248 0.579504 2.22803e-15)
(0.558872 0.729019 0)
(0.865773 0.697447 5.39676e-15)
(1.1054 0.406965 6.62945e-15)
(1.28957 -0.225057 7.63797e-15)
(1.44011 -1.23382 7.63298e-15)
(0.637367 0.115099 -7.42041e-18)
(-0.493272 -0.124925 3.41147e-16)
(-0.17378 0.04981 -3.62485e-16)
(0.0201781 0.204896 -1.8e-15)
(0.211622 0.365065 5.50572e-15)
(0.402925 0.488894 7.25259e-15)
(0.560577 0.47782 -2.50003e-15)
(0.60842 0.290297 0)
(0.57647 -0.110453 0)
(0.533965 -1.01472 -8.92436e-15)
(0.321342 0.176619 7.91048e-17)
(-0.27304 -0.0929503 8.49103e-16)
(-0.0464165 -0.0742037 0)
(0.0302304 -0.0458686 0)
(0.0842459 -0.00865645 -3.66297e-15)
(0.142546 0.0590027 -4.22859e-17)
(0.192247 0.155169 6.42892e-15)
(0.224796 0.27109 -1.42216e-14)
(0.282338 0.250272 1.69668e-14)
(0.538703 -0.633505 1.27444e-15)
(0.118183 -4.7139 0)
(0.250641 -6.88066 0)
(0.478605 -9.28232 0)
(0.752881 -11.6809 -8.01008e-16)
(0.950831 -14.2523 0)
(0.854571 -17.4815 0)
(1.29172 -21.5539 8.71425e-16)
(3.5072 -24.0998 0)
(-4.21283 -22.1533 0)
(8.84726 -38.9335 0)
(0.588189 -4.72855 1.53612e-15)
(0.834738 -6.93081 2.51625e-15)
(1.20458 -9.35174 1.17496e-16)
(1.61729 -11.7169 9.05742e-16)
(1.98623 -14.2483 8.67517e-17)
(2.14599 -17.4099 1.20842e-15)
(2.74214 -21.4964 2.39628e-16)
(5.61279 -23.9593 4.77575e-17)
(-2.63547 -21.8537 -2.98277e-15)
(11.4372 -38.4179 -8.75933e-16)
(1.10418 -4.65385 1.45146e-15)
(1.45325 -6.88657 0)
(1.96556 -9.32047 -2.10095e-15)
(2.50147 -11.6562 -1.8669e-15)
(3.0287 -14.1555 5.6096e-15)
(3.44197 -17.2356 -1.1342e-15)
(4.24934 -21.298 1.98869e-15)
(7.3647 -23.6103 0)
(-0.659522 -22.0462 3.04563e-15)
(14.1209 -36.9503 -1.56679e-17)
(1.64703 -4.46029 3.32406e-15)
(2.0726 -6.71919 7.93912e-15)
(2.72747 -9.17087 -8.28657e-15)
(3.38981 -11.4832 3.30856e-15)
(4.08138 -13.9561 6.54334e-17)
(4.74725 -16.9621 0)
(5.8006 -20.9603 -1.96176e-15)
(8.98216 -23.1311 -3.76245e-15)
(1.02236 -22.1585 -2.97174e-15)
(16.7245 -35.3469 3.56449e-15)
(2.14574 -4.11182 2.97157e-15)
(2.6469 -6.41109 -2.52754e-15)
(3.45605 -8.88848 8.35458e-15)
(4.25047 -11.1979 -3.40853e-15)
(5.11244 -13.6557 3.00687e-15)
(6.02949 -16.5929 -4.57576e-15)
(7.33745 -20.4962 4.26076e-15)
(10.5897 -22.5131 3.94021e-15)
(2.73428 -22.1192 0)
(19.2314 -33.5342 -7.26461e-15)
(2.47103 -3.65985 3.38812e-15)
(3.0912 -6.02237 -1.48508e-14)
(4.09895 -8.51552 -4.30672e-15)
(5.04616 -10.8221 1.0343e-14)
(6.09552 -13.2706 9.01388e-15)
(7.27036 -16.1404 3.7667e-16)
(8.83787 -19.9288 1.33219e-16)
(12.1521 -21.7971 -3.47608e-15)
(4.44737 -21.9153 -2.54816e-15)
(21.6109 -31.5472 7.2343e-15)
(2.42181 -3.24568 3.38441e-15)
(3.32962 -5.69614 5.09471e-15)
(4.62403 -8.13955 0)
(5.75148 -10.409 -3.37261e-15)
(7.01289 -12.833 -5.45497e-15)
(8.45804 -15.6238 3.33169e-16)
(10.2856 -19.2732 -1.1287e-14)
(13.6699 -20.9886 -3.51039e-15)
(6.13312 -21.644 5.27751e-15)
(23.8634 -29.4172 -3.6088e-15)
(2.02437 -3.07908 1.30935e-14)
(3.47429 -5.60111 -4.75103e-15)
(5.09092 -7.84586 0)
(6.39301 -10.0068 -2.58137e-16)
(7.87322 -12.3706 2.23109e-14)
(9.5918 -15.062 -8.93275e-15)
(11.6757 -18.554 -7.55783e-15)
(15.1284 -20.1062 6.22011e-15)
(7.78198 -21.0576 -4.66889e-15)
(25.979 -27.1388 0)
(1.86647 -3.3328 3.7583e-16)
(3.80595 -5.67339 -4.81701e-15)
(5.56497 -7.57597 0)
(6.99949 -9.5901 6.77791e-15)
(8.66617 -11.8752 -1.62807e-14)
(10.6345 -14.4574 8.87337e-15)
(12.9669 -17.7805 3.59015e-15)
(16.4787 -19.1999 0)
(9.34221 -20.3341 3.82515e-16)
(27.9411 -24.6319 3.54714e-15)
(2.7357 -3.24606 4.79134e-16)
(4.37035 -5.47804 -5.18185e-17)
(6.00356 -7.12311 0)
(7.53741 -9.05271 -1.34139e-14)
(9.34156 -11.2761 5.16336e-15)
(11.4969 -13.7704 -4.53615e-15)
(14.0474 -16.9073 3.68155e-15)
(17.6252 -18.3714 -4.04319e-16)
(10.7343 -19.6498 -3.8194e-16)
(29.689 -21.8962 -3.48959e-15)
(4.19993 -2.22979 2.92442e-15)
(4.9315 -5.00657 -5.05095e-15)
(6.44874 -6.62552 0)
(8.10381 -8.52738 0)
(10.0508 -10.7046 0)
(12.3772 -13.1557 -2.12591e-15)
(15.1001 -16.1343 8.20972e-15)
(18.3944 -17.6368 0)
(12.0233 -20.1117 0)
(31.0553 -19.4129 0)
(4.2867 -2.26111 -2.81875e-15)
(5.11171 -4.61027 -4.83348e-15)
(6.66427 -6.22151 0)
(8.45785 -8.06594 3.32736e-15)
(10.543 -10.159 -2.54633e-15)
(13.0261 -12.5115 2.02712e-15)
(15.8502 -15.3358 2.90205e-15)
(19.0821 -16.5453 1.85485e-16)
(13.0623 -19.8386 9.57044e-16)
(31.9661 -18.135 0)
(3.86727 -2.6517 1.57068e-16)
(5.24996 -4.17918 6.51931e-17)
(6.88926 -5.78454 0)
(8.86444 -7.49544 1.56423e-16)
(11.1103 -9.43084 4.89157e-15)
(13.7761 -11.5982 -3.68096e-15)
(16.7447 -14.1503 -8.69095e-15)
(20.0039 -15.1426 -3.72929e-15)
(14.3008 -18.514 5.95574e-15)
(32.8628 -16.2367 3.07239e-15)
(3.41779 -2.73455 -1.22192e-14)
(5.22673 -4.01757 4.72192e-15)
(7.13047 -5.46377 0)
(9.29029 -7.04034 -6.10946e-15)
(11.6853 -8.84548 -4.85504e-15)
(14.5349 -10.8678 7.27035e-15)
(17.7319 -13.0984 2.5995e-15)
(20.8588 -14.2915 0)
(15.782 -17.0269 -3.26934e-15)
(33.9418 -13.5944 -4.3732e-16)
(3.63944 -2.7772 -2.63087e-16)
(5.42787 -3.80896 4.72651e-15)
(7.43863 -5.03481 0)
(9.71345 -6.41234 1.23131e-14)
(12.2306 -8.02771 8.41578e-17)
(15.2391 -9.88394 -4.16701e-17)
(18.6258 -11.8004 4.77465e-15)
(21.6075 -12.9898 -3.86295e-15)
(17.3227 -16.3238 -2.30285e-15)
(34.7883 -11.0839 0)
(3.90242 -2.63042 -2.86461e-15)
(5.66821 -3.50626 9.3107e-15)
(7.74353 -4.56269 7.63194e-15)
(10.104 -5.7492 -8.75137e-15)
(12.7181 -7.16905 -1.36293e-14)
(15.868 -8.84041 1.119e-16)
(19.4237 -10.4186 -2.4238e-15)
(22.2078 -11.5521 -1.70561e-15)
(18.8413 -15.0987 -2.43283e-15)
(35.5131 -8.61501 -3.08131e-15)
(4.11875 -2.34416 -8.43548e-15)
(5.90181 -3.11591 4.46347e-15)
(8.03441 -4.01975 -3.48662e-15)
(10.4566 -5.02258 -8.60194e-15)
(13.1414 -6.2535 6.7041e-15)
(16.4085 -7.73136 1.09126e-16)
(20.1079 -8.95964 4.92175e-15)
(22.7093 -10.0524 1.34388e-15)
(20.3536 -13.9164 1.06754e-15)
(36.1677 -5.76984 5.01701e-16)
(4.2694 -1.98817 2.47994e-15)
(6.09539 -2.65659 -2.24813e-15)
(8.28981 -3.40704 -5.04912e-17)
(10.7552 -4.22346 8.49298e-15)
(13.4831 -5.2645 -1.09011e-14)
(16.8456 -6.5432 3.30105e-15)
(20.6577 -7.44467 -2.285e-15)
(23.147 -8.50846 5.21825e-15)
(21.8041 -12.6128 0)
(36.6839 -2.95569 -2.0169e-16)
(4.35588 -1.60359 2.75212e-15)
(6.24979 -2.15043 2.24615e-15)
(8.50404 -2.73235 3.65289e-15)
(10.9864 -3.3531 -5.62774e-15)
(13.722 -4.20009 2.14632e-15)
(17.1434 -5.2753 0)
(21.0432 -5.89848 -1.26907e-15)
(23.466 -6.89266 -3.12359e-15)
(23.0038 -11.2153 2.60158e-16)
(37.0487 0.0828635 3.04014e-15)
(4.41334 -1.21629 1.26729e-15)
(6.39008 -1.61272 0)
(8.68677 -2.00652 1.83633e-15)
(11.159 -2.41918 1.48654e-15)
(13.8752 -3.06088 1.13333e-17)
(17.3087 -3.94436 -8.48462e-16)
(21.272 -4.30153 1.25673e-15)
(23.8671 -5.11702 0)
(23.9685 -9.98957 1.01109e-15)
(37.1444 3.4304 3.99327e-15)
(4.51858 -0.823938 1.41153e-15)
(6.56391 -1.02755 -2.33979e-15)
(8.87803 -1.18583 -8.78779e-17)
(11.3199 -1.34448 6.76686e-16)
(14.0089 -1.7015 -2.31401e-17)
(17.4619 -2.40699 8.32372e-16)
(21.4657 -2.41148 -1.38345e-15)
(24.4696 -2.79621 1.53346e-16)
(25.0069 -8.94139 1.778e-15)
(37.368 6.91834 -2.71399e-15)
(4.62484 -0.31846 2.08424e-29)
(6.72399 -0.328115 0)
(9.08637 -0.247986 0)
(11.4848 -0.0862184 -7.55095e-16)
(14.0587 -0.0091614 0)
(17.284 -0.328798 0)
(21.4059 0.0743506 7.31732e-16)
(23.8898 1.28565 0)
(22.7326 -6.35137 0)
(39.6529 4.67503 -1.27674e-29)
(1.26334 -0.867707 8.29566e-16)
(1.54972 -1.74601 -7.30086e-15)
(2.02854 -2.07782 6.88446e-15)
(2.43309 -2.0142 -9.17313e-15)
(2.68008 -1.77095 6.00071e-15)
(2.80798 -1.46283 -1.23931e-14)
(2.8374 -1.14251 3.09125e-15)
(2.81215 -0.856289 -3.34885e-15)
(2.80878 -0.618893 0)
(2.80926 -0.272698 -3.9962e-16)
(-0.373462 -0.750879 1.49135e-14)
(-0.0173069 -1.54306 0)
(0.632284 -1.75217 7.1105e-15)
(1.14756 -1.62036 -2.8087e-15)
(1.46501 -1.35754 -9.27755e-15)
(1.61351 -1.05039 0)
(1.62282 -0.753618 -3.45464e-15)
(1.54414 -0.51954 -1.59559e-15)
(1.43667 -0.384687 1.07149e-15)
(1.30225 -0.163141 -4.59571e-16)
(-1.10276 -0.74602 -1.23859e-14)
(-1.12996 -1.4661 0)
(-0.507461 -1.59265 6.54943e-15)
(0.0310053 -1.37524 4.82168e-16)
(0.404294 -1.06941 7.66972e-15)
(0.603268 -0.738059 -3.65418e-15)
(0.64623 -0.434354 0)
(0.57648 -0.210355 4.31801e-15)
(0.439209 -0.104369 -7.38175e-16)
(0.243077 -0.0188536 6.06474e-16)
(-1.02282 -0.702183 5.61867e-15)
(-1.69795 -1.35868 -2.32114e-15)
(-1.35062 -1.44887 5.38206e-15)
(-0.910813 -1.1595 -6.01239e-15)
(-0.523442 -0.804047 6.19796e-16)
(-0.272302 -0.465987 3.96666e-15)
(-0.171189 -0.16137 -1.25793e-14)
(-0.207098 0.0611413 2.02814e-15)
(-0.336651 0.183375 3.14641e-15)
(-0.528663 0.222423 8.70254e-17)
(-0.755696 -0.587408 -8.43381e-15)
(-1.65729 -1.16153 6.43314e-15)
(-1.80768 -1.22227 0)
(-1.62434 -0.948895 2.0758e-15)
(-1.35924 -0.579754 2.25607e-15)
(-1.12907 -0.225242 -2.78964e-16)
(-0.998802 0.0828265 1.79526e-15)
(-0.983834 0.301372 3.95606e-15)
(-1.042 0.42254 -2.30343e-18)
(-1.13857 0.446549 3.48808e-16)
(-0.499843 -0.427273 -3.39849e-15)
(-1.37269 -0.875107 4.81321e-15)
(-1.74766 -0.915666 1.83202e-15)
(-1.90041 -0.693939 -3.0428e-15)
(-1.86038 -0.369227 -1.82566e-15)
(-1.76552 -0.0359467 -2.31472e-16)
(-1.66896 0.246442 -3.37712e-15)
(-1.6102 0.438141 1.03616e-15)
(-1.59144 0.534879 3.16598e-16)
(-1.58661 0.536237 -3.48142e-16)
(-0.305588 -0.243577 0)
(-0.973312 -0.572283 -1.60082e-15)
(-1.43992 -0.568333 4.5766e-16)
(-1.7479 -0.402296 -7.06048e-16)
(-1.90143 -0.161645 1.15689e-15)
(-1.94784 0.0901304 0)
(-1.9447 0.30788 7.37039e-16)
(-1.91625 0.454516 1.11342e-15)
(-1.86745 0.515676 -9.83938e-16)
(-1.79586 0.493765 -2.96039e-17)
(-0.150027 -0.0744277 0)
(-0.581037 -0.258804 -3.5618e-16)
(-1.01387 -0.195198 2.54817e-15)
(-1.36125 -0.0777117 -1.84603e-15)
(-1.61348 0.0730687 0)
(-1.76094 0.227123 -2.92505e-16)
(-1.82515 0.354424 -7.9411e-16)
(-1.82977 0.428821 6.63183e-16)
(-1.78322 0.428424 6.61995e-16)
(-1.69827 0.353589 -2.6338e-16)
(-0.00920979 0.0113841 -9.3528e-16)
(-0.25872 -0.0188137 3.69318e-16)
(-0.607146 0.048861 3.54594e-16)
(-0.911385 0.0947617 -3.39158e-16)
(-1.14949 0.141981 0)
(-1.30941 0.177726 3.17312e-16)
(-1.39038 0.191729 3.96213e-16)
(-1.40246 0.175839 -4.37672e-16)
(-1.35295 0.109998 -9.4819e-17)
(-1.27497 -0.00896758 4.76202e-18)
(0.499298 0.42045 -2.89977e-16)
(0.704 0.739086 6.83546e-17)
(0.676924 0.818814 5.42569e-17)
(0.580622 0.829163 0)
(0.467578 0.848991 -1.7883e-17)
(0.362652 0.88561 0)
(0.276291 0.92486 -4.32409e-17)
(0.20589 0.949649 9.78788e-17)
(0.133989 0.931747 3.07411e-17)
(0.0542878 0.840191 -7.47697e-18)
)
;

boundaryField
{
    right
    {
        type            cyclic;
    }
    left
    {
        type            cyclic;
    }
    outerWall
    {
        type            noSlip;
    }
    stirrerWall
    {
        type            noSlip;
    }
    top
    {
        type            empty;
    }
    bottom
    {
        type            empty;
    }
}


// ************************************************************************* //
