/*--------------------------------*- C++ -*----------------------------------*\
  =========                 |
  \\      /  F ield         | OpenFOAM: The Open Source CFD Toolbox
   \\    /   O peration     | Website:  https://openfoam.org
    \\  /    A nd           | Version:  10
     \\/     M anipulation  |
\*---------------------------------------------------------------------------*/
FoamFile
{
    format      ascii;
    class       surfaceScalarField;
    location    "30000";
    object      phi;
}
// * * * * * * * * * * * * * * * * * * * * * * * * * * * * * * * * * * * * * //

dimensions      [0 3 -1 0 0 0 0];

internalField   nonuniform List<scalar> 
35536
(
-4.54696e-09
-3.36236e-07
-1.66812e-08
-2.0015e-07
-1.57338e-08
-1.91937e-07
-4.35039e-09
-1.79416e-07
1.67031e-08
-1.65197e-07
4.87254e-08
-1.49131e-07
9.42277e-08
-1.29655e-07
1.56989e-07
-1.0494e-07
2.42605e-07
-7.2816e-08
3.59989e-07
-3.08014e-08
5.21493e-07
2.42634e-08
7.38647e-07
9.67913e-08
1.0164e-06
1.91708e-07
1.34888e-06
3.1225e-07
1.71954e-06
4.57998e-07
2.10573e-06
6.23752e-07
2.48398e-06
8.01006e-07
2.83532e-06
9.80241e-07
3.14804e-06
1.15306e-06
3.41764e-06
1.31271e-06
3.64555e-06
1.45635e-06
3.83639e-06
1.5837e-06
3.99584e-06
1.69602e-06
4.1293e-06
1.79582e-06
4.24186e-06
1.88521e-06
4.33802e-06
1.96619e-06
4.42158e-06
2.04059e-06
4.49567e-06
2.10989e-06
4.56282e-06
2.17527e-06
4.62494e-06
2.2377e-06
4.68344e-06
2.29793e-06
4.73932e-06
2.35649e-06
4.79326e-06
2.41371e-06
4.84574e-06
2.46981e-06
4.89707e-06
2.52488e-06
4.94747e-06
2.57895e-06
4.99709e-06
2.63199e-06
5.046e-06
2.68394e-06
5.09427e-06
2.73468e-06
5.14192e-06
2.7841e-06
5.18894e-06
2.83204e-06
5.23532e-06
2.87835e-06
5.28102e-06
2.92281e-06
5.32601e-06
2.96524e-06
5.37023e-06
3.00541e-06
5.41363e-06
3.04307e-06
5.45612e-06
3.07795e-06
5.49765e-06
3.10978e-06
5.53812e-06
3.13825e-06
5.57743e-06
3.16302e-06
5.61549e-06
3.18375e-06
5.65218e-06
3.20005e-06
5.68739e-06
3.21152e-06
5.72098e-06
3.21772e-06
5.75281e-06
3.21817e-06
5.78273e-06
3.21237e-06
5.81056e-06
3.19977e-06
5.83613e-06
3.1798e-06
5.85924e-06
3.15183e-06
5.8797e-06
3.11518e-06
5.89726e-06
3.06914e-06
5.91169e-06
3.01293e-06
5.92274e-06
2.94573e-06
5.93013e-06
2.86666e-06
5.93358e-06
2.77476e-06
5.93276e-06
2.66904e-06
5.92737e-06
2.5484e-06
5.91706e-06
2.4117e-06
5.90146e-06
2.25771e-06
5.88021e-06
2.08512e-06
5.85291e-06
1.89255e-06
5.81914e-06
1.67853e-06
5.77848e-06
1.4415e-06
5.73046e-06
1.17982e-06
5.67624e-06
8.71206e-07
5.61764e-06
5.50217e-07
5.55509e-06
2.5406e-07
5.48894e-06
-1.86693e-08
5.4194e-06
-2.69368e-07
5.34694e-06
-4.99947e-07
5.27206e-06
-7.12021e-07
5.19504e-06
-9.06777e-07
5.11612e-06
-1.08523e-06
5.03547e-06
-1.2484e-06
4.95335e-06
-1.39729e-06
4.87022e-06
-1.53281e-06
4.78686e-06
-1.65567e-06
4.70429e-06
-1.76626e-06
4.6231e-06
-1.86466e-06
4.54298e-06
-1.95096e-06
4.46292e-06
-2.02594e-06
4.38211e-06
-2.09112e-06
4.30024e-06
-2.14792e-06
4.21736e-06
-2.1975e-06
4.13356e-06
-2.24061e-06
4.04895e-06
-2.2779e-06
3.96368e-06
-2.30991e-06
3.87791e-06
-2.33719e-06
3.79183e-06
-2.36021e-06
-2.37943e-06
-4.8107e-09
-3.31425e-07
-1.76623e-08
-1.87298e-07
-2.15337e-08
-1.88065e-07
-1.69468e-08
-1.84003e-07
-5.03617e-09
-1.77108e-07
1.46043e-08
-1.68772e-07
4.32048e-08
-1.58255e-07
8.26692e-08
-1.44404e-07
1.35609e-07
-1.25755e-07
2.05406e-07
-1.00598e-07
2.97021e-07
-6.7351e-08
4.18353e-07
-2.45404e-08
5.80078e-07
2.99833e-08
7.92544e-07
9.97843e-08
1.06144e-06
1.89102e-07
1.38385e-06
3.01338e-07
1.74741e-06
4.3745e-07
2.13353e-06
5.94117e-07
2.52156e-06
7.65035e-07
2.89217e-06
9.42101e-07
3.2314e-06
1.11712e-06
3.53174e-06
1.28336e-06
3.7915e-06
1.43626e-06
4.01316e-06
1.57416e-06
4.20134e-06
1.69703e-06
4.36085e-06
1.80668e-06
4.49631e-06
1.90513e-06
4.61223e-06
1.99397e-06
4.7125e-06
2.075e-06
4.80048e-06
2.14972e-06
4.87904e-06
2.21937e-06
4.95055e-06
2.28498e-06
5.01684e-06
2.34742e-06
5.07929e-06
2.40736e-06
5.13889e-06
2.46529e-06
5.19633e-06
2.52151e-06
5.25211e-06
2.57621e-06
5.30657e-06
2.62948e-06
5.35993e-06
2.68132e-06
5.41235e-06
2.73168e-06
5.46391e-06
2.78048e-06
5.51468e-06
2.82758e-06
5.56465e-06
2.87284e-06
5.61384e-06
2.91606e-06
5.6622e-06
2.95705e-06
5.70969e-06
2.99557e-06
5.75625e-06
3.03139e-06
5.80181e-06
3.06422e-06
5.84628e-06
3.09378e-06
5.88956e-06
3.11974e-06
5.93153e-06
3.14177e-06
5.97209e-06
3.1595e-06
6.01109e-06
3.17252e-06
6.0484e-06
3.18041e-06
6.08384e-06
3.18272e-06
6.11725e-06
3.17896e-06
6.14844e-06
3.16858e-06
6.17722e-06
3.15103e-06
6.20336e-06
3.12569e-06
6.22662e-06
3.09191e-06
6.24677e-06
3.04899e-06
6.26353e-06
2.99617e-06
6.27662e-06
2.93265e-06
6.28573e-06
2.85755e-06
6.29053e-06
2.76996e-06
6.2907e-06
2.66888e-06
6.28586e-06
2.55324e-06
6.27563e-06
2.42192e-06
6.25963e-06
2.27371e-06
6.23744e-06
2.10732e-06
6.20861e-06
1.92137e-06
6.17271e-06
1.71443e-06
6.12926e-06
1.48495e-06
6.07774e-06
1.23134e-06
6.0194e-06
9.29543e-07
5.95621e-06
6.1341e-07
5.88864e-06
3.21628e-07
5.81708e-06
5.28905e-08
5.74183e-06
-1.94117e-07
5.66328e-06
-4.21391e-07
5.58195e-06
-6.30691e-07
5.49823e-06
-8.23055e-07
5.41242e-06
-9.99422e-07
5.32476e-06
-1.16074e-06
5.23543e-06
-1.30795e-06
5.14461e-06
-1.44199e-06
5.05268e-06
-1.56375e-06
4.96035e-06
-1.67393e-06
4.86863e-06
-1.77294e-06
4.77848e-06
-1.86081e-06
4.69e-06
-1.93746e-06
4.60227e-06
-2.00338e-06
4.51415e-06
-2.0598e-06
4.42511e-06
-2.10846e-06
4.33517e-06
-2.15068e-06
4.24447e-06
-2.18719e-06
4.15315e-06
-2.2186e-06
4.0614e-06
-2.24544e-06
3.96941e-06
-2.26823e-06
-2.2874e-06
-4.27084e-09
-3.27154e-07
-1.56854e-08
-1.75883e-07
-2.29019e-08
-1.80848e-07
-2.43264e-08
-1.82578e-07
-2.04756e-08
-1.80958e-07
-1.11033e-08
-1.78144e-07
4.55487e-09
-1.73913e-07
2.77236e-08
-1.67572e-07
6.01086e-08
-1.5814e-07
1.03862e-07
-1.44351e-07
1.61462e-07
-1.24951e-07
2.35796e-07
-9.88744e-08
3.30853e-07
-6.50742e-08
4.52989e-07
-2.23511e-08
6.11277e-07
3.08144e-08
8.15412e-07
9.72023e-08
1.07194e-06
1.80918e-07
1.38076e-06
2.85296e-07
1.73376e-06
4.12042e-07
2.1162e-06
5.59656e-07
2.50974e-06
7.23588e-07
2.89589e-06
8.97211e-07
3.25909e-06
1.07306e-06
3.58893e-06
1.24432e-06
3.88054e-06
1.40542e-06
4.13411e-06
1.55311e-06
4.35269e-06
1.68655e-06
4.54056e-06
1.80609e-06
4.70179e-06
1.91377e-06
4.84043e-06
2.01109e-06
4.96044e-06
2.09936e-06
5.0653e-06
2.18012e-06
5.15807e-06
2.25465e-06
5.24142e-06
2.32401e-06
5.31759e-06
2.38912e-06
5.38832e-06
2.45078e-06
5.45495e-06
2.50958e-06
5.51847e-06
2.56596e-06
5.57957e-06
2.62021e-06
5.63877e-06
2.67248e-06
5.69642e-06
2.72284e-06
5.75274e-06
2.77126e-06
5.8079e-06
2.81768e-06
5.86198e-06
2.86198e-06
5.91503e-06
2.904e-06
5.96705e-06
2.94355e-06
6.01802e-06
2.98042e-06
6.06789e-06
3.01435e-06
6.11659e-06
3.04508e-06
6.16404e-06
3.0723e-06
6.21011e-06
3.0957e-06
6.2547e-06
3.11491e-06
6.29766e-06
3.12956e-06
6.33885e-06
3.13923e-06
6.37808e-06
3.14349e-06
6.41518e-06
3.14186e-06
6.44993e-06
3.13382e-06
6.48213e-06
3.11883e-06
6.51154e-06
3.09628e-06
6.5379e-06
3.06555e-06
6.56093e-06
3.02596e-06
6.58034e-06
2.97676e-06
6.59582e-06
2.91717e-06
6.60703e-06
2.84634e-06
6.61361e-06
2.76337e-06
6.6152e-06
2.66729e-06
6.61138e-06
2.55706e-06
6.60175e-06
2.43155e-06
6.58587e-06
2.2896e-06
6.56327e-06
2.12991e-06
6.53349e-06
1.95116e-06
6.49602e-06
1.7519e-06
6.45034e-06
1.53063e-06
6.39591e-06
1.28577e-06
6.33402e-06
9.91434e-07
6.26677e-06
6.80656e-07
6.1947e-06
3.937e-07
6.11821e-06
1.29372e-07
6.03771e-06
-1.13617e-07
5.95358e-06
-3.37262e-07
5.86629e-06
-5.43394e-07
5.77624e-06
-7.33013e-07
5.68383e-06
-9.07012e-07
5.58938e-06
-1.06628e-06
5.49312e-06
-1.21169e-06
5.39524e-06
-1.34412e-06
5.29593e-06
-1.46443e-06
5.19547e-06
-1.57348e-06
5.09446e-06
-1.67193e-06
4.99387e-06
-1.76021e-06
4.89478e-06
-1.83837e-06
4.79769e-06
-1.90629e-06
4.70195e-06
-1.96406e-06
4.60627e-06
-2.01278e-06
4.5099e-06
-2.05432e-06
4.41282e-06
-2.09011e-06
4.3152e-06
-2.12097e-06
4.21723e-06
-2.14748e-06
4.11915e-06
-2.17014e-06
-2.18941e-06
-3.8569e-09
-3.23297e-07
-1.3537e-08
-1.66203e-07
-2.20519e-08
-1.72333e-07
-2.73651e-08
-1.77264e-07
-2.93947e-08
-1.78928e-07
-2.78526e-08
-1.79685e-07
-2.21902e-08
-1.79575e-07
-1.15348e-08
-1.78227e-07
5.37902e-09
-1.75054e-07
3.02307e-08
-1.69203e-07
6.49538e-08
-1.59674e-07
1.11607e-07
-1.45528e-07
1.72374e-07
-1.25841e-07
2.49701e-07
-9.96781e-08
3.46649e-07
-6.61331e-08
4.68091e-07
-2.42402e-08
6.21661e-07
2.73492e-08
8.16193e-07
9.0764e-08
1.05889e-06
1.6934e-07
1.35217e-06
2.66381e-07
1.69157e-06
3.84191e-07
2.06606e-06
5.22721e-07
2.46007e-06
6.79048e-07
2.85642e-06
8.4797e-07
3.23891e-06
1.02292e-06
3.59501e-06
1.19701e-06
3.917e-06
1.36456e-06
4.20204e-06
1.52106e-06
4.45162e-06
1.66419e-06
4.66905e-06
1.79367e-06
4.8579e-06
1.9105e-06
5.02172e-06
2.0163e-06
5.1642e-06
2.11217e-06
5.2888e-06
2.19941e-06
5.39861e-06
2.27931e-06
5.49647e-06
2.35292e-06
5.58488e-06
2.42118e-06
5.66592e-06
2.48492e-06
5.74128e-06
2.54485e-06
5.81225e-06
2.60151e-06
5.8798e-06
2.65529e-06
5.94463e-06
2.70643e-06
6.00724e-06
2.75506e-06
6.068e-06
2.80122e-06
6.12713e-06
2.84487e-06
6.18479e-06
2.88589e-06
6.24106e-06
2.92415e-06
6.29597e-06
2.95944e-06
6.3495e-06
2.99155e-06
6.40161e-06
3.02019e-06
6.45221e-06
3.04509e-06
6.50121e-06
3.06591e-06
6.54847e-06
3.08229e-06
6.59385e-06
3.09385e-06
6.63718e-06
3.10017e-06
6.67826e-06
3.10078e-06
6.71688e-06
3.0952e-06
6.75281e-06
3.08289e-06
6.7858e-06
3.06329e-06
6.81558e-06
3.03578e-06
6.84185e-06
2.99969e-06
6.86429e-06
2.95432e-06
6.88256e-06
2.8989e-06
6.89629e-06
2.83261e-06
6.9051e-06
2.75456e-06
6.90858e-06
2.66381e-06
6.90629e-06
2.55935e-06
6.89777e-06
2.44008e-06
6.88254e-06
2.30483e-06
6.86009e-06
2.15236e-06
6.82991e-06
1.98134e-06
6.79144e-06
1.79037e-06
6.74411e-06
1.57796e-06
6.68733e-06
1.34256e-06
6.62243e-06
1.05633e-06
6.55166e-06
7.51428e-07
6.4756e-06
4.69757e-07
6.39471e-06
2.10265e-07
6.30938e-06
-2.82842e-08
6.22005e-06
-2.47935e-07
6.12718e-06
-4.50517e-07
6.03117e-06
-6.37011e-07
5.93245e-06
-8.08287e-07
5.83137e-06
-9.65202e-07
5.72826e-06
-1.10858e-06
5.62339e-06
-1.23925e-06
5.51696e-06
-1.35801e-06
5.40916e-06
-1.46568e-06
5.30027e-06
-1.56304e-06
5.19079e-06
-1.65073e-06
5.08157e-06
-1.72916e-06
4.97368e-06
-1.7984e-06
4.86789e-06
-1.85827e-06
4.76386e-06
-1.90875e-06
4.66034e-06
-1.9508e-06
4.55649e-06
-1.98625e-06
4.45223e-06
-2.01672e-06
4.3478e-06
-2.04305e-06
4.24343e-06
-2.06577e-06
4.13934e-06
-2.08532e-06
4.03574e-06
-2.10207e-06
3.93286e-06
-2.11634e-06
3.83091e-06
-2.1284e-06
-2.13845e-06
-3.46496e-09
-3.19832e-07
-1.17615e-08
-1.57906e-07
-2.01239e-08
-1.6397e-07
-2.69881e-08
-1.70399e-07
-3.21278e-08
-1.73788e-07
-3.52708e-08
-1.76542e-07
-3.60354e-08
-1.7881e-07
-3.38474e-08
-1.80416e-07
-2.78429e-08
-1.81058e-07
-1.67776e-08
-1.80269e-07
9.14194e-10
-1.77366e-07
2.69553e-08
-1.71569e-07
6.31827e-08
-1.62069e-07
1.11535e-07
-1.48031e-07
1.73982e-07
-1.2858e-07
2.5257e-07
-1.02828e-07
3.49845e-07
-6.99254e-08
4.69638e-07
-2.90295e-08
6.17981e-07
2.0998e-08
8.02631e-07
8.1731e-08
1.03111e-06
1.55715e-07
1.30775e-06
2.46081e-07
1.63119e-06
3.55603e-07
1.99379e-06
4.85372e-07
2.38306e-06
6.33651e-07
2.78353e-06
7.96546e-07
3.17948e-06
9.68603e-07
3.55699e-06
1.14356e-06
3.90605e-06
1.31512e-06
4.22122e-06
1.4785e-06
4.50139e-06
1.63033e-06
4.74866e-06
1.76904e-06
4.96614e-06
1.89469e-06
5.15683e-06
2.00872e-06
5.32387e-06
2.11227e-06
5.47063e-06
2.20616e-06
5.60009e-06
2.29172e-06
5.71506e-06
2.36995e-06
5.81816e-06
2.44176e-06
5.91171e-06
2.50795e-06
5.99771e-06
2.56929e-06
6.07775e-06
2.62639e-06
6.15306e-06
2.67975e-06
6.22459e-06
2.7297e-06
6.29302e-06
2.77644e-06
6.35885e-06
2.82006e-06
6.42243e-06
2.86057e-06
6.48398e-06
2.89789e-06
6.54365e-06
2.93188e-06
6.60149e-06
2.96235e-06
6.65751e-06
2.98907e-06
6.71167e-06
3.01175e-06
6.76388e-06
3.03008e-06
6.81403e-06
3.04371e-06
6.86195e-06
3.05224e-06
6.90749e-06
3.05525e-06
6.95041e-06
3.05227e-06
6.99051e-06
3.0428e-06
7.02751e-06
3.02629e-06
7.06113e-06
3.00216e-06
7.09106e-06
2.96976e-06
7.11696e-06
2.92841e-06
7.13848e-06
2.87738e-06
7.15521e-06
2.81587e-06
7.16674e-06
2.74303e-06
7.17262e-06
2.65793e-06
7.17238e-06
2.55959e-06
7.16551e-06
2.44694e-06
7.15149e-06
2.31885e-06
7.12977e-06
2.17409e-06
7.09975e-06
2.01135e-06
7.06084e-06
1.82927e-06
7.01242e-06
1.62638e-06
6.95382e-06
1.40116e-06
6.88644e-06
1.12371e-06
6.81261e-06
8.25252e-07
6.73303e-06
5.49344e-07
6.6482e-06
2.95095e-07
6.55849e-06
6.14273e-08
6.46433e-06
-1.53778e-07
6.36619e-06
-3.52375e-07
6.2645e-06
-5.35327e-07
6.1597e-06
-7.0348e-07
6.05216e-06
-8.57663e-07
5.94225e-06
-9.98675e-07
5.8303e-06
-1.12729e-06
5.71659e-06
-1.2443e-06
5.60136e-06
-1.35045e-06
5.48485e-06
-1.44653e-06
5.36736e-06
-1.53324e-06
5.24938e-06
-1.61117e-06
5.13167e-06
-1.68069e-06
5.01526e-06
-1.74186e-06
4.90099e-06
-1.79448e-06
4.78872e-06
-1.83852e-06
4.67734e-06
-1.87487e-06
4.56605e-06
-1.90543e-06
4.45487e-06
-1.93187e-06
4.34401e-06
-1.95492e-06
4.23368e-06
-1.97499e-06
4.12408e-06
-1.99247e-06
4.01541e-06
-2.00767e-06
3.90787e-06
-2.02086e-06
-2.03225e-06
-3.2449e-09
-3.16587e-07
-1.07546e-08
-1.50396e-07
-1.85944e-08
-1.56129e-07
-2.5676e-08
-1.63317e-07
-3.18981e-08
-1.67566e-07
-3.71133e-08
-1.71327e-07
-4.11047e-08
-1.74819e-07
-4.35468e-08
-1.77974e-07
-4.39481e-08
-1.80658e-07
-4.15656e-08
-1.82651e-07
-3.53241e-08
-1.83608e-07
-2.38722e-08
-1.83021e-07
-5.66809e-09
-1.80273e-07
2.09804e-08
-1.74679e-07
5.78736e-08
-1.65473e-07
1.06864e-07
-1.51819e-07
1.69806e-07
-1.32868e-07
2.48534e-07
-1.07757e-07
3.45198e-07
-7.56666e-08
4.62764e-07
-3.58356e-08
6.05812e-07
1.26674e-08
7.80918e-07
7.09751e-08
9.9558e-07
1.40941e-07
1.25531e-06
2.25647e-07
1.56115e-06
3.27806e-07
1.90866e-06
4.49041e-07
2.2884e-06
5.88856e-07
2.68725e-06
7.44712e-07
3.09027e-06
9.12096e-07
3.48333e-06
1.08544e-06
3.85485e-06
1.25881e-06
4.19703e-06
1.42686e-06
4.50614e-06
1.58558e-06
4.78251e-06
1.73235e-06
5.02852e-06
1.86625e-06
5.24686e-06
1.98783e-06
5.43997e-06
2.09861e-06
5.61068e-06
2.19923e-06
5.76192e-06
2.29052e-06
5.89635e-06
2.37353e-06
6.01653e-06
2.4491e-06
6.1249e-06
2.51803e-06
6.22361e-06
2.58104e-06
6.31451e-06
2.63879e-06
6.39912e-06
2.69183e-06
6.4786e-06
2.74058e-06
6.55385e-06
2.78532e-06
6.62554e-06
2.8262e-06
6.69414e-06
2.86328e-06
6.75997e-06
2.89652e-06
6.82325e-06
2.92579e-06
6.88408e-06
2.95092e-06
6.9425e-06
2.97166e-06
6.99847e-06
2.98774e-06
7.05192e-06
2.9988e-06
7.1027e-06
3.00447e-06
7.15065e-06
3.00432e-06
7.19555e-06
2.9979e-06
7.23716e-06
2.98468e-06
7.2752e-06
2.96412e-06
7.30934e-06
2.93561e-06
7.33926e-06
2.8985e-06
7.36456e-06
2.85208e-06
7.38483e-06
2.7956e-06
7.39963e-06
2.72823e-06
7.40848e-06
2.64909e-06
7.41085e-06
2.55721e-06
7.40622e-06
2.45158e-06
7.39399e-06
2.33108e-06
7.37356e-06
2.19452e-06
7.34428e-06
2.04063e-06
7.3055e-06
1.86805e-06
7.25652e-06
1.67536e-06
7.19662e-06
1.46105e-06
7.12721e-06
1.19312e-06
7.05075e-06
9.01708e-07
6.96803e-06
6.32068e-07
6.87967e-06
3.83455e-07
6.78606e-06
1.55042e-07
6.6875e-06
-5.52204e-08
6.58443e-06
-2.49306e-07
6.47732e-06
-4.2822e-07
6.36663e-06
-5.92785e-07
6.25276e-06
-7.438e-07
6.13612e-06
-8.82031e-07
6.01705e-06
-1.00823e-06
5.89589e-06
-1.12314e-06
5.77294e-06
-1.22751e-06
5.64851e-06
-1.3221e-06
5.52292e-06
-1.40764e-06
5.39656e-06
-1.48482e-06
5.27002e-06
-1.55415e-06
5.14408e-06
-1.61591e-06
5.01968e-06
-1.67009e-06
4.89762e-06
-1.71647e-06
4.77776e-06
-1.75501e-06
4.65905e-06
-1.78672e-06
4.54093e-06
-1.81376e-06
4.42349e-06
-1.83748e-06
4.30686e-06
-1.85836e-06
4.19119e-06
-1.87679e-06
4.07665e-06
-1.89313e-06
3.96344e-06
-1.90765e-06
-1.92057e-06
-3.06094e-09
-3.13526e-07
-9.97655e-09
-1.43479e-07
-1.71263e-08
-1.48979e-07
-2.37495e-08
-1.56694e-07
-2.98898e-08
-1.61426e-07
-3.55364e-08
-1.65681e-07
-4.06054e-08
-1.6975e-07
-4.49432e-08
-1.73636e-07
-4.8309e-08
-1.77292e-07
-5.03337e-08
-1.80627e-07
-5.04492e-08
-1.83492e-07
-4.78189e-08
-1.85651e-07
-4.13426e-08
-1.86749e-07
-2.97102e-08
-1.86311e-07
-1.14146e-08
-1.83769e-07
1.52398e-08
-1.78474e-07
5.20489e-08
-1.69677e-07
1.00841e-07
-1.5655e-07
1.63423e-07
-1.38249e-07
2.41513e-07
-1.13926e-07
3.36957e-07
-8.27758e-08
4.5203e-07
-4.40979e-08
5.90182e-07
2.78933e-09
7.56847e-07
5.89815e-08
9.5874e-07
1.25913e-07
1.20195e-06
2.05835e-07
1.48947e-06
3.01328e-07
1.81964e-06
4.14546e-07
2.18577e-06
5.45962e-07
2.57728e-06
6.93937e-07
2.98096e-06
8.5512e-07
3.38305e-06
1.02477e-06
3.77112e-06
1.19751e-06
4.13572e-06
1.36775e-06
4.47092e-06
1.53105e-06
4.77453e-06
1.68422e-06
5.04795e-06
1.8252e-06
5.29344e-06
1.95373e-06
5.51303e-06
2.07094e-06
5.70886e-06
2.1777e-06
5.88354e-06
2.27442e-06
6.03943e-06
2.36215e-06
6.17888e-06
2.44159e-06
6.30425e-06
2.51342e-06
6.41777e-06
2.5783e-06
6.52148e-06
2.63688e-06
6.61706e-06
2.68973e-06
6.70592e-06
2.73734e-06
6.78917e-06
2.78004e-06
6.86762e-06
2.81806e-06
6.94192e-06
2.85149e-06
7.01249e-06
2.88035e-06
7.07963e-06
2.90452e-06
7.14351e-06
2.92386e-06
7.2042e-06
2.93811e-06
7.26169e-06
2.94698e-06
7.31591e-06
2.9501e-06
7.36672e-06
2.94709e-06
7.4139e-06
2.93749e-06
7.45722e-06
2.9208e-06
7.49638e-06
2.89645e-06
7.53104e-06
2.86384e-06
7.56083e-06
2.8223e-06
7.58533e-06
2.77111e-06
7.60406e-06
2.7095e-06
7.61653e-06
2.63662e-06
7.62217e-06
2.55157e-06
7.6204e-06
2.45334e-06
7.6106e-06
2.34088e-06
7.59208e-06
2.21303e-06
7.56415e-06
2.06856e-06
7.52607e-06
1.90613e-06
7.47709e-06
1.72435e-06
7.41641e-06
1.52174e-06
7.34543e-06
1.26409e-06
7.26675e-06
9.80397e-07
7.18124e-06
7.17578e-07
7.08969e-06
4.74998e-07
6.99262e-06
2.52119e-07
6.89009e-06
4.73038e-08
6.78245e-06
-1.41664e-07
6.67019e-06
-3.15959e-07
6.5538e-06
-4.76392e-07
6.43372e-06
-6.23725e-07
6.31039e-06
-7.58694e-07
6.18418e-06
-8.82016e-07
6.05546e-06
-9.94416e-07
5.92459e-06
-1.09664e-06
5.79195e-06
-1.18946e-06
5.65794e-06
-1.27364e-06
5.52306e-06
-1.34994e-06
5.38788e-06
-1.41898e-06
5.25315e-06
-1.48117e-06
5.11968e-06
-1.53662e-06
4.98834e-06
-1.58513e-06
4.8597e-06
-1.62637e-06
4.73335e-06
-1.66037e-06
4.60827e-06
-1.68868e-06
4.48416e-06
-1.71336e-06
4.36107e-06
-1.73527e-06
4.23913e-06
-1.75485e-06
4.11848e-06
-1.77249e-06
3.99934e-06
-1.7885e-06
3.8819e-06
-1.80313e-06
-1.81652e-06
-2.8614e-09
-3.10664e-07
-9.11506e-09
-1.37225e-07
-1.53429e-08
-1.42751e-07
-2.10561e-08
-1.50981e-07
-2.64022e-08
-1.5608e-07
-3.14743e-08
-1.60609e-07
-3.62797e-08
-1.64945e-07
-4.07674e-08
-1.69148e-07
-4.48358e-08
-1.73223e-07
-4.83221e-08
-1.7714e-07
-5.09752e-08
-1.80839e-07
-5.24035e-08
-1.84223e-07
-5.20164e-08
-1.87136e-07
-4.89912e-08
-1.89337e-07
-4.22713e-08
-1.90489e-07
-3.05754e-08
-1.9017e-07
-1.24174e-08
-1.87835e-07
1.38942e-08
-1.82861e-07
5.01564e-08
-1.74511e-07
9.82106e-08
-1.6198e-07
1.59848e-07
-1.44413e-07
2.36716e-07
-1.20966e-07
3.30342e-07
-9.08363e-08
4.4263e-07
-5.3307e-08
5.76296e-07
-7.75364e-09
7.35432e-07
4.67001e-08
9.25644e-07
1.11116e-07
1.1532e-06
1.86991e-07
1.42237e-06
2.7679e-07
1.73358e-06
3.82726e-07
2.08284e-06
5.05862e-07
2.46217e-06
6.45437e-07
2.86044e-06
7.99241e-07
3.26483e-06
9.6336e-07
3.66287e-06
1.133e-06
4.044e-06
1.30309e-06
4.40069e-06
1.46851e-06
4.72875e-06
1.62567e-06
5.02762e-06
1.77207e-06
5.29897e-06
1.90635e-06
5.54458e-06
2.02882e-06
5.76584e-06
2.14088e-06
5.96473e-06
2.24271e-06
6.14334e-06
2.33481e-06
6.30373e-06
2.41791e-06
6.44804e-06
2.49258e-06
6.57838e-06
2.55939e-06
6.69681e-06
2.61891e-06
6.80514e-06
2.67171e-06
6.90492e-06
2.71827e-06
6.99744e-06
2.75898e-06
7.08369e-06
2.79409e-06
7.16445e-06
2.82377e-06
7.24027e-06
2.84803e-06
7.31155e-06
2.86683e-06
7.37853e-06
2.88e-06
7.44135e-06
2.88728e-06
7.50004e-06
2.8884e-06
7.5545e-06
2.88304e-06
7.60456e-06
2.87073e-06
7.65002e-06
2.851e-06
7.69057e-06
2.82328e-06
7.72589e-06
2.78699e-06
7.75556e-06
2.74144e-06
7.77912e-06
2.68593e-06
7.79606e-06
2.61969e-06
7.80578e-06
2.54185e-06
7.80766e-06
2.45146e-06
7.80102e-06
2.34752e-06
7.78514e-06
2.22892e-06
7.75924e-06
2.09445e-06
7.72253e-06
1.94284e-06
7.67415e-06
1.77272e-06
7.61326e-06
1.58263e-06
7.54123e-06
1.33612e-06
7.46074e-06
1.06089e-06
7.3728e-06
8.05518e-07
7.27835e-06
5.69444e-07
7.17806e-06
3.52414e-07
7.0719e-06
1.53469e-07
6.96004e-06
-2.98133e-08
6.84295e-06
-1.98863e-07
6.72109e-06
-3.54533e-07
6.59494e-06
-4.97574e-07
6.46495e-06
-6.28709e-07
6.33158e-06
-7.4864e-07
6.19526e-06
-8.58095e-07
6.05646e-06
-9.57842e-07
5.91568e-06
-1.04868e-06
5.77343e-06
-1.13139e-06
5.63024e-06
-1.20675e-06
5.48675e-06
-1.27549e-06
5.34368e-06
-1.33811e-06
5.20185e-06
-1.39479e-06
5.06209e-06
-1.44536e-06
4.92508e-06
-1.48935e-06
4.79097e-06
-1.52626e-06
4.65885e-06
-1.55656e-06
4.52786e-06
-1.58237e-06
4.39796e-06
-1.60536e-06
4.26928e-06
-1.62617e-06
4.14205e-06
-1.64526e-06
4.0165e-06
-1.66295e-06
3.89288e-06
-1.6795e-06
3.77143e-06
-1.69508e-06
3.65241e-06
-1.70975e-06
-1.72356e-06
-2.64017e-09
-3.08024e-07
-8.13675e-09
-1.31729e-07
-1.32801e-08
-1.37609e-07
-1.78386e-08
-1.46423e-07
-2.20311e-08
-1.51887e-07
-2.6014e-08
-1.56625e-07
-2.98485e-08
-1.6111e-07
-3.35408e-08
-1.65456e-07
-3.70613e-08
-1.69702e-07
-4.03479e-08
-1.73853e-07
-4.32992e-08
-1.77887e-07
-4.57574e-08
-1.81765e-07
-4.74732e-08
-1.85421e-07
-4.80537e-08
-1.88756e-07
-4.69267e-08
-1.91616e-07
-4.33307e-08
-1.93766e-07
-3.62717e-08
-1.94894e-07
-2.45203e-08
-1.94613e-07
-6.61264e-09
-1.92419e-07
1.91069e-08
-1.877e-07
5.44436e-08
-1.7975e-07
1.01264e-07
-1.67786e-07
1.61375e-07
-1.50948e-07
2.36435e-07
-1.28367e-07
3.27904e-07
-9.92235e-08
4.37388e-07
-6.27835e-08
5.66971e-07
-1.84662e-08
7.19649e-07
3.43137e-08
8.99908e-07
9.65316e-08
1.11334e-06
1.6929e-07
1.36486e-06
2.54343e-07
1.6566e-06
3.53701e-07
1.98685e-06
4.68985e-07
2.35e-06
6.00219e-07
2.73721e-06
7.45793e-07
3.13741e-06
9.02891e-07
3.53856e-06
1.06735e-06
3.92972e-06
1.23451e-06
4.30228e-06
1.39951e-06
4.65041e-06
1.55822e-06
4.97136e-06
1.70786e-06
5.26599e-06
1.84625e-06
5.53576e-06
1.97294e-06
5.7816e-06
2.08896e-06
6.00473e-06
2.19478e-06
6.20675e-06
2.29055e-06
6.38925e-06
2.37688e-06
6.554e-06
2.45417e-06
6.70287e-06
2.52284e-06
6.83778e-06
2.58336e-06
6.96055e-06
2.63621e-06
7.07279e-06
2.68185e-06
7.1759e-06
2.72066e-06
7.27102e-06
2.75292e-06
7.35905e-06
2.7788e-06
7.44067e-06
2.79837e-06
7.51648e-06
2.81146e-06
7.5867e-06
2.81819e-06
7.65147e-06
2.81827e-06
7.71088e-06
2.81132e-06
7.76487e-06
2.79701e-06
7.81327e-06
2.77489e-06
7.8558e-06
2.74445e-06
7.89217e-06
2.70507e-06
7.92196e-06
2.65614e-06
7.94462e-06
2.59703e-06
7.95957e-06
2.5269e-06
7.96617e-06
2.44486e-06
7.9637e-06
2.34999e-06
7.95138e-06
2.24123e-06
7.9284e-06
2.11743e-06
7.89387e-06
1.97737e-06
7.84687e-06
1.81972e-06
7.78645e-06
1.64305e-06
7.71394e-06
1.40863e-06
7.63208e-06
1.14275e-06
7.54202e-06
8.95582e-07
7.44483e-06
6.66626e-07
7.34141e-06
4.55834e-07
7.23191e-06
2.62971e-07
7.11624e-06
8.58568e-08
6.99466e-06
-7.72856e-08
6.86761e-06
-2.27475e-07
6.73555e-06
-3.65524e-07
6.59905e-06
-4.92208e-07
6.4587e-06
-6.08288e-07
6.31511e-06
-7.14508e-07
6.16894e-06
-8.11669e-07
6.02087e-06
-9.00605e-07
5.87147e-06
-9.81993e-07
5.72121e-06
-1.05648e-06
5.57048e-06
-1.12476e-06
5.41976e-06
-1.18739e-06
5.26968e-06
-1.24472e-06
5.12109e-06
-1.29676e-06
4.97489e-06
-1.34316e-06
4.83187e-06
-1.38324e-06
4.69183e-06
-1.41652e-06
4.55347e-06
-1.44401e-06
4.41619e-06
-1.46808e-06
4.28024e-06
-1.49022e-06
4.14591e-06
-1.51093e-06
4.01352e-06
-1.53056e-06
3.88336e-06
-1.54935e-06
3.75573e-06
-1.56744e-06
3.63087e-06
-1.5849e-06
3.50902e-06
-1.6017e-06
-1.61781e-06
-2.41899e-09
-3.05605e-07
-7.10464e-09
-1.27044e-07
-1.10989e-08
-1.33614e-07
-1.44288e-08
-1.43093e-07
-1.73689e-08
-1.48946e-07
-2.00991e-08
-1.53895e-07
-2.27021e-08
-1.58507e-07
-2.52102e-08
-1.62947e-07
-2.76277e-08
-1.67285e-07
-2.99387e-08
-1.71543e-07
-3.21075e-08
-1.75719e-07
-3.40745e-08
-1.79798e-07
-3.57457e-08
-1.8375e-07
-3.69725e-08
-1.8753e-07
-3.75169e-08
-1.91071e-07
-3.70083e-08
-1.94274e-07
-3.49175e-08
-1.96985e-07
-3.05458e-08
-1.98984e-07
-2.29801e-08
-1.99984e-07
-1.10537e-08
-1.99626e-07
6.65991e-09
-1.97463e-07
3.17834e-08
-1.92909e-07
6.61215e-08
-1.85286e-07
1.11567e-07
-1.73812e-07
1.69983e-07
-1.57639e-07
2.43086e-07
-1.35887e-07
3.32345e-07
-1.07726e-07
4.39065e-07
-7.24058e-08
5.64912e-07
-2.9316e-08
7.12173e-07
2.20284e-08
8.84105e-07
8.24111e-08
1.0851e-06
1.52705e-07
1.32024e-06
2.33847e-07
1.59281e-06
3.27647e-07
1.90289e-06
4.35713e-07
2.24709e-06
5.58694e-07
2.61878e-06
6.95662e-07
3.00875e-06
8.44537e-07
3.40623e-06
1.00203e-06
3.80042e-06
1.16403e-06
4.18204e-06
1.32624e-06
4.54432e-06
1.48397e-06
4.88315e-06
1.63411e-06
5.19773e-06
1.77438e-06
5.48895e-06
1.90356e-06
5.75746e-06
2.02205e-06
6.00374e-06
2.1306e-06
6.22881e-06
2.2291e-06
6.43367e-06
2.31798e-06
6.6196e-06
2.39743e-06
6.7881e-06
2.46771e-06
6.94081e-06
2.52914e-06
7.07941e-06
2.58206e-06
7.20548e-06
2.62684e-06
7.32048e-06
2.66381e-06
7.42565e-06
2.6932e-06
7.5218e-06
2.71531e-06
7.60972e-06
2.73027e-06
7.6902e-06
2.73778e-06
7.7636e-06
2.73792e-06
7.83009e-06
2.73052e-06
7.88972e-06
2.71526e-06
7.94239e-06
2.69178e-06
7.98806e-06
2.6594e-06
8.02638e-06
2.61783e-06
8.05679e-06
2.56662e-06
8.07878e-06
2.50491e-06
8.09174e-06
2.4319e-06
8.09493e-06
2.34681e-06
8.08754e-06
2.24862e-06
8.06872e-06
2.13625e-06
8.03752e-06
2.00858e-06
7.99292e-06
1.86432e-06
7.93388e-06
1.70208e-06
7.86163e-06
1.48088e-06
7.77894e-06
1.22544e-06
7.68704e-06
9.87484e-07
7.58717e-06
7.66492e-07
7.48057e-06
5.62435e-07
7.36793e-06
3.75607e-07
7.24886e-06
2.04932e-07
7.12324e-06
4.8334e-08
6.99141e-06
-9.56424e-08
6.85392e-06
-2.28037e-07
6.71152e-06
-3.49807e-07
6.56513e-06
-4.61898e-07
6.41559e-06
-5.64971e-07
6.2636e-06
-6.59678e-07
6.10975e-06
-7.46753e-07
5.95452e-06
-8.26759e-07
5.7982e-06
-9.00163e-07
5.64091e-06
-9.67472e-07
5.4828e-06
-1.02927e-06
5.32419e-06
-1.08611e-06
5.16575e-06
-1.13833e-06
5.00856e-06
-1.18597e-06
4.85402e-06
-1.2287e-06
4.70333e-06
-1.26582e-06
4.55622e-06
-1.2969e-06
4.41125e-06
-1.32312e-06
4.2679e-06
-1.34686e-06
4.12647e-06
-1.3695e-06
3.98732e-06
-1.39142e-06
3.8508e-06
-1.41282e-06
3.71718e-06
-1.43383e-06
3.58675e-06
-1.45446e-06
3.45973e-06
-1.47468e-06
3.3363e-06
-1.49438e-06
3.21662e-06
-1.51344e-06
-1.5317e-06
-2.21335e-09
-3.03392e-07
-6.07889e-09
-1.23179e-07
-8.89453e-09
-1.30798e-07
-1.10428e-08
-1.40944e-07
-1.27986e-08
-1.47191e-07
-1.43297e-08
-1.52364e-07
-1.57167e-08
-1.5712e-07
-1.69967e-08
-1.61668e-07
-1.81849e-08
-1.66097e-07
-1.92833e-08
-1.70445e-07
-2.02828e-08
-1.7472e-07
-2.11632e-08
-1.78918e-07
-2.18899e-08
-1.83023e-07
-2.24079e-08
-1.87011e-07
-2.26308e-08
-1.90848e-07
-2.24198e-08
-1.94485e-07
-2.15511e-08
-1.97854e-07
-1.96824e-08
-2.00853e-07
-1.63327e-08
-2.03334e-07
-1.08648e-08
-2.05094e-07
-2.45936e-09
-2.05869e-07
9.95626e-09
-2.05325e-07
2.77154e-08
-2.03045e-07
5.24073e-08
-1.98504e-07
8.58228e-08
-1.91054e-07
1.29879e-07
-1.79943e-07
1.86491e-07
-1.64338e-07
2.57442e-07
-1.43357e-07
3.44269e-07
-1.16143e-07
4.48206e-07
-8.19089e-08
5.70613e-07
-3.99966e-08
7.13252e-07
1.00665e-08
8.78438e-07
6.86615e-08
1.06943e-06
1.36651e-07
1.29036e-06
2.14785e-07
1.54503e-06
3.04024e-07
1.83499e-06
4.05706e-07
2.15864e-06
5.20882e-07
2.51136e-06
6.49318e-07
2.88601e-06
7.89383e-07
3.27358e-06
9.38667e-07
3.6639e-06
1.09365e-06
4.04765e-06
1.25036e-06
4.4175e-06
1.40453e-06
4.76839e-06
1.55267e-06
5.09807e-06
1.69237e-06
5.40683e-06
1.82184e-06
5.6949e-06
1.94103e-06
5.96211e-06
2.05078e-06
6.2087e-06
2.15083e-06
6.43506e-06
2.24135e-06
6.64188e-06
2.32233e-06
6.83014e-06
2.3938e-06
7.00114e-06
2.45584e-06
7.15629e-06
2.50866e-06
7.297e-06
2.5525e-06
7.42466e-06
2.58765e-06
7.54059e-06
2.61434e-06
7.64566e-06
2.63271e-06
7.74072e-06
2.64287e-06
7.82638e-06
2.64486e-06
7.90304e-06
2.6386e-06
7.97087e-06
2.62395e-06
8.03049e-06
2.59978e-06
8.08116e-06
2.56716e-06
8.12248e-06
2.52529e-06
8.15438e-06
2.47301e-06
8.17631e-06
2.40997e-06
8.18748e-06
2.33564e-06
8.18711e-06
2.24899e-06
8.17435e-06
2.14901e-06
8.14819e-06
2.03474e-06
8.10753e-06
1.90498e-06
8.05126e-06
1.75836e-06
7.98043e-06
1.5517e-06
7.8978e-06
1.30808e-06
7.80466e-06
1.08063e-06
7.70233e-06
8.68816e-07
7.59232e-06
6.72446e-07
7.47605e-06
4.91883e-07
7.35367e-06
3.27312e-07
7.22475e-06
1.77247e-07
7.08925e-06
3.98658e-08
6.94777e-06
-8.65593e-08
6.80123e-06
-2.03269e-07
6.65059e-06
-3.11253e-07
6.49668e-06
-4.11069e-07
6.34007e-06
-5.03063e-07
6.18094e-06
-5.87629e-07
6.01955e-06
-6.65363e-07
5.85618e-06
-7.36796e-07
5.69113e-06
-8.02425e-07
5.52468e-06
-8.62823e-07
5.35717e-06
-9.18598e-07
5.18915e-06
-9.70302e-07
5.0215e-06
-1.01832e-06
4.85555e-06
-1.06275e-06
4.69294e-06
-1.10322e-06
4.53503e-06
-1.13899e-06
4.38149e-06
-1.16958e-06
4.23086e-06
-1.19623e-06
4.08263e-06
-1.22126e-06
3.9371e-06
-1.24589e-06
3.79462e-06
-1.27034e-06
3.65549e-06
-1.2947e-06
3.51996e-06
-1.31894e-06
3.38826e-06
-1.34298e-06
3.26055e-06
-1.36668e-06
3.13699e-06
-1.38987e-06
3.01764e-06
-1.41235e-06
2.90258e-06
-1.43394e-06
2.79181e-06
-1.45445e-06
2.68534e-06
-1.47371e-06
-1.49158e-06
-2.03947e-09
-3.01353e-07
-5.15259e-09
-1.20065e-07
-6.86473e-09
-1.29085e-07
-7.97393e-09
-1.39835e-07
-8.70855e-09
-1.46456e-07
-9.21051e-09
-1.51862e-07
-9.54696e-09
-1.56784e-07
-9.74868e-09
-1.61466e-07
-9.82924e-09
-1.66017e-07
-9.79275e-09
-1.70481e-07
-9.63703e-09
-1.74875e-07
-9.35417e-09
-1.792e-07
-8.92992e-09
-1.83447e-07
-8.34204e-09
-1.87599e-07
-7.55688e-09
-1.91633e-07
-6.52288e-09
-1.95519e-07
-5.15948e-09
-1.99217e-07
-3.33717e-09
-2.02675e-07
-8.48059e-10
-2.05823e-07
2.61863e-09
-2.08561e-07
7.49209e-09
-2.10742e-07
1.43431e-08
-2.12176e-07
2.39171e-08
-2.12619e-07
3.71817e-08
-2.11769e-07
5.53758e-08
-2.09248e-07
8.00141e-08
-2.04581e-07
1.12838e-07
-1.97162e-07
1.55757e-07
-1.86276e-07
2.10724e-07
-1.7111e-07
2.79609e-07
-1.50794e-07
3.64069e-07
-1.24457e-07
4.65436e-07
-9.13e-08
5.84739e-07
-5.06407e-08
7.2335e-07
-1.96052e-09
8.83045e-07
5.50907e-08
1.06606e-06
1.21011e-07
1.27525e-06
1.96514e-07
1.51405e-06
2.82083e-07
1.7849e-06
3.78464e-07
2.08777e-06
4.86515e-07
2.41978e-06
6.06655e-07
2.77551e-06
7.37927e-07
3.14771e-06
8.78151e-07
3.52771e-06
1.02454e-06
3.90663e-06
1.17375e-06
4.27697e-06
1.32203e-06
4.6332e-06
1.46561e-06
4.97216e-06
1.60207e-06
5.2935e-06
1.72944e-06
5.59686e-06
1.84747e-06
5.88145e-06
1.95676e-06
6.1466e-06
2.05718e-06
6.39204e-06