/*--------------------------------*- C++ -*----------------------------------*\
  =========                 |
  \\      /  F ield         | OpenFOAM: The Open Source CFD Toolbox
   \\    /   O peration     | Website:  https://openfoam.org
    \\  /    A nd           | Version:  10
     \\/     M anipulation  |
\*---------------------------------------------------------------------------*/
FoamFile
{
    format      ascii;
    class       volScalarField;
    location    "11000";
    object      omega;
}
// * * * * * * * * * * * * * * * * * * * * * * * * * * * * * * * * * * * * * //

dimensions      [0 0 -1 0 0 0 0];

internalField   nonuniform List<scalar> 
17969
(
5562.21
1406.86
441.51
199.965
126.262
98.8286
87.8608
84.2946
83.0391
80.9947
77.4326
72.0923
64.8562
56.6227
48.6511
41.511
35.2668
29.9889
25.6817
22.2458
19.5186
17.3439
15.5952
14.1755
13.0111
12.0464
11.2392
10.5572
9.97576
9.4756
9.04164
8.66195
8.32703
8.02924
7.7624
7.52149
7.30237
7.10169
6.91666
6.74497
6.58475
6.43443
6.29271
6.15855
6.03107
5.90958
5.79352
5.68242
5.57595
5.47383
5.37589
5.28198
5.19203
5.10603
5.02399
4.94597
4.87207
4.80243
4.73722
4.67664
4.62095
4.57042
4.52541
4.48628
4.45351
4.42762
4.40923
4.39906
4.39798
4.40703
4.42743
4.46067
4.50856
4.57331
4.65644
4.75733
4.87523
5.01048
5.16298
5.32898
5.50105
5.67409
5.84629
6.01684
6.18535
6.35162
6.51549
6.67678
6.83527
6.99071
7.14287
7.29151
7.43646
7.57756
7.71475
7.84799
7.97731
8.1028
8.22459
8.34277
5562.29
1401.19
437.158
195.119
120.334
91.4619
79.4177
75.1196
74.232
73.8909
72.6666
70.0407
65.4621
59.1442
51.9739
45.0313
38.7707
33.2424
28.5193
24.6158
21.4615
18.9292
16.8899
15.2361
13.8834
12.7667
11.8363
11.0539
10.3901
9.82197
9.33167
8.90508
8.53096
8.20029
7.90581
7.64162
7.40287
7.1856
6.98655
6.80302
6.63277
6.47396
6.32506
6.1848
6.05214
5.92623
5.80637
5.69201
5.58271
5.47811
5.37797
5.28207
5.19032
5.10263
5.01898
4.93941
4.86399
4.79281
4.72603
4.66384
4.60646
4.55416
4.50726
4.46614
4.43124
4.40309
4.38229
4.36957
4.36583
4.3721
4.38969
4.42017
4.46548
4.52804
4.60972
4.71033
4.82953
4.96812
5.12569
5.2965
5.47216
5.6486
5.82459
5.99958
6.17335
6.34571
6.51643
6.68517
6.85153
7.01505
7.17529
7.33183
7.48432
7.63248
7.77611
7.91511
8.04945
8.17917
8.30436
8.4251
5562.35
1398.54
435.275
191.87
115.724
85.8026
72.6234
67.2713
66.0113
66.3499
66.6432
66.082
63.9411
59.9528
54.4173
48.1429
42.0458
36.5052
31.5672
27.3005
23.728
20.8036
18.4303
16.5017
14.9256
13.628
12.5507
11.6487
10.8871
10.2384
9.68152
9.19957
8.77922
8.40982
8.08278
7.79113
7.52919
7.2923
7.07663
6.87899
6.69678
6.5278
6.37024
6.22261
6.08366
5.95237
5.8279
5.70955
5.59678
5.48915
5.38631
5.28801
5.19405
5.10433
5.01878
4.93737
4.86015
4.78719
4.71861
4.65457
4.59527
4.54097
4.49195
4.44859
4.41129
4.38058
4.35705
4.34143
4.33461
4.33767
4.35192
4.37903
4.42106
4.48063
4.55996
4.65935
4.77894
4.92003
5.0816
5.25586
5.4342
5.61367
5.79342
5.97321
6.15293
6.3324
6.51126
6.68896
6.86485
7.03824
7.20841
7.37473
7.53665
7.69373
7.84564
7.99217
8.13323
8.2688
8.39897
8.52382
5562.39
1395.7
433.591
189.013
111.687
80.9203
67.0276
60.8846
58.89
59.0766
60.0416
60.7977
60.5371
58.7459
55.2765
50.4377
44.9373
39.5527
34.6156
30.1733
26.2889
22.9923
20.2578
18.0145
16.1759
14.6627
13.4094
12.3638
11.4846
10.7395
10.1029
9.55494
9.0796
8.6642
8.29854
7.97435
7.68494
7.42479
7.18938
6.97499
6.77851
6.59739
6.42948
6.273
6.12648
5.9887
5.85864
5.73547
5.6185
5.5072
5.40112
5.29992
5.20335
5.11122
5.02342
4.93988
4.8606
4.78561
4.715
4.6489
4.58748
4.53096
4.47963
4.4338
4.39389
4.36039
4.33387
4.31506
4.30483
4.30427
4.31473
4.33791
4.37599
4.43176
4.50777
4.60484
4.72363
4.86598
5.03005
5.20632
5.38649
5.56849
5.75186
5.93667
6.12294
6.31042
6.49859
6.68667
6.87372
7.05876
7.2408
7.41893
7.59239
7.76052
7.92284
8.07904
8.22893
8.37246
8.50971
8.64084
8.76608
8.88575
9.0001
9.10939
5562.42
1393.23
432.158
186.48
108.078
76.577
62.1411
55.36
52.6874
52.4596
53.4538
54.838
55.8073
55.7376
54.2476
51.2524
47.0384
42.2128
37.4372
33.0141
28.9963
25.4393
22.3784
19.8048
17.6698
15.905
14.4427
13.2249
12.2043
11.3429
10.6105
9.98313
9.44186
8.97145
8.5597
8.19676
7.87465
7.58684
7.32798
7.09366
6.88022
6.68462
6.50436
6.33731
6.18174
6.03618
5.89941
5.77045
5.64845
5.53275
5.42279
5.31815
5.21848
5.12353
5.03312
4.94713
4.86551
4.78824
4.71537
4.647
4.58326
4.52435
4.47052
4.42206
4.37936
4.34287
4.31316
4.29091
4.277
4.27249
4.27876
4.29752
4.33101
4.38217
4.45385
4.54734
4.66388
4.80583
4.97066
5.14752
5.32858
5.51247
5.69914
5.88897
6.08208
6.27817
6.47655
6.67616
6.8758
7.07413
7.26986
7.4618
7.64886
7.83017
8.00504
8.17295
8.33361
8.48687
8.63274
8.77136
8.90295
9.02782
9.14633
9.25886
5562.44
1390.96
430.941
184.26
104.882
72.73
57.8492
50.6317
47.4449
46.6619
47.3481
48.79
50.371
51.4494
51.5296
50.3158
47.7556
44.1002
39.8643
35.6132
31.6333
27.9842
24.7131
21.8591
19.4258
17.3836
15.6805
14.2599
13.0706
12.0695
11.2216
10.4987
9.87807
9.34153
8.87449
8.46516
8.10399
7.78319
7.49638
7.23832
7.00468
6.79186
6.59687
6.41723
6.25086
6.09601
5.95125
5.81537
5.68737
5.56643
5.45187
5.34316
5.23985
5.14161
5.04818
4.95938
4.8751
4.79528
4.71991
4.64906
4.58283
4.52136
4.46487
4.41363
4.36798
4.32836
4.29528
4.26943
4.25162
4.2429
4.24463
4.25853
4.28686
4.33263
4.39894
4.48753
4.60015
4.73972
4.90342
5.07951
5.26042
5.44535
5.63476
5.82925
6.02912
6.23402
6.44309
6.65506
6.8684
7.08148
7.29264
7.50033
7.70315
7.89991
8.08964
8.27162
8.44537
8.61061
8.76725
8.9154
9.05526
9.18715
9.31148
9.42867
5562.45
1388.92
429.953
182.345
102.077
69.3316
54.063
46.5054
42.8889
41.6348
41.9267
43.111
44.779
46.4488
47.593
47.8059
46.8495
44.6865
41.5293
37.8103
34.0147
30.4208
27.096
24.0788
21.4105
19.1037
17.1437
15.4939
14.1082
12.9419
11.9562
11.1185
10.4024
9.78633
9.25283
8.78782
8.37984
8.01956
7.69937
7.413
7.15529
6.92195
6.70945
6.51482
6.33558
6.16969
6.01541
5.8713
5.73617
5.60902
5.48902
5.37551
5.26794
5.16586
5.06895
4.97694
4.88966
4.807
4.72888
4.65533
4.5864
4.52221
4.46291
4.40876
4.36005
4.31717
4.28061
4.251
4.22913
4.216
4.21292
4.2216
4.24426
4.28393
4.34389
4.42625
4.5332
4.66823
4.82888
5.00284
5.18246
5.36738
5.55857
5.75694
5.96297
6.17635
6.39611
6.62079
6.84861
7.07758
7.30569
7.53101
7.75173
7.9663
8.17341
8.37205
8.5615
8.7413
8.91125
9.07136
9.22181
9.36293
9.49515
9.61897
9.7349
5562.45
1387.07
429.151
180.701
99.627
66.3402
50.7307
42.8859
38.9505
37.2834
37.1009
37.9768
39.4545
41.2431
42.9545
44.1475
44.4842
43.7673
41.965
39.2516
35.9874
32.5908
29.3366
26.3
23.5111
21.0127
18.8232
16.939
15.3369
13.9815
12.8344
11.8609
11.0309
10.3195
9.70631
9.17448
8.71037
8.30282
7.94271
7.62253
7.33611
7.07834
6.84498
6.63252
6.43801
6.25899
6.09341
5.93955
5.79597
5.66148
5.53506
5.41591
5.30335
5.19682
5.09589
5.00022
4.90955
4.8237
4.74256
4.66607
4.59424
4.52714
4.4649
4.40771
4.35582
4.30959
4.26946
4.236
4.20995
4.19226
4.18419
4.18735
4.20394
4.23691
4.28963
4.36451
4.46409
4.59234
4.74791
4.91839
5.09545
5.27908
5.47074
5.67173
5.88282
6.10378
6.33366
6.57088
6.81344
7.05906
7.30536
7.54997
7.79066
8.0254
8.25249
8.47054
8.67851
8.87571
9.06175
9.23651
9.40013
9.55289
9.69526
9.8278
9.95115
10.066
10.1729
5562.43
1385.38
428.497
179.276
97.4809
63.7102
47.8087
39.7344
35.5544
33.5767
33.0265
33.4907
34.6729
36.2877
38.1144
39.8297
41.0563
41.5052
41.0068
39.5289
37.2099
34.3473
31.3032
28.3504
25.572
22.9903
20.6492
18.5708
16.7592
15.2021
13.874
12.7437
11.7802
10.956
10.2479
9.63627
9.10505
8.64097
8.23314
7.87259
7.55193
7.26505
7.00689
6.77324
6.56059
6.36601
6.18704
6.02164
5.86807
5.72491
5.59094
5.46518
5.34679
5.23508
5.12952
5.02966
4.93515
4.84574
4.76124
4.68154
4.60659
4.53641
4.47107
4.41071
4.35555
4.30588
4.2621
4.22473
4.19443
4.1721
4.1589
4.15636
4.16658
4.19239
4.23715
4.30347
4.39413
4.51341
4.66174
4.82732
5.00049
5.18135
5.37182
5.57382
5.78832
6.01538
6.25417
6.50311
6.76008
7.02258
7.28786
7.55312
7.81562
8.07283
8.32251
8.56282
8.79232
9.00998
9.21515
9.40754
9.58716
9.75425
9.90926
10.0528
10.1855
10.3081
10.4215
10.5262
5562.41
1383.86
427.977
178.043
95.6024
61.3982
45.244
36.982
32.6057
30.3886
29.5286
29.6325
30.4747
31.8228
33.4948
35.3178
37.0181
38.2685
38.8177
38.5161
37.328
35.3589
32.8527
30.1225
27.4396
24.8937
22.5013
20.3068
18.3348
16.5948
15.0821
13.7804
12.6654
11.7107
10.8912
10.1853
9.57443
9.04307
8.5784
8.16975
7.80832
7.48681
7.19917
6.94036
6.7062
6.49318
6.29837
6.11932
5.95398
5.80061
5.65777
5.52426
5.39907
5.28136
5.17045
5.06579
4.96693
4.87351
4.78529
4.70207
4.62374
4.55026
4.48165
4.41799
4.35945
4.30628
4.25879
4.21746
4.18289
4.15588
4.13749
4.12915
4.13281
4.15114
4.18741
4.24435
4.3248
4.43317
4.57196
4.73106
4.89904
5.07558
5.26305
5.46399
5.67976
5.91084
6.15666
6.41579
6.68613
6.96505
7.2495
7.53627
7.82209
8.10384
8.37869
8.6442
8.89841
9.13985
9.36753
9.58089
9.77976
9.96431
10.1349
10.2922
10.437
10.5699
10.692
10.8041
10.9071
11.0018
5562.38
1382.47
427.574
176.973
93.9497
59.3559
42.9843
34.5725
30.0442
27.6397
26.5406
26.3456
26.8381
27.897
29.3254
31.007
32.8022
34.4764
35.7429
36.3801
36.2533
35.3218
33.6631
31.4751
29.0314
26.5891
24.249
22.0313
19.9745
18.1055
16.4371
14.9701
13.6954
12.5957
11.6492
10.8339
10.1296
9.51898
8.98705
8.52139
8.11158
7.74898
7.42637
7.13775
6.87812
6.64329
6.42978
6.23464
6.05542
5.89006
5.73681
5.59424
5.46112
5.33644
5.21936
5.1092
5.00538
4.90745
4.81507
4.72798
4.64597
4.56896
4.49688
4.42978
4.36775
4.31099
4.25976
4.21445
4.17559
4.14389
4.12032
4.10616
4.10319
4.11388
4.14134
4.18831
4.25763
4.35356
4.48044
4.63121
4.79273
4.96342
5.146
5.34358
5.55813
5.79063
6.04094
6.30797
6.58981
6.88387
7.18694
7.49542
7.80553
8.11353
8.41587
8.70943
8.99159
9.26029
9.51407
9.75202
9.97371
10.1791
10.3687
10.5428
10.7025
10.8484
10.9818
11.1034
11.2145
11.316
11.4089
11.4941
11.5724
11.6446
5562.34
1381.23
427.275
176.039
92.4858
57.5392
40.9809
32.4533
27.8127
25.2675
23.9846
23.5519
23.7573
24.4784
25.6503
27.1109
28.7757
30.5307
32.1724
33.4479
34.16
34.1859
33.4801
32.0959
30.1942
28.0127
25.7854
23.6287
21.5723
19.6451
17.8756
16.2788
14.8596
13.6139
12.5305
11.5926
10.7814
10.0788
9.46819
8.93551
8.46868
8.05756
7.69364
7.3698
7.0801
6.81955
6.58399
6.36991
6.17439
5.99495
5.82952
5.67636
5.53401
5.40124
5.27704
5.16055
5.05108
4.94806
4.85103
4.75964
4.67362
4.59278
4.51702
4.4463
4.38065
4.32021
4.26518
4.21587
4.17273
4.13639
4.10767
4.08775
4.07819
4.08122
4.09977
4.13648
4.19408
4.27661
4.38928
4.52937
4.68321
4.84665
5.02257
5.21452
5.42515
5.65608
5.90781
6.17973
6.47035
6.77731
7.09743
7.4269
7.7615
8.09684
8.4286
8.75283
9.06611
9.36563
9.6493
9.91572
10.1641
10.3942
10.6061
10.8005
10.9782
11.14
11.2871
11.4207
11.5418
11.6516
11.7513
11.8419
11.9244
11.9996
5562.3
1380.11
427.06
175.214
91.1771
55.9112
39.1934
30.5803
25.862
23.2164
21.7973
21.1852
21.1639
21.6159
22.4732
23.6919
25.148
26.7758
28.4804
30.0833
31.3598
32.1329
32.2894
31.78
30.6384
28.994
27.0498
25.0174
23.0282
21.1204
19.3147
17.6404
16.1148
14.7452
13.5312
12.4661
11.538
10.7315
10.0307
9.42033
8.88698
8.41903
8.00661
7.64138
7.31631
7.02552
6.76405
6.52774
6.3131
6.11717
5.9375
5.772
5.61891
5.47677
5.34434
5.22059
5.10467
4.99588
4.89362
4.79746
4.70702
4.62203
4.54232
4.46777
4.39835
4.33412
4.27522
4.22189
4.1745
4.13356
4.09979
4.0742
4.05817
4.05366
4.06336
4.08977
4.13544
4.20408
4.30081
4.42733
4.57202
4.72697
4.89471
5.07921
5.28353
5.50976
5.75926
6.03227
6.328
6.64457
6.97909
7.32774
7.686
8.0489
8.41135
8.76844
9.11579
9.44968
9.76717
10.0662
10.3454
10.6043
10.8427
11.0612
11.2604
11.4414
11.6054
11.7536
11.8874
12.0081
12.1169
12.215
12.3037
12.3839
5562.25
1379.12
426.91
174.477
90.0049
54.4507
37.5958
28.9212
24.1534
21.4398
19.922
19.1748
18.9772
19.213
19.8142
20.7455
21.973
23.4021
24.981
26.6294
28.1888
29.4581
30.278
30.5439
30.204
29.2759
27.8615
26.1319
24.2781
22.4429
20.6723
18.9802
17.3968
15.9411
14.6224
13.4427
12.3988
11.4824
10.6818
9.9835
9.37378
8.84006
8.37122
7.95769
7.59128
7.26511
6.97332
6.71101
6.47401
6.25885
6.06258
5.88271
5.71716
5.56417
5.42225
5.29016
5.16687
5.05152
4.94338
4.84188
4.74655
4.65703
4.57305
4.49443
4.42105
4.3529
4.29006
4.23268
4.18103
4.13556
4.09684
4.06573
4.04342
4.03158
4.03264
4.04894
4.0827
4.13718
4.2169
4.32639
4.45925
4.60538
4.76513
4.94087
5.13628
5.35448
5.5979
5.86779
6.16424
6.48618
6.83127
7.19602
7.57585
7.96539
8.35882
8.75026
9.1342
9.50579
9.86106
10.197
10.5116
10.8038
11.0731
11.3197
11.5445
11.7484
11.9327
12.0988
12.2481
12.3822
12.5024
12.6103
12.707
12.7938
5562.19
1378.27
426.818
173.83
88.9699
53.1563
36.1794
27.4597
22.6626
19.9055
18.318
17.4702
17.1378
17.2009
17.5951
18.2818
19.2451
20.4578
21.8462
23.3695
24.9588
26.4706
27.7247
28.5777
28.9333
28.738
27.9965
26.7867
25.2515
23.5621
21.8693
20.225
18.6392
17.1424
15.7549
14.4876
13.3446
12.3247
11.4227
10.6299
9.93524
9.32694
8.7934
8.32409
7.90977
7.54248
7.21542
6.92283
6.65983
6.42229
6.20673
6.0102
5.83021
5.66468
5.51183
5.37018
5.23846
5.11565
5.00087
4.89339
4.79264
4.69814
4.60953
4.52653
4.44896
4.37673
4.30983
4.24834
4.19245
4.14249
4.09893
4.06248
4.03411
4.01524
4.00802
4.01456
4.03673
4.07718
4.13955
4.2287
4.3462
4.48335
4.63455
4.80083
4.98574
5.19327
5.42702
5.68947
5.98184
6.3041
6.65485
7.03127
7.42912
7.84292
8.26632
8.69253
9.11483
9.52703
9.92386
10.3011
10.6559
10.9861
11.2911
11.5707
11.8254
12.0563
12.2647
12.4521
12.6202
12.7705
12.9048
13.0247
13.1317
13.2273
13.3127
5562.13
1377.56
426.806
173.296
88.0943
52.0454
34.9522
26.1931
21.378
18.5932
16.9567
16.0338
15.5978
15.5262
15.7532
16.2417
16.9716
17.9385
19.1207
20.4591
21.9229
23.4513
24.912
26.143
27.0163
27.4433
27.37
26.7904
25.7619
24.4032
22.8698
21.3064
19.7745
18.2892
16.8754
15.5543
14.3386
13.234
12.2408
11.356
10.5732
9.88396
9.27823
8.74568
8.27652
7.86191
7.49413
7.16652
6.87341
6.60997
6.37208
6.15629
5.95964
5.77966
5.61425
5.46162
5.3203
5.18901
5.06671
4.95252
4.84573
4.74573
4.65206
4.56434
4.48232
4.4058
4.33469
4.26901
4.20886
4.15445
4.10616
4.06453
4.03037
4.00481
3.98977
3.9871
3.99833
4.02552
4.07156
4.14035
4.23699
4.3611
4.5034
4.66021
4.83403
5.02925
5.25042
5.5014
5.78478
6.10185
6.45245
6.83484
7.24559
7.67958
8.13029
8.59021
9.05146
9.50638
9.94813
10.371
10.7708
11.1444
11.4903
11.8079
12.0975
12.3599
12.5966
12.8091
12.9993
13.1691
13.3202
13.4545
13.5738
13.6798
13.7739
5562.07
1377.03
426.905
172.902
87.4052
51.1438
33.9327
25.1298
20.2976
17.4922
15.8184
14.8374
14.3202
14.1423
14.2354
14.5635
15.104
15.8493
16.8019
17.9444
19.2265
20.6252
22.0892
23.4958
24.6973
25.5799
26.0622
26.0905
25.6503
24.7818
23.5837
22.1944
20.7498
19.3218
17.9306
16.5956
15.3387
14.174
13.1086
12.1444
11.2795
10.5094
9.82769
9.22607
8.69562
8.22743
7.81318
7.44544
7.11773
6.82447
6.56089
6.32293
6.10713
5.91056
5.73074
5.56558
5.41329
5.27238
5.14159
5.01986
4.90631
4.80022
4.701
4.60816
4.52135
4.44029
4.3648
4.29481
4.23034
4.1715
4.11856
4.07193
4.03223
4.00037
3.97801
3.96682
3.96797
3.98303
4.01428
4.06487
4.13915
4.24261
4.37295
4.52032
4.68332
4.86557
5.07215
5.30829
5.57811
5.88439
6.22848
6.61012
7.02717
7.47545
7.94881
8.43948
8.93862
9.43712
9.92634
10.3988
10.8484
11.2709
11.6634
12.0247
12.3546
12.6538
12.9236
13.1657
13.382
13.5747
13.7458
13.8975
14.0316
14.1502
14.2549
5562
1376.66
427.125
172.663
86.9246
50.4793
33.1454
24.2849
19.4265
16.5976
14.8901
13.8596
13.2751
13.0107
12.996
13.193
13.5801
14.1464
14.8915
15.8225
16.9238
18.1473
19.4689
20.8542
22.2035
23.3713
24.2546
24.7787
24.8906
24.5694
23.8415
22.7881
21.5309
20.1971
18.8663
17.5632
16.3029
15.1078
13.9932
12.9675
12.0336
11.191
10.4363
9.76443
9.16884
8.64193
8.17578
7.76271
7.39567
7.0684
6.77546
6.51213
6.27442
6.05888
5.86263
5.68317
5.51841
5.36659
5.22621
5.096
4.97492
4.86207
4.75673
4.6583
4.56632
4.48042
4.40032
4.32587
4.25698
4.1937
4.13617
4.08468
4.03969
4.00189
3.97276
3.95376
3.94578
3.94998
3.96807
4.00258
4.05703
4.13641
4.24631
4.38236
4.53495
4.70465
4.89594
5.11497
5.36743
5.65774
5.98895
6.36254
6.77812
7.23307
7.72232
8.23847
8.77225
9.31332
9.85122
10.3763
10.8804
11.3572
11.8025
12.2137
12.5901
12.9319
13.2403
13.517
13.7642
13.984
14.179
14.3514
14.5035
14.6375
14.7556
14.8595
5561.92
1376.43
427.501
172.606
86.6752
50.077
32.6145
23.6745
18.7711
15.9073
14.1611
13.0821
12.4368
12.0975
11.9923
12.0813
12.3426
12.7636
13.3417
14.0818
14.9927
16.0521
17.2109
18.4479
19.7404
21.0191
22.1517
23.029
23.5831
23.7627
23.5421
22.9368
22.0127
20.8765
19.6464
18.4071
17.1865
15.9971
14.8617
13.796
12.8099
11.9074
11.0889
10.3519
9.69238
9.10498
8.58334
8.12055
7.70969
7.34416
7.01798
6.72589
6.46327
6.22618
6.01124
5.81556
5.63668
5.47253
5.32134
5.18161
5.05209
4.93172
4.81964
4.71509
4.61751
4.52641
4.44143
4.36231
4.28889
4.22111
4.15902
4.10278
4.05272
4.00933
3.97392
3.94782
3.93166
3.92621
3.93276
3.95324
3.99043
4.04832
4.13255
4.24847
4.3899
4.54792
4.72462
4.92579
5.15834
5.42846
5.74097
6.09928
6.50504
6.9577
7.45405
7.98793
8.55045
9.1306
9.71632
10.2957
10.8579
11.3944
11.8987
12.3667
12.7964
13.1875
13.5407
13.8578
14.1409
14.3927
14.6156
14.8125
14.9858
15.138
15.2716
15.3886
5561.85
1376.3
428.044
172.746
86.6621
49.9426
32.3487
23.3054
18.3322
15.4155
13.6196
12.4872
11.7814
11.3725
11.1871
11.1836
11.3389
11.6395
12.0809
12.6662
13.4041
14.2967
15.308
16.3963
17.5467
18.7405
19.939
21.0324
21.8963
22.4693
22.7016
22.5645
22.0648
21.2554
20.2294
19.0963
17.9432
16.8002
15.6784
14.6003
13.5825
12.6358
11.7653
10.9722
10.2549
9.61002
9.03305
8.51861
8.06076
7.65333
7.29027
6.96596
6.67533
6.41394
6.1779
5.96391
5.76911
5.59107
5.42773
5.27734
5.13841
5.00969
4.89014
4.77889
4.6752
4.5785
4.48831
4.40428
4.32616
4.25378
4.1871
4.12619
4.07123
4.02256
3.98135
3.9488
3.92533
3.91139
3.90789
3.91624
3.93861
3.97807
4.03906
4.1279
4.24951
4.39613
4.5597
4.74397
4.95582
5.20296
5.49213
5.82867
6.21641
6.65722
7.15037
7.69189
8.27433
8.88698
9.51681
10.1498
10.7725
11.3732
11.9426
12.4744
12.9649
13.4127
13.8178
14.1819
14.5072
14.7963
15.0522
15.2778
15.4762
15.65
15.8021
15.9349
5561.77
1376.23
428.743
173.073
86.8646
50.0533
32.332
23.1657
18.0982
15.1083
13.2486
12.0546
11.2851
10.8078
10.5477
10.4613
10.5242
10.7218
11.0484
11.5051
12.0997
12.8393
13.7074
14.6626
15.6784
16.7443
17.8426
18.9593
20.0048
20.8494
21.4313
21.7029
21.6336
21.2235
20.5147
19.5885
18.5461
17.4742
16.4042
15.3467
14.3239
13.353
12.4453
11.6072
10.8407
10.1446
9.51634
8.95191
8.44669
7.99551
7.59291
7.23343
6.91186
6.62342
6.36383
6.12933
5.91668
5.72309
5.54616
5.38386
5.23445
5.09647
4.96868
4.85005
4.73971
4.63694
4.54117
4.45194
4.36889
4.29178
4.22046
4.15489
4.09516
4.04145
3.99484
3.95642
3.92643
3.90504
3.89282
3.89079
3.90053
3.9244
3.96581
4.02963
4.12287
4.2499
4.40166
4.5711
4.76347
4.98681
5.24964
5.55933
5.92184
6.34154
6.82056
7.35791
7.9487
8.58386
9.25056
9.93343
10.6163
11.2841
11.9241
12.5268
13.0861
13.5987
14.0638
14.4825
14.8569
15.1897
15.4843
15.7439
15.9719
16.1714
16.3455
16.4972
5561.69
1376.17
429.575
173.561
87.2438
50.3617
32.521
23.2202
18.0392
14.9587
13.0227
11.7592
10.9221
10.3764
10.0446
9.88154
9.86142
9.96798
10.1941
10.5408
11.0155
11.6262
12.3625
13.1934
14.0906
15.038
16.0271
17.0434
18.0753
19.0582
19.8801
20.463
20.7622
20.7466
20.4114
19.7899
18.9534
17.9955
17
15.9988
15.0025
14.0331
13.1079
12.2391
11.4337
10.6944
10.0209
9.41085
8.86087
8.36678
7.92403
7.52777
7.17312
6.8553
6.56984
6.31269
6.08025
5.86937
5.67734
5.5018
5.34077
5.19254
5.05566
4.92893
4.81131
4.70198
4.6002
4.50543
4.41719
4.33516
4.25909
4.18886
4.12442
4.06586
4.01418
3.97038
3.93454
3.90661
3.88686
3.87597
3.87505
3.88586
3.91095
3.95405
4.02049
4.11798
4.2504
4.40726
4.58288
4.78391
5.01959
5.29927
5.63106
6.02168
6.47613
6.99683
7.58244
8.22693
8.91926
9.64407
10.3833
11.1185
11.8329
12.513
13.149
13.7354
14.2695
14.7515
15.183
15.567
15.907
16.2065
16.4694
16.6993
16.8996
17.0738
5561.6
1376.07
430.506
174.176
87.751
50.8053
32.8508
23.4113
18.1062
14.9248
12.9052
11.5681
10.6625
10.0497
9.64982
9.41693
9.32146
9.34609
9.48328
9.73348
10.1026
10.5987
11.2206
11.9385
12.7282
13.5714
14.4569
15.3774
16.3203
17.2716
18.1916
18.985
19.5605
19.8765
19.9015
19.6275
19.0807
18.3241
17.4446
16.521
15.5845
14.6465
13.7287
12.8483
12.0181
11.2455
10.5341
9.88408
9.29365
8.7597
8.27847
7.84583
7.45744
7.10892
6.79591
6.5143
6.2603
6.03048
5.82183
5.63171
5.45786
5.29833
5.15146
5.01585
4.89031
4.77384
4.6656
4.5649
4.47118
4.38401
4.30304
4.22806
4.15895
4.09567
4.03916
3.99039
3.94927
3.91555
3.88929
3.87084
3.86097
3.8609
3.87254
3.89865
3.94328
4.01223
4.11397
4.25154
4.41368
4.59582
4.80611
5.05504
5.35284
5.70849
6.12959
6.62189
7.1881
7.82643
8.5294
9.2836
10.0707
10.8696
11.6594
12.4216
13.1421
13.8113
14.4242
14.9792
15.4772
15.921
16.314
16.6605
16.9645
17.2303
17.4618
17.6627
5561.52
1375.89
431.5
174.879
88.3339
51.3169
33.2481
23.6694
18.2382
14.9541
12.8508
11.4423
10.472
9.79731
9.33817
9.04304
8.88034
8.8321
8.88945
9.0526
9.32607
9.71798
10.2344
10.8551
11.5461
12.2968
13.091
13.9217
14.7814
15.6586
16.5381
17.3981
18.1572
18.719
19.0424
19.0967
18.8713
18.3874
17.7017
16.8944
16.0382
15.1625
14.2801
13.4119
12.5755
11.7834
11.0438
10.3608
9.73508
9.1653
8.64868
8.18175
7.76073
7.38165
7.04054
6.73345
6.4566
6.20647
5.97985
5.77388
5.58603
5.41415
5.25637
5.11108
4.97692
4.85273
4.73753
4.63049
4.53096
4.43838
4.35233
4.2725
4.19867
4.13074
4.06959
4.01615
3.97021
3.93134
3.8994
3.87451
3.85711
3.84803
3.84863
3.86094
3.88797
3.93405
4.00552
4.11134
4.25411
4.42167
4.61068
4.8309
5.09417
5.41156
5.79301
6.2472
6.78078
7.39675
8.0927
8.85933
9.68036
10.534
11.3957
12.242
13.0529
13.8138
14.5157
15.1545
15.7295
16.2428
16.698
17.0995
17.4519
17.76
18.0282
18.2609
5561.43
1375.6
432.522
175.631
88.9435
51.8357
33.6446
23.9277
18.3748
14.9939
12.8139
11.342
10.3158
9.59354
9.08503
8.73647
8.51619
8.40467
8.39177
8.47674
8.6635
8.95956
9.37549
9.90497
10.512
11.1756
11.8913
12.6422
13.425
14.2318
15.0518
15.8695
16.6717
17.3903
17.934
18.2574
18.3308
18.1427
17.7111
17.0875
16.3465
15.5532
14.7346
13.9049
13.0847
12.291
11.5367
10.8301
10.1759
9.57512
9.02681
8.52852
8.07707
7.66892
7.30042
6.9679
6.66777
6.39655
6.15103
5.92812
5.72527
5.5401
5.3705
5.21475
5.07129
4.93879
4.81612
4.70232
4.59661
4.49834
4.40699
4.32216
4.24354
4.17096
4.10529
4.04742
3.99701
3.95349
3.91655
3.88612
3.86238
3.84584
3.83742
3.83857
3.85148
3.87937
3.92694
4.00088
4.11084
4.25868
4.43163
4.62819
4.85946
5.13821
5.47668
5.88606
6.37629
6.95501
7.62551
8.38445
9.2203
10.1133
11.0376
11.965
12.8693
13.7293
14.5305
15.2644
15.928
16.5221
17.0498
17.5157
17.9249
18.2828
18.5944
18.8647
5561.35
1375.18
433.529
176.389
89.5358
52.3114
33.9862
24.1337
18.4686
15.0024
12.7576
11.2344
10.1731
9.41463
8.86672
8.47539
8.20854
8.04482
7.97274
7.99034
8.10052
8.30989
8.62931
9.06613
9.59591
10.185
10.8229
11.5074
12.222
12.964
13.7253
14.4958
15.2608
16.0072
16.6815
17.2027
17.5192
17.6029
17.4423
17.0532
16.484
15.8034
15.0683
14.3031
13.5234
12.7491
11.997
11.2799
10.6064
9.98112
9.40573
8.87951
8.40032
7.96524
7.57096
7.21408
6.89115
6.59876
6.33397
6.09381
5.87518
5.6759
5.49378
5.32687
5.17347
5.0321
4.90145
4.78046
4.66821
4.56394
4.46704
4.37702
4.29352
4.21625
4.14611
4.08395
4.02933
3.98156
3.94016
3.90492
3.87579
3.85305
3.83726
3.82941
3.83106
3.84455
3.87331
3.92229
3.99851
4.11218
4.26517
4.44461
4.64959
4.89269
5.18812
5.54942
5.9892
6.51885
7.14708
7.87737
8.7052
9.61619
10.5864
11.5853
12.5809
13.5444
14.4536
15.2942
16.059
16.7464
17.3585
17.8998
18.3756
18.7919
19.1547
19.4694
5561.26
1374.63
434.503
177.127
90.0774
52.7058
34.2351
24.2534
18.4908
14.9552
12.6596
11.1102
10.025
9.24064
8.66467
8.24229
7.94068
7.73685
7.61785
7.58031
7.6258
7.75954
7.99074
8.33266
8.78267
9.3042
9.8759
10.4917
11.1478
11.831
12.5373
13.2587
13.9851
14.7029
15.3976
16.0287
16.5232
16.8269
16.9132
16.7712
16.4164
15.8941
15.268
14.5865
13.8708
13.1381
12.4078
11.696
11.0155
10.3747
9.77846
9.22872
8.72502
8.26551
7.84749
7.4679
7.1234
6.81101
6.52738
6.26957
6.03491
5.82109
5.62591
5.44729
5.28341
5.13264
4.99356
4.86495
4.74578
4.6352
4.5325
4.4371
4.34855
4.26653
4.19191
4.12555
4.06691
4.01516
3.96973
3.93023
3.89648
3.86854
3.84669
3.83158
3.82427
3.8264
3.84048
3.87012
3.9204
3.99874
4.11602
4.27468
4.46129
4.67541
4.93137
5.24493
5.63111
6.10413
6.67702
7.35968
8.15564
9.05877
10.0511
11.1038
12.1811
13.2469
14.2701
15.2279
16.1069
16.9013
17.6112
18.2403
18.794
19.279
19.7018
20.0688
5561.17
1373.95
435.411
177.809
90.5328
52.9881
34.3672
24.2705
18.4313
14.8464
12.522
10.9602
9.86091
9.06155
8.46866
8.02643
7.70111
7.46876
7.31509
7.23514
7.22891
7.29998
7.45561
7.70731
8.0677
8.52184
9.03248
9.5879
10.1842
10.8147
11.47
12.1447
12.8304
13.5171
14.192
14.8408
15.4309
15.8952
16.1807
16.2628
16.1319
15.8036
15.3216
14.7439
14.1109
13.4408
12.7521
12.0635
11.3906
10.7458
10.1373
9.57011
9.04618
8.56537
8.12606
7.72602
7.36228
7.03096
6.72917
6.45416
6.20352
5.975
5.76642
5.57571
5.40091
5.24032
5.09238
4.95576
4.82934
4.71213
4.60336
4.50236
4.40861
4.32171
4.24258
4.17206
4.1095
4.05397
4.0048
3.96148
3.9237
3.89134
3.86448
3.84347
3.82901
3.82223
3.82488
3.83959
3.87005
3.92162
4.00213
4.12328
4.28806
4.48245
4.70648
4.97645
5.30978
5.72316
6.23266
6.85316
7.59576
8.4639
9.4492
10.5293
11.6696
12.8286
13.966
15.0487
16.0542
16.9701
17.7927
18.5238
19.1685
19.7338
20.2271
20.6557
5561.08
1373.15
436.239
178.411
90.8776
53.139
34.3727
24.1834
18.2938
14.6817
12.3521
10.7852
9.68131
8.87655
8.27634
7.82375
7.48404
7.23315
7.0558
6.9452
6.89986
6.9217
7.01596
7.19152
7.46155
7.83481
8.28689
8.78671
9.3273
9.90666
10.5147
11.146
11.793
12.4463
13.0963
13.7312
14.3382
14.8883
15.3189
15.5812
15.6528
15.5259
15.2175
14.7694
14.2343
13.6445
13.016
12.3682
11.7191
11.0836
10.4736
9.89698
9.35878
8.86106
8.40432
7.98672
7.60509
7.25634
6.93752
6.6461
6.37987
6.13677
5.91472
5.71168
5.52569
5.35492
5.19778
5.05282
4.91882
4.79471
4.67961
4.57278
4.47365
4.38175
4.29803
4.22333
4.1569
4.09773
4.04503
3.9982
3.95682
3.92063
3.88955
3.86372
3.84353
3.82972
3.82349
3.82672
3.84206
3.87337
3.92629
4.00918
4.13455
4.30597
4.50874
4.74355
5.02882
5.38382
5.82706
6.37673
7.04974
7.85848
8.80593
9.88077
11.0552
12.2879
13.5313
14.741
15.8826
16.9342
17.8854
18.7345
19.4853
20.1446
20.7205
21.2212
5560.99
1372.26
436.978
178.905
91.0873
53.1461
34.2517
24.0008
18.0918
14.4792
12.1549
10.5929
9.49309
8.69093
8.09094
7.63536
7.28846
7.02693
6.83471
6.70325
6.62977
6.61472
6.6615
6.77658
6.9699
7.25533
7.63626
8.08336
8.57233
9.09924
9.66406
10.2545
10.865
11.4868
12.1102
12.7249
13.3211
13.8884
14.3986
14.7921
15.0267
15.0823
14.9538
14.6596
14.2411
13.7425
13.1896
12.599
11.9893
11.3775
10.7781
10.2021
9.65771
9.14969
8.67953
8.24691
7.84968
7.48514
7.15063
6.84382
6.5627
6.30541
6.07004
5.85465
5.65731
5.47618
5.30957
5.156
5.01414
4.88286
4.76119
4.64832
4.54362
4.44657
4.35816
4.27923
4.20894
4.14619
4.0901
4.03998
3.99531
3.95573
3.92104
3.89119
3.86635
3.84696
3.83382
3.8282
3.83201
3.84801
3.88025
3.9347
4.02024
4.1503
4.32895
4.54074
4.7873
5.08936
5.46816
5.9443
6.53834
7.26943
8.15121
9.18574
10.3578
11.6332
12.9626
14.2924
15.5744
16.7736
17.8695
18.8541
19.7282
20.4977
21.1708
21.7569
22.2652
5560.9
1371.26
437.555
179.238
91.1342
53.0047
34.0139
23.738
17.8407
14.2525
11.9443
10.3956
9.30684
8.5131
7.91861
7.46523
7.11657
6.84969
6.64875
6.50395
6.41104
6.36927
6.38058
6.44944
6.5831
6.79192
7.0894
7.47379
7.91477
8.39523
8.91284
9.46348
10.0364
10.6255
11.2222
11.8168
12.3986
12.9581
13.487
13.9572
14.3104
14.5138
14.5494
14.4151
14.1313
13.7372
13.2693
12.7488
12.1926
11.6184
11.0424
10.4788
9.93788
9.42607
8.94757
8.50363
8.09348
7.71522
7.36664
7.04571
6.75065
6.47982
6.23152
6.00396
5.7953
5.6037
5.42749
5.2651
5.11517
4.97649
4.84804
4.72893
4.61847
4.51612
4.42289
4.33966
4.26549
4.19918
4.13976
4.08649
4.03875
3.99609
3.95821
3.92493
3.89626
3.87239
3.85381
3.84135
3.83636
3.84079
3.85752
3.89082
3.94702
4.03557
4.1709
4.35745
4.57895
4.83834
5.15889
5.56394
6.07643
6.71959
7.51503
8.47748
9.6075
10.8849
12.2674
13.6974
15.1147
16.4683
17.7233
18.8615
19.8776
20.775
21.5616
22.2474
22.8427
5560.81
1370.23
437.923
179.384
91.014
52.7269
33.6797
23.4161
17.5575
14.012
11.7357
10.2061
9.13313
8.35162
7.76592
7.31793
6.97116
6.70223
6.49615
6.34307
6.23711
6.1763
6.16155
6.19576
6.28405
6.43396
6.65573
6.96179
7.3481
7.78572
8.25985
8.76825
9.30292
9.85733
10.4245
10.9959
11.5619
12.1122
12.6365
13.1291
13.5571
13.8687
14.0388
14.0519
13.909
13.6322
13.2578
12.8162
12.3246
11.8005
11.261
10.721
10.1925
9.68479
9.20395
8.75328
8.33362
7.94422
7.58358
7.2501
6.9423
6.65883
6.39821
6.15886
5.93906
5.73707
5.55119
5.37988
5.22173
5.07548
4.94005
4.81452
4.69814
4.59032
4.49215
4.40453
4.32641
4.25652
4.19381
4.13746
4.08678
4.04126
4.00049
3.96421
3.93228
3.90474
3.88182
3.86403
3.8523
3.84795
3.85303
3.87058
3.90511
3.96331
4.05531
4.19664
4.39181
4.62375
4.89722
5.23817
5.67225
6.22501
6.92268
7.78948
8.84104
10.0755
11.4664
12.962
14.4958
16.001
17.4248
18.7335
19.9117
20.9574
21.8766
22.6793
23.3769
5560.72
1369.09
438.002
179.327
90.7397
52.3386
33.2772
23.0587
17.2598
13.7685
11.5381
10.0342
8.98015
8.21312
7.63801
7.19704
6.85394
6.58542
6.3764
6.21716
6.10185
6.02762
5.99378
6.00195
6.05581
6.16072
6.324
6.55644
6.87134
7.26071
7.69417
8.16058
8.65827
9.17734
9.71303
10.2581
10.8041
11.3418
11.8615
12.3535
12.8104
13.1926
13.4622
13.5981
13.5873
13.434
13.1621
12.8045
12.386
11.9223
11.4295
10.923
10.4164
9.92074
9.44423
8.99215
8.56708
8.16967
7.79939
7.45524
7.1362
6.8412
6.5691
6.31854
6.08796
5.87576
5.6803
5.50005
5.33359
5.17965
5.03711
4.90499
4.78252
4.66909
4.56586
4.47374
4.3916
4.31809
4.25207
4.19267
4.13913
4.09086
4.04741
4.00841
3.97365
3.943
3.91655
3.89454
3.87757
3.86654
3.86285
3.86864
3.88712
3.92305
3.98358
4.07953
4.22769
4.4323
4.67546
4.96443
5.32797
5.79423
6.39169
7.14994
8.09593
9.24585
10.5944
12.107
13.7214
15.3611
16.9539
18.4461
19.8062
21.0224
22.096
23.0357
23.8533
5560.63
1367.86
437.79
179.105
90.3523
51.8772
32.8369
22.6889
16.9643
13.5344
11.3516
9.88507
8.85333