/*--------------------------------*- C++ -*----------------------------------*\
  =========                 |
  \\      /  F ield         | OpenFOAM: The Open Source CFD Toolbox
   \\    /   O peration     | Website:  https://openfoam.org
    \\  /    A nd           | Version:  10
     \\/     M anipulation  |
\*---------------------------------------------------------------------------*/
FoamFile
{
    format      ascii;
    class       volScalarField;
    location    "11000";
    object      yPlus;
}
// * * * * * * * * * * * * * * * * * * * * * * * * * * * * * * * * * * * * * //

dimensions      [0 0 0 0 0 0 0];

internalField   uniform 0;

boundaryField
{
    right
    {
        type            cyclic;
    }
    left
    {
        type            cyclic;
    }
    outerWall
    {
        type            calculated;
        value           nonuniform List<scalar> 0();
    }
    stirrerWall
    {
        type            calculated;
        value           nonuniform List<scalar> 
398
(
0.0243418
0.0242263
0.0233111
0.0223261
0.0213136
0.0203237
0.019367
0.0184495
0.017565
0.0167013
0.0158453
0.0149853
0.0141131
0.0132235
0.0123158
0.0113988
0.0104923
0.00962591
0.00883354
0.0081494
0.00759923
0.00719458
0.00693189
0.0067968
0.00677081
0.00683657
0.00697979
0.00719068
0.00746184
0.00778865
0.00816966
0.00859983
0.00907569
0.00958962
0.0101277
0.0106632
0.0111826
0.0116632
0.012069
0.0124
0.012676
0.0128673
0.0129729
0.0131134
0.0134
0.0138475
0.0143832
0.0149083
0.0154083
0.015891
0.0163496
0.0167756
0.0171602
0.0174948
0.0177722
0.0179779
0.0180822
0.0180607
0.0179385
0.0177065
0.0173487
0.0168378
0.0161873
0.0154604
0.0146989
0.0139233
0.0131541
0.0124076
0.0116966
0.0110301
0.0104135
0.00984511
0.00931275
0.00879197
0.00824393
0.00761378
0.00683
0.00577594
0.00420679
0.00122028
0.00122028
0.00325454
0.00126617
0.00157001
0.00148203
0.00143359
0.00131391
0.00116484
0.00100951
0.000867874
0.000754542
0.000676103
0.000635649
0.000631524
0.000651986
0.00069037
0.000742988
0.000807865
0.000884461
0.00097278
0.00107348
0.00118758
0.0013164
0.00146124
0.00162353
0.00180506
0.0020078
0.00223343
0.0024832
0.00275839
0.00306066
0.00339157
0.00375202
0.00414274
0.00456493
0.00501993
0.00550859
0.0060315
0.00658921
0.00718276
0.00781349
0.00848154
0.0091864
0.00993132
0.010717
0.0115446
0.0124167
0.0133311
0.0142995
0.0153328
0.0164228
0.0175529
0.0187031
0.0198572
0.021017
0.0221703
0.0232983
0.0243976
0.0254657
0.0264907
0.0275128
0.0284775
0.0293843
0.0301985
0.0306608
0.0309916
0.0314568
0.0319727
0.0323605
0.0326146
0.0327807
0.0328024
0.0327385
0.0324761
0.0319644
0.031335
0.0306251
0.0299002
0.0292506
0.0283948
0.0280047
0.0273247
0.0266726
0.0286907
0.0249279
0.0299746
0.0293876
0.0288141
0.0400497
0.0249943
0.0343884
0.0343237
0.0266415
0.0401114
0.0288088
0.0279849
0.0443842
0.023564
0.0308661
0.0404876
0.0217935
0.0285846
0.0375045
0.0199706
0.0247335
0.0206117
0.0163141
0.0207557
0.0188666
0.0186865
0.0203452
0.0205543
0.0186201
0.0171785
0.017476
0.0198769
0.0216272
0.0222229
0.0225629
0.0222311
0.0230607
0.0246942
0.0266499
0.0285606
0.030015
0.0307844
0.0312732
0.0313828
0.00113268
0.00254355
0.00166659
0.00123645
0.00105395
0.0009531
0.000880326
0.000830876
0.000805214
0.000801907
0.000815579
0.000835485
0.000855311
0.000874247
0.000891342
0.000903432
0.000908042
0.000903791
0.000889613
0.000864526
0.000828569
0.000782661
0.00072815
0.000667206
0.000602341
0.000536171
0.000471187
0.000409494
0.000354675
0.000328334
0.00043832
0.000884606
0.00193532
0.00375684
0.00571792
0.00700487
0.00743539
0.00726629
0.00692005
0.0067184
0.00676599
0.00702902
0.00749583
0.00810997
0.00881321
0.00959446
0.0104767
0.0115272
0.0127398
0.0141938
0.0158545
0.017814
0.0200385
0.0225968
0.0254882
0.028765
0.0324556
0.0365715
0.041136
0.0461691
0.0516892
0.0577163
0.0642739
0.0713913
0.079105
0.0874598
0.0965104
0.106322
0.116973
0.128556
0.141185
0.155004
0.170223
0.187118
0.205804
0.225882
0.247022
0.269299
0.292743
0.317377
0.343211
0.370273
0.398624
0.428288
0.459296
0.491712
0.525555
0.560876
0.597763
0.636316
0.676592
0.718609
0.762432
0.808184
0.855961
0.905871
0.95802
1.01258
1.06971
1.12972
1.19282
1.25929
1.3294
1.40343
1.48174
1.56454
1.6521
1.74464
1.84206
1.94446
0.00113268
0.00332523
0.00471448
0.00607466
0.00709927
0.0066473
0.00563234
0.00517452
0.00548723
0.00653215
0.00675451
0.00718159
0.00857589
0.00893524
0.00961883
0.011545
0.0120008
0.0128044
0.0153334
0.0158014
0.0165664
0.0195488
0.0201238
0.0210836
0.0241375
0.024982
0.0250331
0.0262314
0.0287266
0.0304418
0.0326783
0.035025
0.037123
0.0389523
0.0409079
0.0430021
0.0450665
0.0469851
0.0486912
0.0501928
0.0516112
0.0528891
0.053938
0.0547685
0.0554125
0.0558457
0.056027
0.0559441
0.0556415
0.055212
0.0547128
0.0541586
0.0534803
0.0526617
0.0517051
0.0506717
0.0496212
0.048512
0.0473337
0.0460299
0.0444645
0.0424109
0.0399808
0.0373892
0.0347449
0.0321017
0.0294753
0.0268623
0.0242536
0.0216482
0.0191376
0.0171228
0.0157294
0.0153392
0.0160558
0.0175829
0.0194688
0.0213211
0.0228328
0.0238887
)
;
    }
    top
    {
        type            empty;
    }
    bottom
    {
        type            empty;
    }
    procBoundary1to0
    {
        type            processor;
        value           uniform 0;
    }
}


// ************************************************************************* //
