/*--------------------------------*- C++ -*----------------------------------*\
  =========                 |
  \\      /  F ield         | OpenFOAM: The Open Source CFD Toolbox
   \\    /   O peration     | Website:  https://openfoam.org
    \\  /    A nd           | Version:  10
     \\/     M anipulation  |
\*---------------------------------------------------------------------------*/
FoamFile
{
    format      ascii;
    class       volScalarField;
    location    "40000";
    object      k;
}
// * * * * * * * * * * * * * * * * * * * * * * * * * * * * * * * * * * * * * //

dimensions      [0 2 -2 0 0 0 0];

internalField   nonuniform List<scalar> 
20625
(
0.016942
0.0222006
0.0126861
0.00953992
0.00892713
0.00930548
0.0101219
0.0112161
0.0123914
0.0133751
0.0138011
0.0133973
0.0122074
0.0106807
0.00935779
0.00866061
0.00852558
0.00874189
0.00914356
0.009598
0.0100377
0.0104353
0.0107845
0.0110872
0.0113458
0.0115495
0.0116767
0.0117444
0.0117838
0.0118322
0.0119341
0.0121346
0.0124643
0.0129506
0.0136235
0.0144951
0.0155604
0.0167895
0.0181312
0.0195214
0.0208959
0.0222004
0.0233958
0.0244584
0.025378
0.0261546
0.0267952
0.0273113
0.027716
0.0280237
0.0170644
0.0217692
0.0116004
0.00824507
0.00753145
0.00786116
0.00863073
0.0096839
0.0109
0.0121186
0.0130891
0.013381
0.0128803
0.0116785
0.0102498
0.0091067
0.00856787
0.00848775
0.00870541
0.00908773
0.00951131
0.00991956
0.0102909
0.0106207
0.0109093
0.0111443
0.0112998
0.0113946
0.0114605
0.0115385
0.01168
0.0119377
0.0123401
0.0128961
0.0136369
0.0145787
0.0157166
0.0170208
0.0184379
0.0199004
0.0213406
0.0227011
0.0239408
0.0250353
0.0259746
0.0267596
0.0273988
0.0279049
0.0282926
0.0285779
0.0171859
0.0213332
0.0106984
0.00721421
0.00634517
0.00661029
0.00731237
0.00828021
0.00943734
0.0107033
0.0119391
0.012861
0.0130192
0.0124378
0.0112375
0.00991272
0.00892253
0.0084877
0.00845401
0.00865956
0.00900478
0.00939251
0.00977171
0.0101227
0.0104398
0.010707
0.0108936
0.0110188
0.0111155
0.0112265
0.0114099
0.0117281
0.0122132
0.0128562
0.0136719
0.0146889
0.0159035
0.0172859
0.0187802
0.0203155
0.0218203
0.0232341
0.0245142
0.0256356
0.0265887
0.0273756
0.0280063
0.0284952
0.0288591
0.0291157
0.0173082
0.0208902
0.00995572
0.00630788
0.00533672
0.00553667
0.0061637
0.0070282
0.00807617
0.00927644
0.0105678
0.0117936
0.0126178
0.012677
0.0120453
0.0108667
0.00964731
0.00877392
0.00838488
0.00839087
0.00858061
0.00889081
0.00924616
0.0096029
0.00994238
0.0102412
0.0104608
0.0106196
0.0107516
0.0109007
0.0111303
0.0115135
0.0120882
0.0128273
0.0137244
0.0148213
0.0161164
0.0175794
0.0191522
0.0207598
0.022327
0.0237907
0.0251064
0.0262489
0.0272093
0.0279909
0.0286052
0.0290683
0.0293984
0.0296155
0.0174327
0.0204226
0.0093555
0.00557557
0.0045173
0.00464312
0.00518067
0.00592978
0.00684676
0.00792558
0.00914598
0.0104413
0.0116273
0.0123586
0.0123433
0.0116883
0.0105548
0.00943022
0.00863119
0.00828386
0.00829736
0.00846868
0.0087508
0.00908334
0.00943
0.00975493
0.0100077
0.0102021
0.0103732
0.010566
0.0108477
0.0113007
0.0119679
0.012806
0.0137897
0.0149712
0.0163503
0.0178961
0.0195474
0.0212257
0.0228519
0.0243606
0.025706
0.0268632
0.0278241
0.0285937
0.0291848
0.0296169
0.0299039
0.0300747
0.0175613
0.019927
0.0088546
0.00502612
0.00388607
0.00392603
0.00436029
0.00498639
0.00576487
0.00670146
0.00779467
0.00901077
0.0102893
0.0114312
0.0120818
0.0120176
0.0113516
0.0102782
0.0092338
0.00850252
0.00817547
0.0081832
0.0083353
0.00859906
0.00892465
0.00926207
0.00954422
0.00977429
0.00998748
0.0102293
0.0105686
0.0110941
0.0118532
0.0127899
0.0138639
0.015134
0.0165999
0.0182291
0.0199577
0.0217034
0.0233838
0.0249311
0.026299
0.0274627
0.028416
0.0291662
0.02972
0.0301067
0.0303486
0.0304689
0.0177031
0.0193592
0.00840367
0.00460789
0.00343331
0.00337705
0.00369953
0.00419921
0.00483934
0.00562912
0.00657346
0.00765447
0.00885624
0.0101175
0.0112188
0.0117958
0.0116903
0.0110254
0.0100163
0.00904992
0.0083724
0.00805606
0.00805354
0.00819606
0.00845747
0.00878234
0.00908518
0.00934873
0.00960533
0.00989975
0.0102997
0.0108967
0.0117422
0.0127745
0.0139427
0.0153048
0.0168585
0.0185699
0.0203724
0.0221807
0.0239091
0.025488
0.0268702
0.0280312
0.028966
0.0296832
0.0302004
0.0305406
0.030729
0.0307913
0.0179006
0.0186933
0.00798637
0.00427797
0.00312635
0.00297477
0.00318891
0.00356699
0.00407341
0.00472121
0.00551299
0.00643537
0.00749991
0.00869462
0.00993836
0.0109908
0.0114946
0.0113572
0.0107016
0.00975733
0.00886348
0.00823308
0.00792502
0.0079198
0.00806877
0.00834231
0.00865356
0.00894323
0.00924054
0.00958675
0.0100452
0.0107067
0.0116298
0.0127563
0.0140231
0.0154777
0.0171168
0.018906
0.0207771
0.0226417
0.0244115
0.026015
0.0274047
0.0285569
0.0294679
0.0301485
0.0306186
0.0309035
0.0310307
0.0310281
0.0180622
0.0180098
0.00758868
0.00400743
0.00288374
0.00268024
0.00281213
0.00308544
0.00346836
0.00398149
0.00462702
0.0053901
0.00629093
0.00734765
0.00853657
0.00975501
0.0107423
0.0111735
0.0110017
0.0103624
0.00948479
0.00866416
0.00808008
0.00778627
0.00779925
0.00797537
0.00826292
0.00857363
0.00890594
0.0092973
0.00980511
0.0105171
0.0115035
0.0127272
0.0141019
0.0156427
0.0173607
0.0192212
0.0211541
0.023068
0.0248721
0.0264931
0.0278831
0.0290195
0.0299001
0.0305377
0.0309545
0.0311784
0.0312396
0.0311666
0.018219
0.0172615
0.00720367
0.00378505
0.00269709
0.00247634
0.00254969
0.0027396
0.00301681
0.00340678
0.00391764
0.0045319
0.00526837
0.00615681
0.00720809
0.00838742
0.00956605
0.0104689
0.0108187
0.0106201
0.00999826
0.00919087
0.00844444
0.00791195
0.00766116
0.00771463
0.00793536
0.00824978
0.00860941
0.00903432
0.00957386
0.0103193
0.011367
0.0126878
0.0141646
0.0157843
0.0175737
0.0194982
0.021486
0.0234423
0.0252735
0.0269051
0.0282892
0.0294038
0.0302484
0.0308376
0.0311959
0.0313536
0.0313423
0.0311981
0.0183788
0.0164018
0.00683087
0.0035953
0.00256614
0.00234198
0.00237427
0.00250244
0.00269782
0.0029828
0.00337328
0.0038585
0.00444315
0.00516299
0.00604275
0.00708905
0.00825163
0.00936861
0.0101612
0.0104273
0.0101995
0.0096071
0.00886954
0.00819862
0.00774198
0.00756986
0.00768978
0.00797056
0.00834492
0.00879012
0.00935016
0.0101237
0.0112221
0.0126281
0.0141979
0.0158887
0.0177418
0.0197232
0.0217584
0.0237497
0.0256011
0.0272371
0.0286097
0.0296981
0.030503
0.0310405
0.0313369
0.0314259
0.0313451
0.0311258
0.0185502
0.0156076
0.00648092
0.00342553
0.00246734
0.00225032
0.00225728
0.00234333
0.00248115
0.00268605
0.00297472
0.00335209
0.00380827
0.00437529
0.00508399
0.00595945
0.00700048
0.00813058
0.00915293
0.00980988
0.00999843
0.00974432
0.00918297
0.00851366
0.0079344
0.00757261
0.00756303
0.00775283
0.00810262
0.00856117
0.00913608
0.00993226
0.0110698
0.0125434
0.0141922
0.0159455
0.0178545
0.0198848
0.0219596
0.0239782
0.0258428
0.0274773
0.0288341
0.0298931
0.0306564
0.0311418
0.0313784
0.0314001
0.031244
0.0309485
0.0187209
0.0149307
0.00614123
0.00326668
0.00238629
0.00218327
0.00217633
0.00223565
0.00233566
0.00248508
0.00269602
0.00298312
0.00334141
0.00378159
0.00433812
0.0050417
0.00591874
0.00694828
0.00801656
0.00889928
0.00943054
0.0095368
0.00925579
0.00872262
0.00813087
0.00766415
0.0074907
0.00758489
0.00788617
0.00833961
0.00892617
0.00973785
0.0109067
0.0124332
0.0141412
0.0159475
0.0179037
0.0199744
0.0220803
0.0241183
0.0259893
0.0276171
0.0289544
0.0299818
0.030702
0.0311339
0.0313086
0.0312627
0.031036
0.0306681
0.0188918
0.0142459
0.00579504
0.0031156
0.00231535
0.00213013
0.0021164
0.00215984
0.0022363
0.00234977
0.00250805
0.00272391
0.00300664
0.00335341
0.00378744
0.004341
0.00504803
0.00592582
0.00692321
0.00787832
0.00862136
0.00902677
0.0090471
0.00873636
0.00823465
0.00775431
0.00745856
0.00746874
0.00769759
0.00812359
0.00871662
0.00953959
0.0107311
0.0122931
0.0140426
0.01589
0.0178836
0.0199856
0.0221137
0.0241631
0.0260343
0.0276513
0.0289672
0.0299632
0.0306422
0.0310241
0.0311402
0.0310301
0.0307354
0.030298
0.0190662
0.0135726
0.00544982
0.00297528
0.00225114
0.00208397
0.00206867
0.00210353
0.00216586
0.00225704
0.0023817
0.00254837
0.00277004
0.00305167
0.00339654
0.00383233
0.00439077
0.00510576
0.00597068
0.00689122
0.00772008
0.00832098
0.00859795
0.00853216
0.00819226
0.00776598
0.00743716
0.00736149
0.00752101
0.00791026
0.00850416
0.00933769
0.0105448
0.0121231
0.0138935
0.0157704
0.0177915
0.0199151
0.0220562
0.0241091
0.0259747
0.0275776
0.0288714
0.0298372
0.030478
0.0308136
0.0308769
0.030708
0.0303507
0.029849
0.0192463
0.0129033
0.00512481
0.00285044
0.00219351
0.00204342
0.00202892
0.00205957
0.00211374
0.0021913
0.00229521
0.00243113
0.00260786
0.00283751
0.0031236
0.00347445
0.0039188
0.00448915
0.00520461
0.00602497
0.00684674
0.00754039
0.00799469
0.00814465
0.00799392
0.00767078
0.0073697
0.00724042
0.00734316
0.00769407
0.0082831
0.0091332
0.010348
0.0119223
0.0136935
0.01559
0.0176289
0.0197641
0.0219083
0.0239563
0.0258106
0.0273968
0.028669
0.0296079
0.0302155
0.0305114
0.0305285
0.0303078
0.0298946
0.0293351
0.019433
0.0122364
0.00482052
0.00273996
0.00214323
0.00200877
0.00199537
0.00202363
0.00207358
0.00214292
0.00223411
0.00235112
0.00249983
0.00268901
0.00292945
0.00322481
0.00358741
0.00404604
0.00462572
0.00532106
0.00607358
0.00678105
0.00733122
0.00763948
0.00766559
0.00747104
0.00722827
0.00709024
0.00715563
0.00747281
0.00805448
0.00892283
0.0101406
0.0116927
0.013448
0.015355
0.017401
0.0195362
0.0216726
0.0237071
0.0255444
0.027112
0.0283642
0.0292806
0.0298618
0.0301263
0.0301059
0.029842
0.029381
0.0287713
0.0196275
0.0115744
0.00454119
0.00264266
0.00210092
0.00198057
0.00196774
0.0019938
0.00204105
0.00210587
0.00218932
0.0022948
0.00242631
0.00258952
0.00279321
0.00304696
0.00335518
0.00373308
0.00420512
0.0047806
0.00543532
0.00610132
0.00668182
0.0070859
0.00725227
0.00718644
0.00701936
0.00690215
0.00695196
0.00724288
0.007815
0.00869542
0.00991267
0.0114346
0.0131713
0.0150737
0.0171133
0.0192354
0.0213525
0.0233645
0.0251798
0.0267277
0.0279626
0.0288625
0.0294258
0.0296685
0.0296208
0.0293236
0.0288242
0.0281728
0.0198301
0.0109269
0.00429168
0.00255726
0.00206639
0.00195874
0.00194608
0.00196972
0.00201399
0.00207541
0.00215432
0.00225293
0.00237418
0.00252175
0.00270101
0.00292063
0.00318926
0.00351213
0.00390432
0.00438007
0.00493419
0.00552922
0.00609255
0.00653942
0.00680152
0.0068463
0.00675895
0.00667896
0.00672972
0.00700571
0.00756755
0.00845012
0.00966118
0.0111573
0.0128686
0.0147515
0.01677
0.0188654
0.0209516
0.0229328
0.0247217
0.0262497
0.0274711
0.028362
0.0289171
0.0291492
0.0290859
0.0287665
0.0282387
0.0275546
0.0200407
0.0103092
0.00407377
0.0024875
0.00203981
0.00194252
0.00193011
0.00195166
0.00199313
0.00205137
0.00212658
0.00222034
0.00233483
0.00247263
0.00263701
0.00283302
0.00306905
0.00335257
0.00368854
0.00408741
0.00455275
0.00506818
0.00558576
0.00603574
0.00635178
0.00648069
0.00646649
0.00643015
0.00649406
0.00676493
0.00731838
0.00819688
0.00939563
0.0108634
0.012542
0.0143926
0.016376
0.0184313
0.0204756
0.0224183
0.0241771
0.0256859
0.0268987
0.0277887
0.0283466
0.0285803
0.0285136
0.0281838
0.0276383
0.0269305
0.0202593
0.0097402
0.00388757
0.00243099
0.00201984
0.00193093
0.00191911
0.00193909
0.00197838
0.00203408
0.00210632
0.00219638
0.00230593
0.00243685
0.00259121
0.00277195
0.00298377
0.00323467
0.00353047
0.00387278
0.00426625
0.00470653
0.00516584
0.00559261
0.00592905
0.00611452
0.00616096
0.00616806
0.00625237
0.00652463
0.0070737
0.00794365
0.0091237
0.0105578
0.0121959
0.0140028
0.0159378
0.0179406
0.0199325
0.0218296
0.023555
0.0250458
0.0262552
0.0271533
0.0277253
0.0279732
0.0279161
0.027588
0.0270355
0.0263129
0.0204858
0.00923563
0.0037295
0.00238499
0.00200505
0.00192339
0.00191229
0.00193132
0.00196908
0.00202297
0.00209306
0.00218038
0.00228627
0.00241212
0.00255925
0.00272923
0.00292451
0.00314953
0.00341151
0.00371241
0.00405035
0.00442614
0.00482568
0.00521475
0.00554776
0.00576521
0.00585779
0.00590414
0.00601141
0.00629096
0.00683682
0.00769557
0.00885126
0.0102459
0.0118359
0.0135885
0.0154632
0.017402
0.0193318
0.0211766
0.0228659
0.0243399
0.0255513
0.0264663
0.0270638
0.027339
0.0273045
0.0269903
0.026441
0.025712
0.0207198
0.00880008
0.00359353
0.00234699
0.00199397
0.00191899
0.00190896
0.00192743
0.00196434
0.00201713
0.00208577
0.00217113
0.00227432
0.00239634
0.00253798
0.00269993
0.00288315
0.00308957
0.00332327
0.0035891
0.00388498
0.00420786
0.00455238
0.0048982
0.00521219
0.00544296
0.00556799
0.00564742
0.00577755
0.00606723
0.00660996
0.00745642
0.00858234
0.0099323
0.0114672
0.0131563
0.0149602
0.0168246
0.0186839
0.0204702
0.0221206
0.0235789
0.0247973
0.0257377
0.0263721
0.0266872
0.0266884
0.0264
0.025864
0.0251361
0.02096
0.00843071
0.00347263
0.00231469
0.00198544
0.00191662
0.00190781
0.00192652
0.00196321
0.00201547
0.00208325
0.00216728
0.00226846
0.00238751
0.00252483
0.00268047
0.00285439
0.00304684
0.0032592
0.00349439
0.00375403
0.00403443
0.00433127
0.00463419
0.004921
0.0051524
0.00529841
0.00540434
0.00555571
0.00585577
0.00639697
0.00722825
0.00832028
0.00962124
0.0110948
0.0127124
0.0144365
0.0162178
0.0179988
0.0197212
0.0213298
0.0227731
0.0240029
0.0249767
0.0256586
0.0260262
0.0260757
0.0258246
0.0253113
0.0245916
0.0212045
0.00812052
0.00336244
0.00228605
0.00197824
0.00191541
0.00190819
0.00192771
0.00196471
0.00201692
0.00208428
0.00216743
0.0022671
0.00238379
0.00251759
0.00266808
0.00283451
0.00301596
0.00321199
0.00342303
0.00365018
0.00389311
0.004149
0.00441217
0.00467068
0.00489449
0.00505261
0.00517903
0.00534928
0.00565961
0.00619963
0.00701253
0.00806864
0.0093163
0.0107234
0.0122627
0.0138996
0.0155905
0.0172868
0.01894
0.0205039
0.0219321
0.023177
0.0241911
0.0249307
0.0253626
0.0254726
0.0252699
0.0247883
0.024083
0.0214525
0.0078568
0.00326385
0.00225924
0.00197153
0.00191474
0.00190955
0.00193027
0.00196792
0.00202041
0.00208769
0.0021703
0.00226883
0.00238359
0.00251443
0.00266058
0.00282077
0.00299326
0.0031763
0.0033686
0.0035696
0.00377945
0.00399856
0.00422559
0.00445647
0.00466797
0.00483183
0.00497377
0.00516038
0.00548048
0.00601816
0.00681146
0.00782973
0.0090202
0.0103565
0.0118124
0.0133564
0.0149511
0.0165571
0.0181365
0.0196524
0.0210647
0.022327
0.0233877
0.0241942
0.0247018
0.0248841
0.0247405
0.0242989
0.0236134
0.0217037
0.0076148
0.00317162
0.0022333
0.00196469
0.00191404
0.00191112
0.00193337
0.00197197
0.002025
0.0020924
0.0021747
0.00227235
0.00238551
0.0025138
0.00265622
0.00281108
0.00297608
0.00314854
0.00332588
0.00350622
0.00368917
0.00387626
0.00407037
0.00427385
0.00447056
0.00463585
0.00478945
0.00499007
0.00531902
0.00585323
0.00662581
0.00760376
0.00873513
0.0099974
0.0113662
0.0128133
0.0143075
0.0158188
0.0173199
0.018784
0.0201786
0.0214597
0.0225718
0.0234537
0.0240477
0.0243136
0.0242394
0.0238457
0.0231847
0.0219594
0.00736796
0.00308445
0.00220792
0.00195726
0.00191268
0.00191234
0.00193638
0.00197606
0.00202974
0.00209744
0.0021796
0.00227658
0.00238838
0.00251446
0.00265362
0.00280388
0.00296252
0.0031262
0.00329139
0.00345516
0.00361636
0.00377681
0.0039416
0.00411881
0.00429967
0.00446365
0.00462607
0.00483874
0.0051754
0.00570502
0.00645527
0.00739154
0.00846315
0.00964935
0.0109287
0.012276
0.0136668
0.0150799
0.0164988
0.0179072
0.0192811
0.0205807
0.021748
0.0227125
0.023403
0.0237636
0.0237689
0.0234305
0.0227981
0.0222206
0.00712839
0.00300396
0.00218283
0.00194879
0.00191
0.00191287
0.00193861
0.00197946
0.0020339
0.00210197
0.00218411
0.00228057
0.00239122
0.00251538
0.00265168
0.00279796
0.00295117
0.00310751
0.00326276
0.00341315
0.00355678
0.00369541
0.00383512
0.00398809
0.00415293
0.00431393
0.00448316
0.00470627
0.0050495
0.00557347
0.00630003
0.00719441
0.00820628
0.00931539
0.0105039
0.0117502
0.0130358
0.0143483
0.0156812
0.0170294
0.0183786
0.019695
0.0209198
0.0219732
0.0227695
0.0232356
0.0233301
0.0230545
0.0224544
0.0224861
0.00691569
0.00293166
0.00215777
0.0019388
0.00190555
0.00191209
0.00193952
0.00198154
0.00203674
0.00210527
0.00218749
0.00228356
0.00239324
0.00251574
0.00264956
0.0027924
0.002941
0.00309122
0.00323833
0.00337794
0.0035075
0.00362849
0.00374744
0.00387903
0.00402836
0.00418544
0.00436004
0.0045923
0.00494103
0.00545833
0.00616001
0.00701278
0.00796588
0.00899805
0.0100956
0.0112407
0.0124204
0.0136306
0.0148745
0.0161578
0.0174772
0.018807
0.0200895
0.0212371
0.022148
0.0227301
0.0229239
0.0227182
0.0221539
0.022755
0.00672683
0.00286586
0.00213233
0.00192706
0.00189946
0.00190937
0.00193853
0.00198172
0.00203773
0.00210673
0.0021891
0.00228491
0.0023938
0.00251488
0.00264659
0.0027865
0.00293123
0.00307641
0.00321695
0.003348
0.00346647
0.0035735
0.00367578
0.00378935
0.00392443
0.00407714
0.00425607
0.00449639
0.00484957
0.00535921
0.00603488
0.00684617
0.00774218
0.00869909
0.00970666
0.0107514
0.0118259
0.012933
0.0140852
0.0152988
0.0165824
0.0179205
0.0192594
0.0205049
0.0215388
0.0222472
0.0225501
0.0224216
0.0218964
0.0230262
0.00656083
0.00280522
0.0021064
0.00191368
0.00189169
0.00190442
0.00193527
0.00197955
0.00203631
0.00210585
0.00218845
0.00228412
0.0023924
0.00251233
0.00264227
0.00277975
0.0029213
0.00306243
0.0031978
0.00332223
0.00343224
0.00352859
0.00361799
0.0037171
0.00383989
0.00398825
0.00417078
0.00441816
0.00477473
0.00527569
0.00592444
0.00669364
0.00753508
0.00841949
0.00933949
0.010286
0.0112568
0.0122611
0.0133194
0.0144584
0.0156994
0.0170392
0.018431
0.0197767
0.020941
0.0217861
0.0222085
0.0221648
0.0216818
0.0232985
0.00641519
0.00274845
0.0020794
0.00189849
0.00188178
0.001897
0.00192932
0.00197462
0.00203214
0.00210222
0.00218514
0.00228078
0.00238864
0.00250767
0.00263621
0.00277175
0.0029108
0.00304879
0.00318025
0.00329983
0.00340375
0.00349241
0.00357246
0.00366064
0.00377363
0.00391821
0.00410379
0.00435732
0.00471612
0.00520743
0.00582923
0.00655511
0.00734321
0.0081596
0.00899589
0.00984729
0.0107168
0.0116193
0.0125824
0.0136423
0.0148332
0.0161664
0.0176056
0.0190518
0.0203534
0.0213457
0.021898
0.0219471
0.0215096
0.0235722
0.00628291
0.00269426
0.00205109
0.00188055
0.00186942
0.00188685
0.00192042
0.00196659
0.00202483
0.00209552
0.00217885
0.00227462
0.00238223
0.00250063
0.00262812
0.0027622
0.00289939
0.00303511
0.00316385
0.00328017
0.00338015
0.00346389
0.00353788
0.00361863
0.00372462
0.00386649
0.00405484
0.00431357
0.0046734
0.00515407
0.00574885
0.00643112
0.00716562
0.00791858
0.00867626
0.00943726
0.010209
0.0110116
0.0118788
0.0128554
0.0139884
0.0153052
0.0167842
0.0183293
0.0197741
0.0209243
0.0216176
0.0217683
0.0213795
0.0238454
0.00615565
0.0026417
0.00202023
0.00185987
0.00185431
0.00187371
0.00190822
0.00195517
0.00201416
0.00208551
0.00216935
0.00226539
0.00237297
0.002491
0.0026178
0.00275088
0.00288684
0.00302111
0.0031482
0.00326274
0.00336076
0.00344214
0.00351318
0.0035899
0.00369187
0.00383251
0.00402361
0.00428657
0.00464616
0.00511518
0.00568293
0.00632246
0.00700237
0.0076938
0.00837938
0.00905617
0.00973495
0.0104405
0.0112121
0.0121022
0.0131693
0.014459
0.015968
0.017608
0.0192003
0.0205194
0.0213678
0.0216275
0.0212915
0.0241196
0.00603447
0.00259038
0.00198703
0.00183599
0.00183571
0.0018573
0.00189259
0.00194017
0.0019999
0.00207203
0.0021565
0.00225295
0.00236069
0.00247863
0.00260508
0.00273763
0.00287295
0.00300653
0.00313299
0.00324709
0.00334496
0.00342636
0.00349735
0.00357338
0.00367439
0.00381557
0.0040096
0.00427581
0.00463378
0.00509025
0.00563111
0.00622917
0.0068554
0.00748483
0.00810193
0.00870224
0.00929476
0.00990774
0.0105853
0.0113863
0.0123804
0.0136312
0.0151581
0.0168866
0.0186287
0.0201265
0.0211404
0.021522
0.0212458
0.0243933
0.00591793
0.00253967
0.00195135
0.00180861
0.00181279
0.00183702
0.00187336
0.00192149
0.001982
0.00205496
0.00214018
0.0022372
0.00234531
0.00246342
0.00258987
0.00272233
0.00285757
0.00299117
0.00311791
0.00323281
0.00333217
0.00341575
0.00348942
0.00356798
0.00367111
0.00381477
0.00401212
0.00428062
0.00463556
0.0050786
0.0055928
0.00615083
0.00672542
0.00729424
0.0078437
0.0083717
0.00888664
0.00941336
0.00999991
0.0107108
0.0116253
0.0128253
0.0143561
0.0161638
0.0180567
0.0197439
0.0209385
0.0214515
0.0212412
0.0246659
0.0058054
0.00248924
0.00191329
0.00177813
0.00178569
0.00181242
0.00185049
0.00189912
0.00196035
0.00203427
0.00212034
0.00221811
0.00232678
0.00244531
0.0025721
0.00270488
0.00284055
0.00297484
0.0031027
0.00321948
0.0033218
0.00340953
0.00348838
0.00357251
0.00368082
0.00382905
0.00403021
0.00430011
0.00465062
0.00507942
0.00556731
0.00608682
0.00661198
0.00712278
0.00760756
0.00806515
0.00850714
0.00895609
0.00945645
0.0100778
0.0109076
0.012045
0.013564
0.0154386
0.0174807
0.0193665
0.0207577
0.0214179
0.0212721
0.02494
0.00569818
0.00243915
0.00187344
0.00174567
0.00175487
0.00178354
0.00182353
0.00187309
0.00193502
0.0020099
0.00209698
0.00219564
0.00230509
0.00242429
0.00255172
0.00268521
0.0028218
0.00295735
0.00308707
0.00320672
0.0033133
0.00340691
0.00349321
0.00358571
0.00370215
0.00385708
0.0040627
0.00433319
0.00467795
0.00509179
0.00555377
0.00603631
0.00651438
0.00696994
0.00739348
0.00778504
0.0081568
0.00853379
0.00895456
0.00948862
0.0102302
0.0112941
0.0127843
0.0147107
0.0168972
0.0189897
0.0205916
0.0214093
0.0213355
0.0252125
0.00559458
0.00238876
0.00183241
0.00171111
0.00172069
0.0017507
0.00179247
0.00184333
0.00190599
0.00198195
0.00207016
0.00216985
0.00228024
0.00240034
0.0025287
0.00266325
0.00280121
0.00293855
0.00307078
0.00319412
0.00330609
0.00340708
0.0035028
0.00360623
0.00373354
0.0038973
0.00410813
0.00437859
0.00471642
0.00511464
0.00555115
0.00599829
0.00643166
0.00683496
0.00720074
0.00753063
0.00783684
0.00814524
0.00849333
0.00894387
0.00959569
0.0105764
0.0120203
0.0139802
0.0163036
0.0186102
0.0204399
0.0214339
0.0214462
0.025488
0.00549204
0.00233726
0.00179113
0.00167434
0.00168336
0.00171419
0.00175749
0.00180988
0.00187341
0.00195049
0.0020399
0.00214076
0.00225227
0.00237351
0.00250305
0.00263899
0.00277868
0.00291827
0.00305356
0.00318131
0.00329959
0.00340923
0.00351605
0.00363259
0.00377326
0.00394788
0.00416482
0.00443482
0.00476475
0.00514684
0.00555832
0.00597154
0.00636263
0.00671673
0.00702839
0.00730082
0.00754666
0.00779058
0.00807141
0.00844351
0.00900574
0.00989556
0.0112757
0.0132481
0.015697
0.0182234
0.0202987
0.0214893
0.0216057
0.0257613
0.0053886
0.00228652
0.00174944
0.00163512
0.00164308
0.00167433
0.00171891
0.0017728
0.00183731
0.00191559
0.0020063
0.00210844
0.00222124
0.00234379
0.00247476
0.00261237
0.00275414
0.00289635
0.00303516
0.0031679
0.00329325
0.00341254
0.00353185
0.00366332
0.00381948
0.00400683
0.00423081
0.00450017
0.00482149
0.00518709
0.00557398
0.00595467
0.00630583
0.00661385
0.00687515
0.00709438
0.00728466
0.00746942
0.00768637
0.00798664
0.00846149
0.00925489
0.0105547
0.0125161
0.015075
0.0178246
0.0201636
0.0215731
0.021803
0.026036
0.00528633
0.00223635
0.00170669
0.00159268
0.00160009
0.00163143
0.00167684
0.00173206
0.0017978
0.00187732
0.00196942
0.00207297
0.0021872
0.00231124
0.00244385
0.00258338
0.00272752
0.00287266
0.00301535
0.00315353
0.00328652
0.00341625
0.00354908
0.00369693
0.00387031
0.00407198
0.00430399
0.00457269
0.0048849
0.00523391
0.00559673
0.00594619
0.00625966
0.00652464
0.00673936
0.00690979
0.00704928
0.00718028
0.00733763
0.00757193
0.00796337
0.00865728
0.00986174
0.0117868
0.0144353
0.0174086
0.0200305
0.0216828
0.0220397
0.026311
0.00519052
0.00218633
0.00166146
0.00154776
0.00155477
0.00158573
0.00163159
0.00168784
0.00175493
0.00183581
0.00192936
0.00203442
0.00215022
0.00227591
0.00241033
0.00255198
0.00269872
0.00284705
0.00299388
0.00313783
0.00327889
0.00341959
0.0035667
0.00373195
0.00392388
0.00414116
0.00438209
0.00465017
0.00495287
0.00528552
0.00562503
0.00594451
0.00622242
0.0064473
0.00661911
0.00674515
0.00683876
0.00692118
0.00702478
0.00719827
0.00751117
0.00810499
0.00920156
0.0110637
0.0137765
0.0169697
0.0198941
0.0218164
0.0223178
0.0265855
0.00511104
0.0021383
0.00161641
0.00150117
0.0015073
0.00153735
0.0015833
0.00164047
0.00170886
0.00179115
0.00188623
0.00199292
0.00211039
0.00223787
0.00237424
0.00251818
0.0026677
0.00281938
0.00297055
0.00312048
0.00326986
0.00342187
0.0035837
0.00376701
0.00397836
0.00421222
0.00446286
0.00473018
0.00502332
0.00534016
0.00565728
0.00594806
0.00619239
0.00638001
0.00651241
0.00659827
0.00665093
0.00669005
0.00674514
0.00686148
0.00710324
0.00759935
0.00857871
0.0103516
0.013098
0.0165025
0.0197483
0.0219713
0.0226368
0.0268571
0.00504206
0.00209135
0.00157049
0.00145299
0.0014577
0.00148636
0.00153221
0.00159019
0.00165969
0.00174343
0.00184011
0.00194851
0.00206777
0.00219713
0.00233557
0.00248194
0.00263438
0.00278952
0.00294514
0.00310117
0.00325899
0.00342243
0.00359917
0.00380084
0.00403209
0.00428313
0.00454415
0.0048108
0.00509538
0.0053969
0.0056921
0.00595552
0.00616798
0.00632102
0.0064173
0.0064669
0.00648327
0.00648448
0.00649672
0.0065606
0.00673789
0.00714103
0.00799739
0.00965602
0.0124008
0.0160013
0.0195863
0.0221427
0.0229957
0.0271168
0.0049717
0.00204327
0.001523
0.0014031
0.00140593
0.00143285
0.00147833
0.00153705
0.00160753
0.00169274
0.00179114
0.00190134
0.00202248
0.0021538
0.00229437
0.00244325
0.00259869
0.00275736
0.00291745
0.00307959
0.00324584
0.00342067
0.00361227
0.00383228
0.00408353
0.00435204
0.00462411
0.00489137
0.00516906
0.00545542
0.0057287
0.00596555
0.00614785
0.00626875
0.00633199
0.00634891
0.00633322
0.00630164
0.00627696
0.00629487
0.00641408
0.00672993
0.00746109
0.00898327
0.011687
0.015461
0.0194009
0.022325
0.0233936
0.0273707
0.00490142
0.00199345
0.00147409
0.00135136
0.00135204
0.00137697
0.00142187
0.00148095
0.00155245
0.00163919
0.00173938
0.00185148
0.00197457
0.00210789
0.00225064
0.00240209
0.00256058
0.00272276
0.00288729
0.00305548
0.00323004
0.00341607
0.00362226
0.00386031
0.00413134
0.00441735
0.00470115
0.00497122
0.00524321
0.00551474
0.0057663
0.00597704
0.00613093
0.0062218
0.00625487
0.00624237
0.00619838
0.00613855
0.00608268
0.00606087
0.00612702
0.00636399
0.00697205
0.00833991
0.0109605
0.0148768
0.0191849
0.0225171
0.0238327
0.0276159
0.00482938
0.00194071
0.00142324
0.00129771
0.00129617
0.00131886
0.00136287
0.00142198
0.00149454
0.00158289
0.00168498
0.0017991
0.00192417
0.00205952
0.00220443
0.00235845
0.00251998
0.0026856
0.00285448
0.00302858
0.00321123
0.00340814
0.00362848
0.00388403
0.00417434
0.00447764
0.00477374
0.00504875
0.0053164
0.00557373
0.00580406
0.00598933
0.00611616
0.00617894
0.00618447
0.00614553
0.00607658
0.00599241
0.00591043
0.00585544
0.00587284
0.00604019
0.00653139
0.00773247
0.0102267
0.0142455
0.018931
0.0227162
0.0243157
0.0278502
0.00475664
0.00188081
0.00136917
0.00124227
0.00123855
0.00125879
0.00130167
0.00136024
0.00143391
0.00152392
0.00162803
0.00174422
0.00187131
0.00200867
0.00215572
0.0023123
0.00247683
0.00264579
0.00281886
0.00299867
0.00318911
0.00339645
0.00363036
0.00390268
0.00421153
0.00453169
0.00484042
0.00512223
0.00538697
0.00563101
0.00584092
0.00600157
0.00610253
0.00613906
0.00611947
0.00605685
0.0059659
0.00586074
0.0057569
0.00567487
0.00565064
0.00575693
0.00613956
0.00716668
0.0094918
0.0135653
0.018632
0.0229195
0.0248462
0.0280878
0.00468111
0.00181758
0.00131194
0.00118524
0.00117943
0.00119697
0.00123852
0.0012959
0.00137062
0.00146243
0.00156871
0.00168704
0.0018162
0.00195547
0.00210457
0.00226362
0.00243105
0.00260319
0.00278026
0.0029655
0.00316336
0.00338062
0.00362738
0.00391558
0.00424204
0.00457843
0.00489983
0.00518981
0.00545303
0.00568499
0.0058756
0.00601271
0.00608885
0.00610111
0.00605864
0.0059749
0.0058646
0.00574133
0.00561914
0.00551519
0.00545768
0.00551127
0.00579521
0.00664679
0.00875993
0.0128358
0.0182802
0.0231232
0.0254291
0.028337
0.00460404
0.00174841
0.00125138
0.00112693
0.00111915
0.00113358
0.00117314
0.0012291
0.00130486
0.00139852
0.00150704
0.00162759
0.0017588
0.00189991
0.00205094
0.00221237
0.00238257
0.0025577
0.00273851
0.00292889
0.00313373
0.0033603
0.00361911
0.00392218
0.00426517
0.00461696
0.00495071
0.00524956
0.00551253
0.00573387
0.00590661
0.00602161
0.0060747
0.0060641
0.0060008
0.00589833
0.0057711
0.00563221
0.00549458
0.00537286
0.00528928
0.00529526
0.00549468
0.00617617
0.0080295
0.0120613
0.0178675
0.023321
0.0260692
0.0285783
0.00452669
0.00167388
0.00118807
0.00106786
0.00105807
0.00106896
0.00110526
0.00116006
0.00123674
0.00133239
0.00144322
0.00156614
0.00169932
0.00184215
0.00199488
0.00215852
0.00233132
0.00250918
0.00269347
0.00288861
0.00309997
0.00333518
0.00360516
0.00392198
0.00428028
0.00464647
0.00499192
0.00529963
0.00556333
0.00577569
0.00593229
0.00602684
0.00605799
0.0060268
0.0059448
0.00582584
0.00568389
0.0055316
0.00538099
0.00524484
0.00514096
0.00510704
0.00523574
0.00576394
0.00732477
0.011257
0.017382
0.0235007
0.0267683
0.0288093
0.00443956
0.00159587
0.00112326
0.00100888
0.000996409
0.00100296
0.00103544
0.00108903
0.00116663
0.00126407
0.0013773
0.0015026
0.00163776
0.00178212
0.00193633
0.00210202
0.00227721
0.00245754
0.00264496
0.00284449
0.00306182
0.00330498
0.00358519
0.00391456
0.00428686
0.00466627
0.00502244
0.00533833
0.00560333
0.00580838
0.00595082
0.00602684
0.0060379
0.00598802
0.00588943
0.00575614
0.00560152
0.00543783
0.00527633
0.00512843
0.00500868
0.00494524
0.0050178
0.00542309
0.00672918
0.0104423
0.0168053
0.0236416
0.0275251
0.0290322
0.00433834
0.00151735
0.0010593
0.000950998
0.000934332
0.00093538
0.000964318
0.00101656
0.0010946
0.00119379
0.00130954
0.00143726
0.0015744
0.00172
0.00187538
0.00204281
0.00222012
0.00240261
0.00259282
0.00279629
0.00301904
0.00326941
0.00355886
0.00389954
0.00428442
0.00467575
0.00504141
0.00536417
0.00563057
0.00582986
0.00596013
0.00602015
0.00601305
0.00594654
0.00583343
0.00568789
0.00552255
0.00534927
0.00517873
0.00502127
0.00488909
0.00480413
0.00483319
0.00514233
0.00625152
0.00961146
0.0161146
0.0237177
0.0283387
0.0292596
0.00421479
0.00144175
0.000998661
0.00089411
0.00087231
0.000867055
0.000892834
0.000943213
0.00102122
0.00112171
0.0012398
0.00137004
0.00150911
0.00165574
0.00181194
0.00198082
0.00215998
0.00234426
0.00253687
0.00274383
0.0029714
0.0032282
0.00352589
0.00387658
0.00427256