/*--------------------------------*- C++ -*----------------------------------*\
  =========                 |
  \\      /  F ield         | OpenFOAM: The Open Source CFD Toolbox
   \\    /   O peration     | Website:  https://openfoam.org
    \\  /    A nd           | Version:  10
     \\/     M anipulation  |
\*---------------------------------------------------------------------------*/
FoamFile
{
    format      ascii;
    class       volScalarField;
    location    "40000";
    object      nut;
}
// * * * * * * * * * * * * * * * * * * * * * * * * * * * * * * * * * * * * * //

dimensions      [0 2 -1 0 0 0 0];

internalField   nonuniform List<scalar> 
20625
(
4.25112e-06
1.88607e-05
2.7077e-05
3.58597e-05
5.666e-05
8.61453e-05
0.000105407
0.000117495
0.000123528
0.000119996
0.000116697
0.000119151
0.000128734
0.000138245
0.0001494
0.000172677
0.000208474
0.000254507
0.000308516
0.000367707
0.000429443
0.000490973
0.000549554
0.00060254
0.000647257
0.000679439
0.000647097
0.00061263
0.000584469
0.00056523
0.000569024
0.000602511
0.000624271
0.000602237
0.000581568
0.000563671
0.000550042
0.00054151
0.000537834
0.000538
0.000540713
0.000544772
0.000549251
0.000553529
0.000557246
0.000560234
0.000562453
0.000563943
0.000564796
0.000565112
4.37805e-06
1.85506e-05
2.45001e-05
3.17061e-05
5.20158e-05
8.27366e-05
0.000105404
0.000120497
0.000128395
0.000126948
0.000121776
0.000118794
0.000123657
0.000136434
0.00014481
0.000158369
0.000184936
0.000223116
0.000270854
0.000325762
0.000384378
0.000443878
0.000501529
0.000554589
0.00060028
0.000634264
0.000601179
0.000568439
0.000542858
0.000524277
0.000521816
0.000549106
0.000597185
0.000584156
0.000566969
0.000551756
0.000540144
0.000533088
0.000530458
0.000531323
0.000534445
0.000538668
0.000543105
0.000547177
0.000550562
0.000553128
0.000554863
0.000555836
0.000556158
0.000555945
4.49484e-06
1.82917e-05
2.23029e-05
2.83934e-05
4.73385e-05
7.81958e-05
0.000104146
0.000122717
0.000133198
0.000134399
0.000129474
0.000124167
0.000122368
0.000130357
0.00014503
0.000151927
0.000167679
0.000196645
0.000236881
0.000285338
0.000339607
0.000396305
0.000452405
0.000505078
0.000551511
0.000587299
0.000556175
0.000524681
0.000501163
0.000484708
0.000480444
0.000501239
0.000548417
0.000565878
0.000552517
0.000540208
0.000530718
0.000525165
0.000523556
0.000525057
0.000528497
0.000532774
0.000537053
0.000540801
0.000543739
0.000545772
0.000546921
0.000547286
0.000546999
0.000546191
4.60657e-06
1.80292e-05
2.0632e-05
2.53934e-05
4.28419e-05
7.27039e-05
0.000101542
0.000123604
0.000137134
0.000140781
0.000137142
0.000132139
0.000127022
0.000127523
0.000139317
0.000151476
0.00015944
0.00017687
0.000206901
0.000248575
0.000296818
0.000349432
0.000403152
0.000454882
0.000501733
0.000539227
0.000512659
0.000482308
0.000460359
0.00044641
0.000443224
0.000460722
0.000506168
0.000547848
0.000538466
0.000529132
0.000521776
0.000517695
0.000517043
0.000519088
0.000522735
0.000526945
0.00053094
0.000534239
0.000536612
0.000538002
0.000538464
0.000538124
0.000537129
0.000535631
4.7067e-06
1.77738e-05
1.94193e-05
2.23074e-05
3.83471e-05
6.7037e-05
9.76939e-05
0.000122646
0.000139169
0.00014469
0.000143135
0.000139533
0.000134751
0.000130701
0.00013473
0.000150454
0.000158312
0.000167141
0.000185408
0.000216101
0.000257834
0.000304935
0.000355086
0.000405075
0.000451841
0.000490773
0.00047113
0.000442595
0.000422383
0.000410996
0.000410033
0.000426946
0.000472223
0.000530381
0.000524959
0.000518571
0.0005133
0.000510619
0.000510826
0.000513298
0.000517021
0.000521027
0.000524603
0.000527328
0.000529023
0.000529672
0.000529365
0.000528266
0.000526484
0.000524247
4.80048e-06
1.74533e-05
1.85372e-05
2.02169e-05
3.40858e-05
6.15203e-05
9.27597e-05
0.00011975
0.000138643
0.000145084
0.000146458
0.000144896
0.000141514
0.000137375
0.00013587
0.000144642
0.000161476
0.000165381
0.000174706
0.000193492
0.000223961
0.000264749
0.00030984
0.000356908
0.000402777
0.000442668
0.000433275
0.000407442
0.000389229
0.000380151
0.000381724
0.000399781
0.000445866
0.0005136
0.000512047
0.000508518
0.00050524
0.000503849
0.000504788
0.000507544
0.000511195
0.000514848
0.000517864
0.000519884
0.000520784
0.0005206
0.000519384
0.000517397
0.000514823
0.000511834
4.90982e-06
1.70619e-05
1.78351e-05
1.89032e-05
3.10737e-05
5.67954e-05
8.7804e-05
0.000115569
0.000134797
0.000141573
0.000146082
0.000147579
0.000146118
0.000143388
0.0001409
0.000143536
0.00015743
0.000168297
0.00017247
0.000182109
0.000200861
0.000230379
0.000269421
0.000311975
0.000355661
0.000395727
0.000403099
0.000378791
0.000362164
0.000354997
0.000359138
0.000379467
0.000427133
0.000497624
0.000499754
0.000498944
0.000497519
0.000497267
0.000498779
0.000501659
0.000505079
0.000508232
0.000510548
0.000511732
0.000511711
0.000510554
0.000508439
0.000505575
0.000502164
0.000498396
5.0408e-06
1.67498e-05
1.72627e-05
1.79598e-05
3.01209e-05
5.40485e-05
8.33722e-05
0.000110911
0.000127066
0.00013486
0.000141988
0.000146719
0.000148215
0.00014739
0.00014591
0.000146289
0.000154277
0.000172154
0.000175144
0.000179476
0.000189174
0.000207443
0.000235457
0.00027231
0.000312108
0.000351055
0.000382512
0.000357821
0.000342485
0.0003371
0.000344097
0.000366723
0.000413978
0.000482461
0.000488043
0.000489769
0.000490013
0.00049071
0.000492612
0.000495447
0.000498486
0.000501006
0.000502512
0.000502772
0.000501768
0.000499617
0.000496531
0.00049274
0.000488465
0.000483902
5.1774e-06
1.64279e-05
1.67694e-05
1.73214e-05
2.89311e-05
5.14779e-05
7.95591e-05
0.000106703
0.000118968
0.000126781
0.000135463
0.000142657
0.00014728
0.000149106
0.000149187
0.000149718
0.000154625
0.000168698
0.000178886
0.0001818
0.000186237
0.000195839
0.000213322
0.000239554
0.000274221
0.000310219
0.000342599
0.000345553
0.000332478
0.000328895
0.000337499
0.000359788
0.000395483
0.000453167
0.000476811
0.000480868
0.000482546
0.000483976
0.00048608
0.00048871
0.000491231
0.000493002
0.000493603
0.000492866
0.00049082
0.000487633
0.000483552
0.000478827
0.000473696
0.000468343
5.33031e-06
1.60543e-05
1.63426e-05
1.70037e-05
2.77333e-05
4.95836e-05
7.71752e-05
0.000103895
0.000112463
0.000119402
0.000128472
0.00013692
0.000143733
0.000148347
0.000150579
0.000152036
0.000155863
0.000166621
0.000181864
0.000185393
0.000188167
0.000192702
0.000202122
0.00021878
0.000243616
0.000275246
0.00030624
0.000333086
0.000332297
0.000330112
0.000332564
0.000341443
0.0003713
0.000427657
0.000466051
0.000472121
0.000474945
0.000476878
0.000479005
0.000481287
0.000483175
0.000484107
0.000483734
0.000481949
0.000478827
0.000474588
0.000469505
0.000463841
0.000457831
0.000451763
5.50289e-06
1.55796e-05
1.59633e-05
1.68882e-05
2.75642e-05
4.93966e-05
7.66339e-05
0.000101891
0.000108459
0.000114136
0.000122494
0.000131395
0.000139192
0.000145742
0.000150288
0.00015316
0.00015663
0.000165222
0.000182498
0.000187922
0.000191403
0.000194218
0.000198865
0.000208177
0.00022452
0.000247746
0.000275542
0.000302648
0.00032732
0.000326984
0.000322919
0.000327186
0.000352561
0.000405403
0.000455739
0.000463414
0.000467071
0.000469283
0.000471271
0.000473082
0.000474242
0.000474266
0.000472873
0.000470016
0.000465822
0.000460548
0.000454486
0.000447919
0.000441156
0.00043438
5.70003e-06
1.51596e-05
1.56321e-05
1.6914e-05
2.81346e-05
5.04803e-05
7.75962e-05
0.000100927
0.000106996
0.000111673
0.000118768
0.000127511
0.000135681
0.000143018
0.000149187
0.000153456
0.000157115
0.000164159
0.00017884
0.000188039
0.000193487
0.00019694
0.000199876
0.000204744
0.000214437
0.000230106
0.000253014
0.000277562
0.000302842
0.00032183
0.000315953
0.000319619
0.000341907
0.000389072
0.000445842
0.000454656
0.000458827
0.000461107
0.000462812
0.000464049
0.000464409
0.000463475
0.000461038
0.000457105
0.00045186
0.000445601
0.000438647
0.000431244
0.00042371
0.000416285
5.93001e-06
1.48354e-05
1.53304e-05
1.70429e-05
2.92532e-05
5.2457e-05
7.96154e-05
0.000101516
0.000107793
0.000112109
0.000118115
0.000126213
0.000134721
0.000142271
0.000148853
0.00015318
0.000157803
0.000163575
0.000175346
0.000185721
0.000193333
0.000198613
0.000202012
0.000205127
0.000210613
0.000220551
0.000237009
0.000258191
0.000282471
0.000308236
0.00031155
0.000314158
0.00033366
0.000379802
0.000436265
0.000445743
0.000450132
0.000452298
0.000453602
0.000454185
0.000453694
0.000451778
0.000448292
0.000443294
0.000437017
0.000429785
0.000421938
0.00041378
0.000405599
0.000397633
6.1788e-06
1.44781e-05
1.49979e-05
1.7242e-05
3.07852e-05
5.50259e-05
8.22514e-05
0.00010349
0.000110607
0.000115294
0.000120903
0.000128315
0.000136968
0.000144766
0.000151124
0.000156091
0.000157952
0.000163336
0.000172024
0.000182086
0.000191283
0.00019846
0.000203365
0.000206636
0.000210146
0.000216467
0.000227289
0.000244907
0.00026675
0.000292255
0.000309634
0.000311671
0.00032898
0.00037209
0.000426881
0.000436583
0.000440933
0.000442839
0.000443652
0.000443527
0.000442158
0.000439259
0.000434749
0.000428731
0.000421491
0.000413384
0.000404735
0.000395885
0.000387124
0.000378695
6.40535e-06
1.41103e-05
1.44007e-05
1.74933e-05
3.25596e-05
5.78525e-05
8.51097e-05
0.000106938
0.000115302
0.000121045
0.000127081
0.000134343
0.000142787
0.000150812
0.000156744
0.000160661
0.000161815
0.000164012
0.000169983
0.00017877
0.00018838
0.000196882
0.000203346
0.000207702
0.000210875
0.000215155
0.000222554
0.000236107
0.000255117
0.000279488
0.000307781
0.000311381
0.000327552
0.000368215
0.000417577
0.000427116
0.000431222
0.000432759
0.000433019
0.000432151
0.000429895
0.000426029
0.000420531
0.000413553
0.00040542
0.000396502
0.000387155
0.000377711
0.000368466
0.000359667
6.59612e-06
1.37242e-05
1.38458e-05
1.78015e-05
3.42892e-05
6.05512e-05
8.78769e-05
0.000112062
0.000122103
0.000129309
0.000136437
0.000144193
0.00015235
0.000159971
0.000165413
0.000167978
0.000169049
0.000168473
0.000171227
0.000177494
0.000185992
0.000194815
0.000202318
0.000207832
0.000211529
0.000214953
0.000220422
0.000230577
0.000246783
0.000269524
0.000297894
0.000315108
0.000330365
0.000369522
0.000408259
0.000417335
0.000421051
0.000422141
0.000421801
0.000420169
0.00041703
0.000412227
0.000405793
0.000397929
0.00038899
0.000379363
0.000369409
0.000359465
0.000349832
0.000340756
6.74431e-06
1.33184e-05
1.33244e-05
1.81808e-05
3.58399e-05
6.29662e-05
9.03859e-05
0.000115013
0.000131521
0.000140898
0.000149215
0.000157473
0.000165388
0.000172024
0.000176465
0.000177952
0.000177263
0.000176104
0.000175984
0.000179233
0.000185489
0.00019334
0.000201039
0.000207261
0.000211642
0.000214937
0.000219262
0.000227158
0.000240908
0.000261866
0.000289844
0.000320124
0.000339997
0.000377445
0.000398867
0.000407286
0.000410512
0.000411097
0.000410119
0.000407707
0.000403696
0.000397993
0.000390687
0.00038202
0.000372372
0.000362137
0.000351679
0.000341338
0.000331413
0.000322154
6.84484e-06
1.28995e-05
1.28492e-05
1.85746e-05
3.73184e-05
6.52132e-05
9.2673e-05
0.000116942
0.000137546
0.000155033
0.000165417
0.000174032
0.000181725
0.0001875
0.000190348
0.000190282
0.000188042
0.000185154
0.000183522
0.000184023
0.000187552
0.000193448
0.000200289
0.000206545
0.000211291
0.00021471
0.000218416
0.000224848
0.000236669
0.000255922
0.000283117
0.000315693
0.000348119
0.000373607
0.000389402
0.000397038
0.000399702
0.000399729
0.000398081
0.000394882
0.00039002
0.000383467
0.000375361
0.000365983
0.000355728
0.000344993
0.000334139
0.000323504
0.000313383
0.000304029
6.90115e-06
1.24814e-05
1.24264e-05
1.86224e-05
3.88714e-05
6.74251e-05
9.47955e-05
0.000118471
0.000138301
0.000155098
0.000169769
0.00018286
0.000194412
0.000203582
0.000207374
0.000205377
0.000201491
0.000196351
0.000192684
0.000191131
0.000192093
0.000195566
0.00020071
0.000206202
0.000210793
0.000214232
0.000217579
0.000223053
0.000233418
0.000251221
0.000277485
0.000309688
0.000341263
0.000365345
0.000379872
0.000386652
0.000388702
0.00038813
0.000385789
0.000381806
0.000376124
0.000368779
0.000359957
0.000349967
0.000339214
0.00032809
0.000316948
0.000306118
0.000295894
0.000286524
6.9168e-06
1.20766e-05
1.20672e-05
1.87103e-05
4.05107e-05
6.96357e-05
9.67702e-05
0.000119714
0.000138675
0.000154723
0.000168902
0.000181868
0.000193778
0.000204168
0.000212044
0.000215855
0.000213836
0.000207583
0.000202546
0.000199518
0.000198451
0.000199536
0.000202539
0.000206589
0.000210486
0.000213646
0.00021667
0.00022148
0.000230782
0.000247414
0.000272727
0.000304146
0.000334518
0.000357075
0.000370306
0.000376203
0.000377604
0.000376402
0.000373352
0.000368594
0.000362131
0.000354061
0.00034461
0.000334111
0.000322969
0.000311565
0.000300241
0.000289312
0.000279066
0.000269752
6.89479e-06
1.17091e-05
1.1778e-05
1.88491e-05
4.22701e-05
7.18465e-05
9.85951e-05
0.000120693
0.000138741
0.000154039
0.000167727
0.000180499
0.000192497
0.0002037
0.000213193
0.000219879
0.000222273
0.000218997
0.000212799
0.000208396
0.000205781
0.000204803
0.000205615
0.000207829
0.00021058
0.000213118
0.000215734
0.000220026
0.00022856
0.000244259
0.000268684
0.000299062
0.000327943
0.000348864
0.000360789
0.000365793
0.000366519
0.000364658
0.000360888
0.000355369
0.000348166
0.000339436
0.000329444
0.000318536
0.000307111
0.000295534
0.000284126
0.000273187
0.000262995
0.000253795
6.83949e-06
1.14002e-05
1.15523e-05
1.90316e-05
4.41769e-05
7.40658e-05
0.000100253
0.00012141
0.000138535
0.00015312
0.000166351
0.000178919
0.000191033
0.000202547
0.000213116
0.00022166
0.000227045
0.000227921
0.000223459
0.000217493
0.000213444
0.000210737
0.000209556
0.000209819
0.000211121
0.000212768
0.000214847
0.000218682
0.000226642
0.000241637
0.000265213
0.000294407
0.000321591
0.000340793
0.000351415
0.000355527
0.000355557
0.000353015
0.000348514
0.000342248
0.000334345
0.000325017
0.000314568
0.000303346
0.000291737
0.000280087
0.000268688
0.000257818
0.000247743
0.000238706
6.75546e-06
1.11581e-05
1.13761e-05
1.92588e-05
4.62519e-05
7.62622e-05
0.000101714
0.000121851
0.000138073
0.000152006
0.000164832
0.000177209
0.000189368
0.000201214
0.000212304
0.000222048
0.000229424
0.000233289
0.000232444
0.000226979
0.000221186
0.000216998
0.000214027
0.000212388
0.000212138
0.000212664
0.000214077
0.00021747
0.000224991
0.000239443
0.000262196
0.000290091
0.000315448
0.000332926
0.000342274
0.000345503
0.000344822
0.000341577
0.000336339
0.000329338
0.000320768
0.0003109
0.000300067
0.000288617
0.000276918
0.000265286
0.00025398
0.000243252
0.000233348
0.00022451
6.64631e-06
1.09829e-05
1.1327e-05
1.95399e-05
4.84983e-05
7.83981e-05
0.000102924
0.000122003
0.000137364
0.000150713
0.000163194
0.000175407
0.000187552
0.000199545
0.000211131
0.00022157
0.000230268
0.000236193
0.000238256
0.000235613
0.000229547
0.000223757
0.00021898
0.000215472
0.000213616
0.000212824
0.000213463
0.000216417
0.000223596
0.00023761
0.000259597
0.00028608
0.000309528
0.000325326
0.000333444
0.000335804
0.000334401
0.000330438
0.000324456
0.000316729
0.000307522
0.00029716
0.000286007
0.000274406
0.0002627
0.00025117
0.000240033
0.000229509
0.000219824
0.000211212
6.55667e-06
1.08757e-05
1.15678e-05
1.98797e-05
5.09193e-05
8.04058e-05
0.000103838
0.000121849
0.00013641
0.000149247
0.000161439
0.000173517
0.000185643
0.000197738
0.000209537
0.00022053
0.000230121
0.000237459
0.000241589
0.000241649
0.00023759
0.000231375
0.000224781
0.000219294
0.000215473
0.000213223
0.000213025
0.000215549
0.000222461
0.000236125
0.000257384
0.000282422
0.000303923
0.000318058
0.000324993
0.0003265
0.000324367
0.000319673
0.000312943
0.000304498
0.000294673
0.000283851
0.000272428
0.000260747
0.000249111
0.000237755
0.000226857
0.000216593
0.000207163
0.000198798
6.56566e-06
1.08241e-05
1.18404e-05
2.02324e-05
5.34312e-05
8.22042e-05
0.000104428
0.000121384
0.000135212
0.000147606
0.000159559
0.000171527
0.000183635
0.000195794
0.000207759
0.000219131
0.000229315
0.000237632
0.00024322
0.000245259
0.000243376
0.00023829
0.000230963
0.000223614
0.000217609
0.000213823
0.000212767
0.000214884
0.000221593
0.000234979
0.000255516
0.000279093
0.000298672
0.000311173
0.000316969
0.000317642
0.000314778
0.000309347
0.000301865
0.000292706
0.000282275
0.000271016
0.00025936
0.000247654
0.000236152
0.000225039
0.000214443
0.000204488
0.000195347
0.000187241
6.5637e-06
1.07952e-05
1.21066e-05
2.05582e-05
5.59316e-05
8.37089e-05
0.000104654
0.000120605
0.000133772
0.000145784
0.000157536
0.000169416
0.000181508
0.000193717
0.000205808
0.000217422
0.000228047
0.000237054
0.000243682
0.000247154
0.000246945
0.000243146
0.000236192
0.000227735
0.000219876
0.000214588
0.000212688
0.000214436
0.000221001
0.000234161
0.000253982
0.000276097
0.000293783
0.000304711
0.000309414
0.000309273
0.000305681
0.000299511
0.000291277
0.000281404
0.000270369
0.000258684
0.000246819
0.000235127
0.000223815
0.000213008
0.000202771
0.000193171
0.000184345
0.000176506
6.55298e-06
1.07346e-05
1.23497e-05
2.08049e-05
5.82925e-05
8.48462e-05
0.000104507
0.000119519
0.000132092
0.000143771
0.000155355
0.000167161
0.00017924
0.000191488
0.00020368
0.000215481
0.000226428
0.000235943
0.000243328
0.000247846
0.000248896
0.000246243
0.000240002
0.000231257
0.000222121
0.000215489
0.000212795
0.000214222
0.000220694
0.000233665
0.000252776
0.000273437
0.000289294
0.000298714
0.000302366
0.00030143
0.000297115
0.000290208
0.000281222
0.000270632
0.000258987
0.000246874
0.00023481
0.000223158
0.000212085
0.00020164
0.000191814
0.00018261
0.000174123
0.000166553
6.53637e-06
1.05451e-05
1.25741e-05
2.09628e-05
6.0357e-05
8.55548e-05
0.000103998
0.000118135
0.000130177
0.000141563
0.000152997
0.000164737
0.000176805
0.000189086
0.000201364
0.000213319
0.000224521
0.000234427
0.000242387
0.000247693
0.000249704
0.000248008
0.000242533
0.000233991
0.000224203
0.000216505
0.000213103
0.000214261
0.000220687
0.000233495
0.000251901
0.000271139
0.000285261
0.000293222
0.00029586
0.000294147
0.000289116
0.000281476
0.00027174
0.000260427
0.000248158
0.0002356
0.000223332
0.000211733
0.000200938
0.000190905
0.000181537
0.000172766
0.000164638
0.000157338
6.51625e-06
1.03811e-05
1.28074e-05
2.10797e-05
6.19787e-05
8.58149e-05
0.000103137
0.000116468
0.000128029
0.000139151
0.00015045
0.000162127
0.00017418
0.00018649
0.000198844
0.000210935
0.000222353
0.000232583
0.000241005
0.000246934
0.000249708
0.000248817
0.000244068
0.00023595
0.000226025
0.000217622
0.000213636
0.00021458
0.000220998
0.000233656
0.000251362
0.000269233
0.000281731
0.000288266
0.000289919
0.000287442
0.000281705
0.000273343
0.00026286
0.000250817
0.000237904
0.000224874
0.000212384
0.00020084
0.000190346
0.000180766
0.000171901
0.000163599
0.000155848
0.000148817
6.49243e-06
1.02425e-05
1.30515e-05
2.11245e-05
6.30956e-05
8.56623e-05
0.000101935
0.000114531
0.000125653
0.000136532
0.0001477
0.000159312
0.000171348
0.000183682
0.000196105
0.000208322
0.000219937
0.000230454
0.000239274
0.000245728
0.000249142
0.000248954
0.000244889
0.000237293
0.000227556
0.000218836
0.000214427
0.000215216
0.00022165
0.00023416
0.000251165
0.000267751
0.000278748
0.000283869
0.000284558
0.000281327
0.000274897
0.000265827
0.000254606
0.000241827
0.000228245
0.000214708
0.000201962
0.000190461
0.00018028
0.00017119
0.000162869
0.000155066
0.000147708
0.000140944
6.46602e-06
1.01338e-05
1.33154e-05
2.10648e-05
6.37393e-05
8.51442e-05
0.000100425
0.000112341
0.000123054
0.000133702
0.000144739
0.000156282
0.000168293
0.000180644
0.000193133
0.00020547
0.000217273
0.000228059
0.000237246
0.000244174
0.000248166
0.000248625
0.000245223
0.000238211
0.000228857
0.000220137
0.000215507
0.000216208
0.000222672
0.000235017
0.000251315
0.000266707
0.000276366
0.000280082
0.000279792
0.000275807
0.000268698
0.00025894
0.000246996
0.000233479
0.000219201
0.00020511
0.000192062
0.000180577
0.000170711
0.00016214
0.000154399
0.000147124
0.000140174
0.000133672
6.43558e-06
1.00636e-05
1.35704e-05
2.09707e-05
6.39699e-05
8.42865e-05
9.86362e-05
0.000109913
0.000120239
0.000130661
0.000141564
0.000153029
0.000165006
0.000177368
0.000189916
0.00020237
0.000214358
0.000225408
0.00023495
0.000242334
0.000246879
0.00024797
0.00024524
0.00023887
0.000230033
0.000221549
0.000216897
0.000217593
0.000224092
0.000236235
0.000251807
0.000266052
0.000274532
0.000277004
0.00027565
0.000270883
0.000263103
0.000252678
0.000240035
0.000225786
0.000210789
0.000196092
0.000182684
0.000171174
0.000161614
0.000153579
0.00014645
0.000139731
0.000133202
0.000126959
6.40206e-06
1.00292e-05
1.37459e-05
2.11063e-05
6.38223e-05
8.31208e-05
9.65966e-05
0.000107262
0.000117212
0.000127409
0.000138172
0.000149548
0.000161481
0.000173845
0.000186446
0.000199014
0.000211186
0.000222502
0.000232401
0.000240241
0.000245343
0.00024708
0.000245056
0.000239398
0.000231191
0.000223117
0.000218616
0.000219392
0.000225923
0.000237815
0.000252629
0.000265766
0.00027324
0.000274686
0.000272181
0.000266578
0.000258098
0.000247025
0.000233715
0.000218753
0.00020302
0.000187666
0.000173828
0.000162237
0.000152961
0.000145472
0.000138985
0.000132848
0.000126754
0.000120762
6.36475e-06
9.99428e-06
1.38067e-05
2.1394e-05
6.33672e-05
8.16706e-05
9.43279e-05
0.000104399
0.000113981
0.000123951
0.000134563
0.000145841
0.000157718
0.000170073
0.00018272
0.000195397
0.000207753
0.000219338
0.000229602
0.00023791
0.000243589
0.000246006
0.000244743
0.000239878
0.000232412
0.000224893
0.000220686
0.000221613
0.000228165
0.000239745
0.000253758
0.000265823
0.000272394
0.00027307
0.000269539
0.000262946
0.000253687
0.000241954
0.000228017
0.000212375
0.000195903
0.000179843
0.000165499
0.000153757
0.000144727
0.000137783
0.000131964
0.000126446
0.000120787
0.000115044
6.32493e-06
9.96043e-06
1.3746e-05
2.16245e-05
6.26103e-05
7.68815e-05
9.18408e-05
0.000101337
0.000110553
0.00012029
0.000130743
0.000141909
0.000153717
0.000166051
0.000178734
0.000191515
0.000204053
0.00021591
0.000226548
0.000235343
0.000241628
0.000244771
0.000244336
0.000240358
0.000233749
0.000226913
0.000223119
0.000224255
0.000230806
0.000242006
0.000255168
0.000266188
0.000271916
0.000271982
0.000267713
0.000260165
0.000249943
0.000237469
0.000222912
0.000206635
0.000189441
0.000172635
0.000157704
0.000145726
0.000136889
0.000130478
0.000125336
0.000120443
0.000115254
0.000109769
6.28359e-06
9.92905e-06
1.35682e-05
2.17801e-05
6.15851e-05
6.9245e-05
8.53884e-05
9.80837e-05
0.000106936
0.000116435
0.000126719
0.000137759
0.000149485
0.000161785
0.000174493
0.000187368
0.000200082
0.000212213
0.000223232
0.000232531
0.000239454
0.000243375
0.000243843
0.000240851
0.00023522
0.000229194
0.000225917
0.000227304
0.00023382
0.000244569
0.00025684
0.000266829
0.000271761
0.000271284
0.000266458
0.000258229
0.0002471
0.000233649
0.000218396
0.000201514
0.00018363
0.000166052
0.000150452
0.000138142
0.000129431
0.000123529
0.000119079
0.000114845
0.000110134
0.000104896
6.2396e-06
9.89961e-06
1.32796e-05
2.18821e-05
6.03618e-05
6.31348e-05
7.79327e-05
9.45726e-05
0.000103142
0.000112397
0.0001225
0.0001334
0.000145029
0.000157281
0.000169999
0.000182957
0.000195841
0.000208241
0.000219647
0.000229464
0.000237055
0.000241802
0.000243248
0.000241343
0.000236813
0.000231724
0.000229062
0.000230729
0.00023717
0.000247401
0.000258748
0.000267719
0.000271888
0.000270918
0.000265646
0.000256882
0.000245117
0.000230739
0.000214529
0.000197
0.000178463
0.000160105
0.000143757
0.000131008
0.000122336
0.000116904
0.000113145
0.000109595
0.000105409
0.000100367
6.19431e-06
9.87384e-06
1.28906e-05
2.19586e-05
5.89766e-05
5.83883e-05
7.16389e-05
8.73105e-05
9.91861e-05
0.000108185
0.000118095
0.000128845
0.000140361
0.000152548
0.000165261
0.000178286
0.000191328
0.000203992
0.000215782
0.000226126
0.000234408
0.000240025
0.000242517
0.000241795
0.000238487
0.000234463
0.000232509
0.000234485
0.00024081
0.000250464
0.000260865
0.000268835
0.000272263
0.000270836
0.000265215
0.000256055
0.000243786
0.000228711
0.000211501
0.00019312
0.000173935
0.000154801
0.000137636
0.000124331
0.000115597
0.00011058
0.000107496
0.000104631
0.000100958
9.6136e-05
6.148e-06
9.854e-06
1.24183e-05
2.20348e-05
5.74211e-05
5.44186e-05
6.62998e-05
8.07627e-05
9.50672e-05
0.000103813
0.00011352
0.000124105
0.000135493
0.000147599
0.000160288
0.000173364
0.000186548
0.000199463
0.00021163
0.000222501
0.000231488
0.00023801
0.000241606
0.000242154
0.00024018
0.000237342
0.000236191
0.000238505
0.000244682
0.000253713
0.00026316
0.000270152
0.000272859
0.000270997
0.000265102
0.00025569
0.000243073
0.000227505
0.000209386
0.000189947
0.000170045
0.000150148
0.000132107
0.000118125
0.000109211
0.000104541
0.000102114
9.99399e-05
9.67941e-05
9.22425e-05
6.10191e-06
9.83957e-06
1.23798e-05
2.2072e-05
5.56964e-05
5.09866e-05
6.17756e-05
7.51782e-05
9.0798e-05
9.92954e-05
0.000108792
0.000119196
0.000130442
0.000142448
0.000155094
0.000168201
0.000181506
0.000194654
0.000207183
0.000218575
0.000228271
0.000235718
0.000240464
0.000242353
0.000241814
0.000240275
0.000240016
0.000242703
0.000248712
0.000257093
0.000265595
0.000271643
0.000273649
0.000271368
0.000265249
0.000255707
0.000242922
0.000226996
0.000208185
0.000187636
0.000166801
0.000146152
0.000127191
0.000112408
0.00010318
9.87736e-05
9.69762e-05
9.54959e-05
9.28882e-05
8.86515e-05
6.05446e-06
9.8266e-06
1.25285e-05
2.18807e-05
5.3457e-05
4.79974e-05
5.79455e-05
7.02147e-05
8.60232e-05
9.46523e-05
0.000103922
0.000114133
0.000125221
0.000137108
0.000149691
0.000162807
0.000176211
0.000189568
0.000202438
0.000214332
0.00022473
0.000233111
0.000239036
0.000242321
0.000243299
0.000243157
0.000243875
0.000246974
0.000252813
0.000260538
0.000268122
0.000273272
0.000274609
0.000271926
0.000265611
0.000256023
0.000243244
0.000227183
0.000207948
0.000186284
0.000164231
0.000142818
0.000122909
0.000107202
9.75095e-05
9.32659e-05
9.20624e-05
9.12772e-05
8.92175e-05
8.5296e-05
6.00594e-06
9.80755e-06
1.27261e-05
2.1074e-05
4.92922e-05
4.5362e-05
5.45833e-05
6.57159e-05
8.0708e-05
8.98948e-05
9.893e-05
0.000108939
0.00011985
0.000131602
0.000144099
0.000157197
0.000170673
0.000184211
0.000197392
0.000209762
0.000220844
0.000230151
0.000237266
0.000241983
0.00024454
0.000245878
0.000247648
0.000251205
0.000256881
0.000263962
0.000270679
0.000274997
0.000275707
0.000272644
0.000266155
0.000256568
0.000243921
0.000227962
0.000208472
0.00018587
0.000162547
0.000140169
0.000119281
0.000102533
9.22112e-05
8.80074e-05
8.73515e-05
8.72652e-05
8.57708e-05
8.21711e-05
5.95776e-06
9.77708e-06
1.28848e-05
2.07379e-05
4.57129e-05
4.28698e-05
5.13807e-05
6.16386e-05
7.59507e-05
8.5042e-05
9.38334e-05
0.000103624
0.000114346
0.000125943
0.000138333
0.000151386
0.000164904
0.00017859
0.000192047
0.000204858
0.000216592
0.000226804
0.000235102
0.000241265
0.000245442
0.000248323
0.000251212
0.000255273
0.000260802
0.000267262
0.000273186
0.000276762
0.000276906
0.000273495
0.000266854
0.000257294
0.000244847
0.000229181
0.000209753
0.00018652
0.000161778
0.00013817
0.000116319
9.84289e-05
8.72997e-05
8.29912e-05
8.2821e-05
8.3435e-05
8.25278e-05
7.92643e-05
5.91845e-06
9.72842e-06
1.3038e-05
1.9737e-05
4.23452e-05
4.03126e-05
4.82871e-05
5.79449e-05
7.17104e-05
8.01103e-05
8.86539e-05
9.82118e-05
0.000108734
0.000120158
0.000132415
0.000145395
0.00015892
0.000172717
0.000186407
0.000199615
0.000211958
0.000223039
0.000232494
0.000240097
0.000245912
0.000250379
0.000254442
0.000259056
0.000264457
0.000267603
0.000272134
0.000278497
0.000278162
0.000274448
0.000267682
0.000258169
0.000245952
0.000230688
0.000211661
0.000188358
0.000162122
0.000136855
0.000114044
9.49232e-05
8.27961e-05
7.82141e-05
7.84512e-05
7.97619e-05
7.94681e-05
7.65514e-05
5.88846e-06
9.66989e-06
1.31297e-05
1.87014e-05
3.89667e-05
3.76917e-05
4.53613e-05
5.45657e-05
6.7707e-05
7.5129e-05
8.3403e-05
9.27187e-05
0.000103026
0.000114261
0.000126363
0.00013924
0.000152737
0.000166604
0.000180481
0.000194033
0.000206933
0.000218831
0.0002294
0.000238415
0.000245864
0.000251939
0.000257219
0.000262439
0.000264869
0.000260154
0.000263924
0.000273739
0.000279422
0.000275464
0.000268607
0.000259162
0.000247188
0.000232364
0.000213929
0.000190897
0.000163513
0.00013653
0.000112507
9.20508e-05
7.87269e-05
7.36788e-05
7.42235e-05
7.62216e-05
7.657e-05
7.40083e-05
5.8564e-06
9.61053e-06
1.30995e-05
1.77839e-05
3.56033e-05
3.5112e-05
4.26364e-05
5.1407e-05
6.32318e-05
7.01071e-05
7.81027e-05
8.71724e-05
9.72495e-05
0.00010828
0.000120204
0.000132938
0.000146375
0.000160266
0.000174277
0.000188115
0.000201509
0.00021416
0.000225785
0.000236164
0.000245218
0.000252904
0.000259431
0.000265312
0.000260122
0.000253456
0.00025647
0.000266749
0.00027895
0.000276498
0.000269592
0.000260237
0.000248517
0.000234141
0.000216359
0.000193949
0.00016603
0.000137198
0.000111653
8.98313e-05
7.51241e-05
6.93929e-05
7.01233e-05
7.27894e-05
7.38061e-05
7.16135e-05
5.82432e-06
9.55134e-06
1.31537e-05
1.68779e-05
3.23878e-05
3.26861e-05
4.00916e-05
4.8404e-05
5.85276e-05
6.50708e-05
7.27714e-05
8.15795e-05
9.14192e-05
0.000102231
0.000113951
0.000126518
0.000139853
0.000153723
0.000167812
0.00018187
0.000195686
0.000209015
0.000221619
0.000233294
0.000243905
0.000253182
0.000260974
0.000267576
0.000256062
0.000247635
0.000250008
0.000260147
0.000273782
0.000277496
0.000270587
0.000261351
0.000249898
0.000235969
0.000218852
0.000197302
0.00016984
0.000139096
0.000111424
8.82888e-05
7.20281e-05
6.53714e-05
6.61393e-05
6.9445e-05
7.11575e-05
6.93571e-05
5.78982e-06
9.48492e-06
1.32182e-05
1.5837e-05
2.95539e-05
3.04606e-05
3.77103e-05
4.55301e-05
5.3835e-05
6.00313e-05
6.74369e-05
7.59688e-05
8.5569e-05
9.61427e-05
0.000107627
0.000120002
0.000133189
0.000146994
0.000161098
0.000175309
0.000189466
0.000203388
0.000216881
0.000229768
0.000241865
0.000252693
0.000261753
0.000269132
0.000252634
0.000242319
0.000244091
0.000253799
0.000268417
0.00027839
0.000271531
0.000262447
0.000251276
0.000237796
0.000221342
0.000200728
0.000174349
0.000142256
0.000112091
8.75005e-05
6.94899e-05
6.1635e-05
6.22672e-05
6.61736e-05
6.86116e-05
6.72279e-05
5.75306e-06
9.40378e-06
1.29008e-05
1.48421e-05
2.71596e-05
2.84262e-05
3.54729e-05
4.2791e-05
4.91793e-05
5.503e-05
6.2105e-05
7.03551e-05
7.97011e-05
9.00245e-05
0.000101263
0.000113409