/*--------------------------------*- C++ -*----------------------------------*\
  =========                 |
  \\      /  F ield         | OpenFOAM: The Open Source CFD Toolbox
   \\    /   O peration     | Website:  https://openfoam.org
    \\  /    A nd           | Version:  10
     \\/     M anipulation  |
\*---------------------------------------------------------------------------*/
FoamFile
{
    format      ascii;
    class       volScalarField;
    location    "40000";
    object      omega;
}
// * * * * * * * * * * * * * * * * * * * * * * * * * * * * * * * * * * * * * //

dimensions      [0 0 -1 0 0 0 0];

internalField   nonuniform List<scalar> 
20625
(
1646.4
941.778
462.653
245.868
145.629
108.021
96.0272
95.4601
100.313
106.196
108.053
102.846
91.6181
77.2589
62.6357
50.155
40.8952
34.3483
29.6373
26.1023
23.3738
21.2544
19.6241
18.4007
17.529
16.9986
16.7746
16.7881
16.9875
17.3627
17.9441
18.7913
19.9661
21.5042
23.4254
25.7156
28.2894
31.005
33.7115
36.285
38.645
40.7517
42.5958
44.1863
45.5418
46.685
47.64
48.4291
49.0726
49.5896
1652.42
940.777
473.485
243.215
134.679
95.0142
81.8827
80.3662
84.8947
92.3399
99.0082
100.338
94.81
84.062
70.7813
57.503
46.3288
38.0419
32.1407
27.8968
24.7447
22.3475
20.5191
19.1506
18.1737
17.5704
17.2974
17.2772
17.4539
17.8175
18.4028
19.2773
20.4947
22.0765
24.0523
26.4223
29.097
31.9286
34.7584
37.4545
39.9304
42.1431
44.0815
45.7537
47.1784
48.3787
49.3794
50.2034
50.8715
51.4042
1658.39
937.98
479.689
243.089
126.884
84.5352
70.213
67.4741
70.852
77.9244
86.5716
92.9303
93.2851
87.662
77.4838
65.2467
53.2119
43.1625
35.6888
30.3484
26.5153
23.7002
21.5995
20.0418
18.9294
18.2309
17.894
17.8317
17.9825
18.3334
18.9207
19.8177
21.0842
22.7191
24.7447
27.1912
29.966
32.9151
35.8705
38.6921
41.2875
43.6097
45.6458
47.403
48.8998
50.1594
51.2072
52.0664
52.759
53.3068
1664.36
933.989
482.538
247.1
122.043
76.1536
60.7012
56.8605
58.8927
64.6906
73.0554
81.9191
87.4431
86.7839
81.273
71.7389
60.5076
49.6067
40.526
33.7559
28.9087
25.4436
22.9347
21.1107
19.8161
18.9923
18.5734
18.4595
18.581
18.919
19.5073
20.424
21.7341
23.414
25.4879
28.0106
30.8876
33.9571
37.0417
39.9929
42.7119
45.1483
47.2867
49.1332
50.7057
52.0275
53.1238
54.0179
54.7324
55.2908
1670.37
928.316
481.763
249.943
117.8
69.262
53.0296
48.3486
49.1976
53.6129
60.6863
69.3904
77.7652
82.2574
81.0643
75.5305
66.6708
56.4208
46.5524
38.3334
32.181
27.7721
24.6442
22.4238
20.8702
19.8766
19.3524
19.1742
19.26
19.582
20.1681
21.0982
22.434
24.145
26.2682
28.8702
31.8533
35.0478
38.2662
41.3516
44.1993
46.7549
49.0009
50.942
52.5953
53.9837
55.1317
56.0644
56.7992
57.3674
1676.56
921.391
477.667
248.61
114.009
63.8169
47.0063
41.64
41.5807
44.9206
50.9015
58.3667
66.5265
73.8772
77.3041
75.7623
70.2989
62.1486
52.8533
43.9425
36.5039
30.9092
26.9019
24.0932
22.1578
20.9233
20.2589
19.9957
20.0325
20.3299
20.9041
21.83
23.1702
24.9024
27.0754
29.761
32.8554
36.1797
39.5368
42.7616
45.7435
48.4243
50.7836
52.8248
54.5639
56.0242
57.2217
58.1887
58.9497
59.5289
1683.36
910.965
471.187
243.762
110.489
59.4599
42.134
36.3352
35.582
38.0944
43.2566
49.734
56.727
64.0143
70.1441
72.5897
70.7464
65.5116
58.0754
49.6951
41.6826
34.9687
29.8921
26.2715
23.7796
22.1929
21.3296
20.9479
20.9135
21.1682
21.7105
22.6056
23.9256
25.6711
27.8991
30.6744
33.8852
37.3439
40.8446
44.2146
47.3374
50.1503
52.63
54.7771
56.6061
58.1391
59.3983
60.4076
61.1932
61.7808
1692.74
895.801
462.639
238.197
103.793
55.0388
38.249
32.1609
30.7779
32.5505
37.012
42.6647
48.7828
55.1865
61.5581
66.5098
68.0684
65.9712
61.1015
54.3657
46.8536
39.6883
33.658
29.0837
25.8525
23.7636
22.6
22.0536
21.9142
22.0942
22.5692
23.3988
24.6786
26.44
28.7333
31.602
34.9314
38.5278
42.1774
45.6994
48.9713
51.9256
54.5355
56.7988
58.7282
60.3433
61.6651
62.7175
63.5271
64.1206
1700.36
879.415
452.531
231.357
99.6761
52.0658
35.3464
28.9162
26.9012
27.8958
31.6388
36.5805
41.9693
47.6971
53.5416
59.045
62.9064
63.6926
61.501
56.9988
50.9287
44.2413
37.8775
32.5032
28.4415
25.7088
24.1183
23.3288
23.0312
23.0871
23.4494
24.181
25.4131
27.207
29.5755
32.5302
35.9773
39.7151
43.5197
47.2019
50.6322
53.7382
56.4889
58.879
60.9187
62.6243
64.0147
65.114
65.9488
66.5465
1707.71
861.701
440.791
222.602
97.251
49.9426
33.0377
26.3688
23.8046
23.9711
26.8512
31.1591
35.9074
41.0407
46.4228
51.746
56.4219
59.2943
59.4877
57.2841
53.1351
47.6948
41.7789
36.1639
31.4476
28.0281
25.9122
24.7677
24.2377
24.1119
24.3242
24.9468
26.1333
27.9574
30.3929
33.4328
37.0015
40.8873
44.8554
48.7074
52.3071
55.5768
58.4809
61.0101
63.172
64.9777
66.4442
67.5955
68.4583
69.0585
1715.15
843.233
427.909
212.888
93.0968
47.4117
30.982
24.3238
21.3963
20.7988
22.5991
26.3038
30.4324
35.0017
39.919
44.991
49.8029
53.6708
55.6786
55.4873
53.2882
49.4655
44.6009
39.383
34.4824
30.5549
27.9078
26.3361
25.4947
25.143
25.1825
25.6819
26.8064
28.6508
31.1537
34.2861
37.9852
42.0283
46.1696
50.202
53.9831
57.43
60.502
63.1853
65.4822
67.3989
68.9503
70.1599
71.0521
71.6556
1723.11
824.638
414.592
202.526
87.6976
44.5782
29.0902
22.654
19.579
18.4489
19.1982
22.0453
25.5631
29.5475
33.9637
38.697
43.461
47.7225
50.7995
52.1694
51.675
49.4786
45.9433
41.582
37.0011
32.9092
29.8918
27.9319
26.7553
26.1459
25.991
26.3451
27.3936
29.2546
31.8323
35.0717
38.9134
43.1241
47.4482
51.6716
55.6467
59.2854
62.5417
65.3965
67.8448
69.8872
71.5345
72.8129
73.7391
74.3445
1730.98
806.241
400.591
191.674
81.5737
41.6203
27.3355
21.2639
18.2128
16.798
16.768
18.4467
21.416
24.785
28.6308
32.9135
37.4672
41.8741
45.5281
47.9176
48.7788
48.0169
45.8181
42.5231
38.6057
34.75
31.6051
29.3771
27.9185
27.0559
26.6993
26.8996
27.8732
29.7534
32.4142
35.7774
39.7744
44.1621
48.6777
53.1023
57.2839
61.1299
64.5883
67.6342
70.2536
72.4406
74.202
75.5539
76.5191
77.1268
1738.81
788.045
385.796
180.698
75.21
38.7115
25.7308
20.0915
17.1699
15.6569
15.1931
15.8837
18.0229
20.8401
24.0785
27.7999
31.9593
36.2799
40.2457
43.2671
45.0713
45.484
44.487
42.2789
39.1854
35.8221
32.8154
30.4963
28.8569
27.7963
27.2576
27.3197
28.2306
30.1395
32.8958
36.3963
40.5586
45.1306
49.8446
54.4794
58.8802
62.9499
66.6298
69.8882
72.6995
75.0492
76.9398
78.3814
79.3942
80.0064
1746.76
770.222
370.597
170.082
69.1389
36.0221
24.3059
19.1027
16.3596
14.8577
14.1942
14.3038
15.4555
17.718
20.405
23.5288
27.1345
31.1304
35.1251
38.5479
40.9814
42.2637
42.2822
41.0788
38.8489
36.0948
33.4174
31.1787
29.4806
28.3026
27.6305
27.5925
28.4619
30.4103
33.2716
36.9229
41.2583
46.019
50.936
55.7886
60.421
64.7316
68.6546
72.1486
75.1763
77.7135
79.7533
81.3002
82.3704
82.9908
1754.96
752.84
355.514
160.123
63.9709
33.7469
23.0882
18.277
15.7232
14.2874
13.5549
13.3875
13.8663
15.2936
17.5542
20.1429
23.1638
26.6461
30.396
33.9446
36.812
38.7054
39.5155
39.1887
37.7911
35.6858
33.4346
31.4012
29.7555
28.5469
27.8055
27.7243
28.5619
30.5647
33.5411
37.356
41.8689
46.8186
51.9398
57.0158
61.8914
66.4605
70.6495
74.405
77.6766
80.428
82.6417
84.3136
85.4543
86.0882
1763.44
736.253
340.978
150.706
59.7999
31.9024
22.0761
17.5948
15.2223
13.8768
13.1386
12.8448
12.9926
13.7324
15.3258
17.5361
20.0475
22.9753
26.2849
29.6879
32.7437
35.0732
36.4667
36.8591
36.2197
34.7591
32.9664
31.2128
29.7028
28.5367
27.789
27.6962
28.5613
30.6211
33.7154
37.7007
42.3886
47.522
52.8447
58.1472
63.2764
68.1219
72.601
76.6469
80.1937
83.1904
85.6063
87.4265
88.6537
89.309
1772.23
721.47
327.681
141.907
56.2972
30.3707
21.2332
17.0494
14.8391
13.5834
12.8665
12.5173
12.4982
12.8682
13.8062
15.495
17.6518
20.0991
22.9134
25.9782
28.9803
31.5398
33.3609
34.3069
34.3236
33.4705
32.1376
30.697
29.3743
28.3011
27.6034
27.5439
28.475
30.6061
33.8244
37.9655
42.8152
48.1211
53.6386
59.1683
64.5603
69.7002
74.4953
78.863
82.7198
85.9972
88.6481
90.6439
91.9775
92.6648
1781.34
710.187
316.204
133.805
53.1595
29.0506
20.5293
16.6262
14.5623
13.3812
12.6897
12.3205
12.2121
12.3869
12.9312
14.0251
15.7764
17.887
20.2628
22.9166
25.6865
28.273
30.3549
31.7136
32.2663
31.9574
31.0644
29.9433
28.8313
27.8867
27.2719
27.2859
28.31
30.5391
33.8762
38.152
43.1436
48.6058
54.3084
60.0641
65.7275
71.1801
76.3179
81.0418
85.2474
88.8452
91.7685
93.9717
95.4355
96.1685
1790.76
704.297
306.499
126.5
50.3524
27.8955
19.9453
16.3026
14.3727
13.2583
12.5906
12.2086
12.049
12.1108
12.4362
13.1246
14.3524
16.1505
18.2109
20.4864
22.9414
25.3998
27.5786
29.2163
30.1767
30.3338
29.8449
29.0327
28.1394
27.3425
26.8341
26.9505
28.0871
30.4233
33.8692
38.2577
43.3681
48.9672
54.8425
60.8211
66.7632
72.5466
78.0555
83.1722
87.7689
91.7313
94.9691
97.4166
99.0386
99.8344
1800.5
704.061
298.223
119.75
47.7841
26.8758
19.4645
16.0664
14.2596
13.205
12.558
12.1684
11.979
11.963
12.1543
12.6067
13.4239
14.7704
16.5906
18.5837
20.732
22.9808
25.1238
26.9097
28.1558
28.6908
28.5582
28.0333
27.3555
26.7119
26.3272
26.5619
27.821
30.2634
33.8035
38.2808
43.4844
49.1985
55.2318
61.4279
67.6545
73.7866
79.6955
85.244
90.2776
94.653
98.2525
100.986
102.799
103.678
1810.54
707.167
290.52
113.288
45.3869
25.9687
19.0746
15.9074
14.2136
13.2117
12.5822
12.1864
11.9679
11.9089
12.0087
12.3127
12.8808
13.8185
15.2668
17.0691
18.9762
21.0031
23.0281
24.8536
26.2776
27.0963
27.2649
26.9987
26.5238
26.0348
25.7786
26.1392
27.5233
30.0649
33.6807
38.2208
43.4902
49.2953
55.4693
61.875
68.3902
74.888
81.2267
87.2481
92.7677
97.6089
101.622
104.687
106.728
107.714
1820.86
710.848
282.563
106.913
43.1112
25.163
18.7678
15.8179
14.2268
13.2701
12.6539
12.2518
12.0101
11.9094
11.9544
12.1592
12.5669
13.2435
14.2971
15.8125
17.5644
19.3912
21.2701
23.0626
24.5698
25.5942
26.0093
25.9688
25.6791
25.339
25.21
25.7037
27.2068
29.8334
33.5029
38.0786
43.3853
49.2557
55.5506
62.1557
68.9613
75.8406
82.6391
89.1761
95.2342
100.598
105.081
108.529
110.838
111.96
1831.4
713.189
273.763
100.481
40.9384
24.4473
18.5362
15.7908
14.292
13.3729
12.7655
12.3557
12.0951
11.9648
11.9586
12.0976
12.3959
12.8998
13.6794
14.831
16.3541
18.0304
19.7793
21.5071
23.0366
24.2097
24.8212
24.9719
24.8471
24.6445
24.6419
25.2666
26.8806
29.5742
33.2734
37.8565
43.1712
49.0798
55.474
62.2652
69.3604
76.6359
83.9244
91.0211
97.6726
103.62
108.633
112.521
115.144
116.431
1842.07
712.605
264.045
93.9519
38.8506
23.8217
18.3765
15.8206
14.403
13.514
12.9106
12.4912
12.2121
12.0553
12.015
12.0985
12.3175
12.701
13.2953
14.1653
15.3634
16.826
18.458
20.1199
21.6764
22.9548
23.7184
24.0272
24.0459
23.9687
24.0871
24.83
26.5483
29.2912
32.9957
37.558
42.8515
48.7702
55.2394
62.2007
69.5819
77.2664
85.0757
92.7762
100.079
106.675
112.285
116.67
119.656
121.143
1852.79
707.333
254.022
87.5102
36.8985
23.2925
18.2859
15.9022
14.5544
13.6879
13.0842
12.6528
12.3551
12.174
12.1026
12.1415
12.3008
12.5962
13.0594
13.7348
14.667
15.8607
17.3125
18.8968
20.4793
21.831
22.7095
23.1464
23.2876
23.3232
23.553
24.4057
26.2152
28.9877
32.6735
37.1878
42.4312
48.3313
54.8494
61.9614
69.6214
77.7249
86.0852
94.437
102.452
109.767
116.041
120.988
124.389
126.112
1863.58
696.83
243.98
81.3332
35.1267
22.8654
18.2613
16.0306
14.7413
13.8904
13.282
12.8364
12.5193
12.3144
12.2143
12.2169
12.3268
12.5544
12.9207
13.4567
14.1984
15.1727
16.4115
17.8733
19.4375
20.8332
21.7965
22.3351
22.5795
22.7152
23.0459
23.9981
25.8822
28.6669
32.3108
36.7514
41.9171
47.7694
54.3084
61.5481
69.4756
78.0049
86.9451
95.9984
104.79
112.896
119.907
125.482
129.353
131.354
1874.48
686.373
234.634
75.6434
33.5766
22.5429
18.2987
16.2015
14.9597
14.1178
13.501
13.039
12.7013
12.4728
12.3452
12.3149
12.3831
12.5561
12.8477
13.28
13.8819
14.6862
15.7365
17.0442
18.5431
19.9531
20.9763
21.5948
21.9251
22.1488
22.5695
23.6079
25.5503
28.332
31.9128
36.256
41.3174
47.093
53.6229
60.9639
69.143
78.1011
87.6485
97.4557
107.092
116.063
123.889
130.162
134.563
136.882
1885.52
675.992
226.044
70.6328
32.2878
22.3248
18.3932
16.4101
15.206
14.3675
13.7386
13.2581
12.8988
12.6462
12.4917
12.4306
12.4619
12.5889
12.8205
13.1726
13.6688
14.3414
15.2367
16.39
17.7879
19.1817
20.2434
20.9239
21.3255
21.6257
22.1257
23.2355
25.2204
27.9866
31.4858
35.7098
40.642
46.3123
52.8015
60.2136
68.6233
78.0078
88.1872
98.8023
109.353
119.271
127.994
135.039
140.031
142.714
1896.68
666.178
218.202
66.51
31.2817
22.2053
18.5393
16.6528
15.4773
14.6369
13.9932
13.4925
13.1103
12.8331
12.6518
12.5611
12.5584
12.6449
12.8264
13.1141
13.5276
14.0967
14.8667
15.8824
17.1619
18.5108
19.5915
20.319
20.7799
21.1466
21.7151
22.8798
24.8918
27.6338
31.0364
35.1223
39.9023
45.4391
51.8549
59.3042
67.9172
77.7198
88.5518
100.027
111.571
122.523
132.228
140.122
145.771
148.866
1907.95
656.757
210.885
63.2971
30.5419
22.1739
18.7313
16.9258
15.7714
14.9249
14.2636
13.7409
13.3349
13.0323
12.8242
12.7044
12.6695
12.7194
12.8573
13.0915
13.4381
13.9241
14.5923
15.4904
16.6524
17.9332
19.0141
19.7758
20.286
20.7105
21.3374
22.5392
24.5605
27.2737
30.5705
34.5031
39.1106
44.4872
50.7962
58.2448
67.0277
77.2325
88.7323
101.12
113.739
125.818
136.596
145.423
151.797
155.356
1919.28
647.421
204.015
60.865
30.0236
22.2175
18.9637
17.2267
16.0868
15.2302
14.5493
14.0032
13.5723
13.2437
13.0083
12.8597
12.7938
12.8094
12.9083
13.0964
13.3871
13.8049
14.3893
15.1882
16.242
17.4431
18.5064
19.2906
19.8415
20.3166
20.9924
22.2133
24.2202
26.9031
30.092
33.8624
38.2809
43.4726
49.6408
57.0474
65.9596
76.5416
88.7172
102.067
115.849
129.154
141.103
150.95
158.124
162.201
1930.61
637.465
197.472
58.9533
29.6778
22.326
19.2323
17.5532
16.4225
15.5528
14.8499
14.2792
13.8224
13.4671
13.2041
13.0267
12.9305
12.9135
12.9763
13.1234
13.3662
13.7265
14.2408
14.9556
15.9135
17.033
18.0648
18.8599
19.4444
19.9636
20.6803
21.9101
23.8774
26.5094
29.6013
33.2096
37.4275
42.413
48.4068
55.7271
64.7204
75.644
88.4936
102.852
117.885
132.527
145.754
156.715
164.765
169.422
1941.93
626.461
191.235
57.3667
29.4655
22.4904
19.5333
17.904
16.778
15.8923
15.1661
14.5696
14.0859
13.7032
13.4121
13.2057
13.0794
13.0309
13.0598
13.1695
13.3697
13.6804
14.1351
14.7783
15.6521
16.6935
17.6862
18.4822
19.0931
19.6514
20.4017
21.6312
23.5365
26.0865
29.0931
32.5468
36.5646
41.3279
47.1152
54.302
63.3211
74.5386
88.0478
103.455
119.83
135.93
150.551
162.725
171.737
177.038
1953.18
615.917
185.493
55.9529
29.3507
22.7047
19.8638
18.2782
17.1535
16.2497
15.4984
14.8748
14.3635
13.9526
13.6329
13.3973
13.2411
13.1616
13.1581
13.2327
13.3945
13.6613
14.0643
14.6457
15.4463
16.4162
17.3664
18.156
18.7872
19.3796
20.1577
21.3786
23.2107
25.6431
28.5443
31.8673
35.6982
40.2347
45.7882
52.7939
61.7762
73.2268
87.3662
103.852
121.664
139.352
155.493
168.987
179.055
185.072
1964.43
605.844
180.181
54.6622
29.324
22.9692
20.223
18.6763
17.5498
16.6257
15.8481
15.1964
14.6565
14.2166
13.8676
13.6025
13.4163
13.3063
13.2711
13.3125
13.4384
13.6657
14.0231
14.5506
15.2873
16.193
17.101
17.8797
18.5256
19.1474
19.9486
21.1547
22.9084
25.2054
27.9584
31.1415
34.8169
39.1409
44.4469
51.2269
60.1046
71.7141
86.4357
104.018
123.359
142.773
160.58
175.523
186.735
193.549
1975.55
596.022
175.21
53.4534
29.3677
23.2957
20.6208
19.0997
17.9686
17.0223
16.2166
15.5356
14.966
14.4965
14.1176
13.8224
13.6061
13.4656
13.3994
13.4086
13.5007
13.6915
14.008
14.4879
15.1687
16.0175
16.8857
17.6509
18.3074
18.954
19.7734
20.9603
22.6333
24.7911
27.3749
30.375
33.8797
38.0342
43.1023
49.624
58.3282
70.0098
85.2454
103.922
124.883
146.174
165.806
182.32
194.777
202.498
1986.6
586.427
170.522
52.3223
29.4578
23.684
21.0728
19.5553
18.4126
17.4413
16.6063
15.8945
15.2942
14.7938
14.3843
14.0585
13.8116
13.6407
13.5437
13.5215
13.5812
13.7377
14.0167
14.4541
15.0858
15.8845
16.7162
17.4673
18.1309
18.7979
19.6308
20.7953
22.3873
24.4058
26.8131
29.615
32.9033
36.869
41.7478
48.0023
56.47
68.1279
83.7875
103.535
126.198
149.53
171.166
189.403
203.188
211.943
1997.52
577.099
166.099
51.2991
29.5994
24.123
21.5803
20.0505
18.8846
17.8862
17.0193
16.2752
15.6428
15.1106
14.6694
14.3125
14.0346
13.8329
13.7052
13.652
13.6801
13.804
14.0481
14.447
15.0353
15.7899
16.5889
17.326
17.9942
18.6771
19.5188
20.6586
22.1709
24.0528
26.2804
28.8746
31.9339
35.6642
40.3487
46.3679
54.5527
66.0865
82.0582
102.825
127.258
152.805
176.654
196.801
212.062
221.93
2008.34
567.747
161.967
50.4545
29.7993
24.6061
22.1357
20.5905
19.3898
18.3599
17.459
16.6807
16.0145
15.4489
14.9752
14.586
14.2765
14.0438
13.8853
13.8012
13.7982
13.8906
14.1018
14.4652
15.0147
15.7306
16.5006
17.2245
17.895
18.5896
19.4355
20.5482
21.9832
23.7334
25.7824
28.162
30.981
34.4469
38.9006
44.7143
52.5971
63.9081
80.0596
101.759
128.011
155.954
182.249
204.521
221.438
232.498
2019.15
558.159
158.093
49.8725
30.062
25.1323
22.7363
21.1739
19.933
18.8671
17.9287
17.1139
16.4116
15.8113
15.3037
14.8813
14.5394
14.275
14.0854
13.9703
13.9366
13.998
14.1777
14.508
15.0223
15.7039
16.4484
17.1602
17.8311
18.5331
19.3786
20.4619
21.8218
23.4464
25.3223
27.4861
30.0541
33.2458
37.4215
43.0163
50.6201
61.619
77.8009
100.311
128.399
158.919
187.916
212.561
231.346
243.715
2029.76
548.368
154.705
49.5262
30.3752
25.7016
23.3827
21.8042
20.5187
19.4111
18.4329
17.5786
16.8378
16.2006
15.6575
15.2006
14.8252
14.5285
14.3074
14.161
14.0965
14.1274
14.2763
14.5751
15.0569
15.7079
16.4299
17.1306
17.8004
18.5059
19.346
20.3972
21.6842
23.1895
24.9005
26.8537
29.1656
32.0652
35.9197
41.2616
48.6307
59.2466
75.2988
98.456
128.358
161.635
193.614
220.905
241.804
255.615
2040.44
539.006
151.929
49.3658
30.7338
26.3198
24.079
22.4843
21.1532
19.9989
18.9763
18.0783
17.2963
16.6199
16.0393
15.5465
15.1364
14.8065
14.5531
14.3751
14.2795
14.2798
14.3984
14.6667
15.1179
15.7408
16.4426
17.1334
17.8008
18.5061
19.3362
20.352
21.5671
22.9591
24.5144
26.2674
28.328
30.9231
34.4424
39.4771
46.583
56.8126
72.5786
96.1811
127.824
164.024
199.293
229.536
252.799
268.217
2051.01
530.887
149.948
49.362
31.1841
27.0062
24.8313
23.2198
21.8425
20.636
19.5646
18.6189
17.7919
17.0729
16.4524
15.9218
15.4756
15.1113
14.8247
14.6144
14.4873
14.4569
14.5452
14.7833
15.205
15.8015
16.4847
17.1663
17.8302
18.5319
19.3477
20.3244
21.4676
22.7515
24.1604
25.7259
27.5484
29.84
32.9968
37.6623
44.4948
54.3616
69.6788
93.4843
126.733
165.999
204.896
238.439
264.353
281.562
2061.71
525.372
148.845
49.5792
31.7321
27.7675
25.6463
24.0159
22.592
21.3314
20.2038
19.2057
18.3284
17.5635
16.9004
16.3296
15.8456
15.4455
15.1248
14.8814
14.7222
14.6605
14.7181
14.9261
15.3185
15.8893
16.5547
17.2273
17.8864
18.5819
19.3797
20.3136
21.3834
22.5631
23.8343
25.2254
26.8275
28.8309
31.6074
35.8103
42.3229
51.9034
66.6352
90.3753
125.026
167.464
210.354
247.591
276.479
295.706
2072.27
521.419
148.337
49.9576
32.375
28.6069
26.5312
24.8832
23.4098
22.0912
20.9036
19.8462
18.9128
18.0969
17.3874
16.7737
16.2497
15.8122
15.4561
15.1785
14.9864
14.8927
14.919
15.0962
15.4591
16.0042
16.6517
17.3151
17.9679
18.6558
19.4321
20.3194
21.3138
22.3912
23.5326
24.7617
26.1619
27.9013
30.3114
34.0327
40.1227
49.3511
63.472
86.8801
122.652
168.309
215.582
256.965
289.182
310.718
2082.43
517.318
147.863
50.4124
33.1094
29.5271
27.4952
25.8325
24.3081
22.9297
21.6732
20.5471
19.5511
18.6782
17.9179
17.2589
16.6917
16.2148
15.8217
15.5088
15.2827
15.1561
15.1501
15.2956
15.6281
16.1466
16.7754
17.429
18.0751
18.7543
19.5049
20.3416
21.2585
22.2347
23.2527
24.3316
25.5471
27.0488
29.1259
32.3639
37.9141
46.7506
60.2757
83.0567
119.579
168.418
220.482
266.534
302.482
326.665
2092.29
513.166
147.406
50.9603
33.9298
30.5311
28.548
26.8793
25.3034
23.8579
22.5251
21.3213
20.2526
19.3147
18.4981
17.7891
17.1759
16.6571
16.2251
15.8755
15.6142
15.4537
15.4142
15.5266
15.8271
16.3177
16.9264
17.5694
18.2089
18.8773
19.5978
20.3802
21.218
22.0938
22.9937
23.9328
24.9797
26.2678
28.0489
30.8292
35.6857
44.0488
57.1153
78.9687
115.787
167.666
224.931
276.26
316.44
343.623
2101.76
509.164
146.821
51.5371
34.8241
31.6226
29.7008
28.0367
26.4137
24.8959
23.4722
22.1799
21.0251
20.0136
19.1356
18.3699
17.7076
17.1435
16.6706
16.2826
15.9848
15.7887
15.7143
15.792
16.0587
16.5194
17.1064
17.7375
18.3699
19.0249
19.7113
20.4361
21.1935
21.9698
22.7559
23.5647
24.4573
25.5537
27.0731
29.4451
33.5846
41.2835
53.8865
74.6441
111.275
165.923
228.781
286.08
331.083
361.69
2110.89
505.822
145.79
51.9869
35.7847
32.8056
30.966
29.3229
27.6587
26.0569
24.5378
23.1402
21.8845
20.7867
19.8361
19.0083
18.2918
17.6792
17.1627
16.7345
16.3986
16.1654
16.0543
16.0952
16.3259
16.7544
17.3174
17.9351
18.559
19.1976
19.8463
20.5109
21.1867
21.8652
22.5414
23.2282
23.9798
24.9039
26.1921
28.2118
31.7414
38.6241
50.5447
70.1675
106.083
163.065
231.861
295.91
346.44
380.98
2119.75
502.042
144.361
52.3254
36.8074
34.0868
32.3583
30.751
29.0618
27.3772
25.7441
24.2169
22.8442
21.6441
20.6085
19.712
18.9353
18.2704
17.7072
17.2366
16.8605
16.5885
16.4388
16.4406
16.6326
17.026
17.5627
18.1647
18.7782
19.3966
20.0041
20.6063
21.2002
21.7833
22.3536
22.926
23.5486
24.3176
25.4012
27.1159
30.1238
36.0839
47.1705
65.7332
100.296
158.939
233.963
305.626
362.519
401.606
2128.58
497.74
141.99
52.4892
37.8818
35.4731
33.8931
32.3581
30.6538
28.8836
27.1216
25.4446
23.9276
22.6016
21.4651
20.489
19.6459
18.9237
18.3104
17.7948
17.3765
17.0637
16.873
16.8331
16.9834
17.3388
17.8463
18.4299
19.0302
19.6239
20.1872
20.7255
21.238
21.7277
22.197
22.6621
23.1667
23.7961
24.6981
26.1453
28.6894
33.6116
43.6113
61.4613
93.9731
153.318
234.83
315.052
379.313
423.687
2137.68
493.28
138.78
52.4758
38.9998
36.9707
35.5844
34.1746
32.4767
30.6256
28.7027
26.8515
25.1525
23.6751
22.4161
21.3493
20.4337
19.6478
18.9806
18.4166
17.9536
17.5976
17.3636
17.279
17.3842
17.698
18.173
18.7353
19.3191
19.8833
20.3993
20.8727
21.3049
21.7037
22.0772
22.4421
22.8389
23.3425
24.0829
25.2952
27.4418
31.5507
40.3075
56.9661
87.1437
146.171
234.153
323.921
396.767
447.311
2146.8
487.538
134.996
52.3515
40.1434
38.5862
37.4527
36.2397
34.5749
32.6321
30.5519
28.4843
26.5625
24.8916
23.4822
22.3068
21.3082
20.4525
19.7262
19.1104
18.6002
18.1984
17.9183
17.7856
17.8419
18.1102
18.5491
19.0866
19.6508
20.1799
20.6458
21.0537
21.4072
21.7179
22.001
22.2728
22.5712
22.9614
23.5578
24.5641
26.3737
29.8587
37.4579
52.5617
80.2938
138.158
231.562
331.876
414.754
472.52
2155.35
479.58
130.914
52.2355
41.2678
40.3231
39.5261
38.574
36.9968
35.0001
32.7277
30.3862
28.1936
26.2677
24.6785
23.3846
22.2844
21.3523
20.5591
19.8876
19.3264
18.8761
18.5464
18.362
18.3653
18.5833
18.982
19.4909
20.0325
20.5216
20.9344
21.2762
21.5531
21.7787
21.9766
22.1622
22.3708
22.6591
23.1271
23.9517
25.4699
28.4207
34.8498
48.3563
73.9412
129.356
226.676
338.512
433.074
499.309
2163.88
469.367
127.051
52.2936
42.342
42.1661
41.8055
41.2267
39.8114
37.7893
35.3134
32.6546
30.1103
27.8644
26.0421
24.5915
23.3789
22.3584
21.4928
20.7601
20.1448
19.6423
19.2596
19.0192
18.9645
19.1273
19.4809
19.9571
20.4738
20.9184
21.2752
21.5506
21.7525
21.8961
22.0136
22.1197
22.2464
22.443
22.7964
23.4599
24.7212
27.1874
32.3667
44.0534
68.0925
119.331
219.101
343.347
451.458
527.654
2172.4
460.611
124.221
52.568
43.3829
44.0831
44.2899
44.2045
43.093
41.1211
38.4056
35.3754
32.36
29.7203
27.6112
25.9554
24.6226
23.4923
22.5459
21.7448
21.0717
20.512
20.0728
19.7708
19.6527
19.7548
20.0572
20.4961
20.9857
21.3833
21.6814
21.8898
22.0183
22.0826
22.1236
22.1562
22.208
22.3222
22.5731
23.0938
24.1289
26.18
30.4356
40.3858
62.2771
108.359
208.05
345.708
469.531
557.472
2180.37
456.577
122.823
52.9613
44.38
46.0228
46.9501
47.5528
46.9043
45.0495
42.1638
38.6827
35.099
31.9437
29.4271
27.5147
26.0242
24.7756
23.7373
22.8612
22.1244
21.5035
21.0026
20.6339
20.4459
20.4803
20.7252
21.1208
21.581
21.9318
22.1695
22.3101
22.3663
22.3537
22.3206
22.2833
22.2675
22.3078
22.4668
22.8605
23.6971
25.3971
28.9565
37.456
56.7417
97.3443
193.295
344.894
486.83
588.676
2187.57
454.893
122.455
53.4056
45.3052
47.9499
49.7511
51.2199
51.2442
49.7331
46.7382
42.7152
38.4492
34.5952
31.5455
29.3734
27.6285
26.25
25.0974
24.1384
23.3286
22.6421
22.0721
21.6304
21.3656
21.3235
21.5032
21.8482
22.2743
22.5822
22.7594
22.8319
22.8163
22.7281
22.6221
22.5183
22.4389
22.4112
22.4907
22.7702
23.4321
24.8283
27.7935
34.89
51.4974
87.1575
176.351
340.531
502.835
621.222
2193.92
454.119
122.54
53.813
46.1264
49.8047
52.5962
55.1445
56.0948
55.1945
52.2715
47.7617
42.6692
37.8764
34.127
31.4992
29.478
27.9361
26.661
25.6039
24.7153
23.9547
23.3099
22.7875
22.4367
22.3089
22.4141
22.6993
23.081
23.3556
23.4745
23.4792
23.3919
23.2282
23.0482
22.8788
22.7402
22.6514
22.6568
22.8378
23.3443
24.4718
26.8961
32.4978
46.3111
78.4553
159.696
332.297
516.844
655.092
2199.63
453.894
122.715
54.0722
46.8259
51.5094
55.4045
59.18
61.3318
61.4436
58.9136
54.1001
47.9646
41.9614
37.3431
33.9989
31.69
29.9017
28.4829
27.3044
26.3315
25.4823
24.7585
24.1416
23.6941
23.4719
23.4883
23.7038
24.0233
24.2762
24.3419
24.281
24.1216
23.8806
23.6228
23.3877
23.1935
23.0483
22.9888
23.081
23.4499
24.3403
26.2928
30.6986
41.9615
70.5987
143.775
318.804
528.028
690.266
2204.23
453.179
122.625
54.1777
47.4541
53.001
58.0474
63.1794
66.8015
68.2325
66.6969
61.9938
54.8495
47.4289
41.3415
37.0523
34.2444
32.2052
30.6152
29.2975
28.2231
27.2771
26.4611
25.74
25.1834
24.8508
24.7661
24.8987
25.1418
25.3702
25.3935
25.2702
25.0388
24.7174
24.3738
24.0746
23.8278
23.631
23.5126
23.5258
23.773
24.4548
26.0101
29.557
38.8799
63.6765
127.927
297.078
535.509
726.884
2207.63
451.34
122.049
54.1743
47.9778
54.2296
60.4119
66.9576
72.1833
75.3522
75.5265
71.6415
63.9105
54.5862
46.3618
41.2615
37.328
35.0111
33.1612
31.6817
30.4711
29.4211
28.4891
27.6513
26.9711
26.5059
26.3038
26.3377
26.4932
26.6643
26.6629
26.4858
26.1828
25.7757
25.3384
24.9796
24.6818
24.4375
24.2661
24.2082
24.3475
24.8459
26.0613
28.9147
36.5933
57.6189
112.279
269.443
538.672
765.076
2209.54
447.991
120.906
54.115
48.4383
55.1816
62.3873
70.2877
77.2387
82.7117
84.9926
83.0512
75.787
64.2698
53.6167
46.2712
41.0981
38.355
36.2519
34.545
33.1845
32
30.9388
29.9638
29.1368
28.518
28.1751
28.0933
28.1463
28.2241
28.1871
27.9688
27.5961
27.0973
26.5736
26.1581
25.8115
25.522
25.3003
25.1796
25.2219
25.5585
26.477
28.7142
34.7389
51.8914
98.378
240.379
536.297
804.698
2209.82
443.101
119.22
54.0889
48.9157
55.8749
63.8821
73.0675
81.933
89.7923
95.1511
96.5001
90.8761
77.6833
63.9887
52.9486
46.2057
42.577
40.1033
38.0697
36.5508
35.1672
33.9797
32.813
31.8097
31.0241
30.4916
30.2766
30.2044
30.1673
30.047
29.7715
29.3278
28.751
28.163
27.6907
27.2949
26.9566
26.6927
26.5139
26.4695
26.6625
27.3165
28.9994
33.3875
46.3745
86.3855
210.557
524.166
844.526
2207.86
436.959
117.11
54.1872
49.5986
56.4116
65.0505
75.2892
86.165
97.0586
106.312
111.778
109.401
97.2878
78.7275
62.2501
52.3743
47.8401
44.9563
42.5178
40.7535
39.1513
37.775
36.3886
35.1742
34.168
33.413
33.0306
32.8103
32.6432
32.407
32.0344
31.5135
30.8742
30.2289
29.6953
29.2499
28.8652
28.5559
28.3241
28.2018
28.2637
28.6852
29.8907
33.1424
43.1142
75.795
180.915
494.43
882.264
2202.53
429.892
114.602
54.621
50.7319
57.0428
66.1037
77.1637
90.5544
105.229
119.185
129.941
133.168
123.809
101.903
80.0939
62.9288
55.1489
51.4264
48.3998
46.2215
44.3579
42.6689
41.0246
39.5542
38.2309
37.2063
36.5978
36.193
35.8684
35.4953
35.0083
34.3963
33.6794
32.9593
32.3598
31.8528
31.422
31.0716
30.7844
30.5891
30.5329
30.7426
31.5403
33.8867
41.5006
67.758
155.387
448.038
916.102
2192.07
421.681
111.392
55.5326
52.862
58.2731
67.8639
79.3534
95.4461
115.999
136.741
154.299
164.612
160.603
139.672
105.691
76.4478
64.9546
60.2277
56.2643
53.5701
51.2789
49.1956
47.2153
45.3814
43.6489
42.2656
41.3584
40.7164
40.2029
39.6591
39.0292
38.3008
37.4811
36.667
35.9772
35.4093
34.9298
34.5236
34.1872
33.9152
33.7462
33.7675
34.1903
35.7198
41.0679
60.5455
134.573
402.718
952.654
2173.69
411.908
107.124
57.3125
56.8771
60.9401
71.4209
82.7867
102.099
131.357
162.597
190.813
208.881
211.06
201.086
166.484
104.862
79.7566
73.1791
67.8081
64.2391
61.2073
58.5633
56.1066
53.7129
51.363
49.4093
48.0491
47.0487
46.246
45.4838
44.6843
43.793
42.8355
41.8792
41.0889
40.3985
39.8393
39.4319
39.0152
38.6854
38.3975
38.2315
38.3298
39.1119
42.5003
56.0988
116.798
356.402
981.438
2142.81
400.912
103.166
60.1461
65.5712
67.0152
80.0033
90.5934
112.847
151.405
199.108
248.587
286.672
309.119
333.269
289.262
159.532
103.41
93.4675
85.5775
80.4764
76.2044
72.6281
69.3329
66.0295
62.7408
59.9263
57.8819
56.3476
55.2068
54.1333
53.0456
51.9469
50.782
49.6236
48.6515
47.8531
47.2243
46.7145
46.2922
45.8453
45.4572
45.1013
44.833
44.9537
46.4977
55.8291
101.155
308.751
1004.62
2090.97
388.844
113.278
67.3861
85.9208
81.6709
100.663
109.215
132.348
177.786
242.266
325.395
411.642
477.38
554.249
507.751
271.699
144.33
129.291
117.565
109.203
102.447
97.0674
92.1322
87.0541
81.8999
77.3059
73.9456
71.3977
69.5717
67.9866
66.514
65.0189
63.5203
62.0402
60.7962
59.7131
58.8897
58.5247
57.9652
57.5742
56.9671
56.4348
55.7995
55.1036
55.0292
59.6945
88.3873
272.673
1020.93
1993
382.932
157.354
94.1776
147.589
125.505
156.814
160.767
178.244
214.624
281.893
381.296
499.648
583.277
721.59
769.568
474.607
244.724
211.341
188.976
172.007
158.345
147.301
137.429
127.737
118.209
109.917
103.782
99.2799
96.112
93.5043
91.1312
88.9421
86.7779
84.5459
82.7876
81.2863
80.3307
79.9816
79.5944
79.1938
78.6506
77.8347
76.5368
74.7034
72.6582
71.9054
90.1578
245.074
1031.41
1775.39
428.084
359.861
204.657
364.668
296.98
343.587
335.31
337.433
342.485
369.253
409.24
459.451
562.695
576.892
735.522
666.879
456.184
393.17
361.013
328.984
300.462
275.847
253.112
230.937
208.553
189.169
175.203
165.283
158.349
152.871
148.082
144.076
140.13
135.827
132.489
129.8
128.181
127.485
126.897
126.578
126.515
126.444
125.016
121.26
115.577
109.356
109.42
221.552
1022.98
1573.67
895.527
1410.76
909.359
1246.71
1103.15
1133.34
1093.41
1073.14
1039.94
997.026
970.475
955.475
953.618
937.348
1015.27
1003.25
924.22
823.468
794.129
758.698
720.252
685.202
644.097
595.497
534.931
475.396
433.042
401.894
379.599
362.399
348.03
336.378
325.306
313.542
304.304
296.957
292.151
289.095
286.298
284.81
286.826
292.957
294.02
283.584
265.897
249.406
222.877
267.355
1098.39
7839.23
7697.64
7547.56
7388.85
7221.41
7045.22
6860.33
6666.89
6465.11
6255.33
6038
5813.66
5582.96
5346.7
5105.75