/*--------------------------------*- C++ -*----------------------------------*\
  =========                 |
  \\      /  F ield         | OpenFOAM: The Open Source CFD Toolbox
   \\    /   O peration     | Website:  https://openfoam.org
    \\  /    A nd           | Version:  10
     \\/     M anipulation  |
\*---------------------------------------------------------------------------*/
FoamFile
{
    format      ascii;
    class       volScalarField;
    location    "40000";
    object      p;
}
// * * * * * * * * * * * * * * * * * * * * * * * * * * * * * * * * * * * * * //

dimensions      [0 2 -2 0 0 0 0];

internalField   nonuniform List<scalar> 
20625
(
-3.12631e-08
0.0383162
0.0506339
0.0758765
0.106067
0.141298
0.18209
0.228949
0.282617
0.344231
0.41515
0.49689
0.59081
0.697931
0.818958
0.954577
1.10561
1.27323
1.45923
1.66527
1.8933
2.14568
2.42507
2.73447
3.07722
3.44046
3.79399
4.12256
4.42728
4.70945
4.97039
5.21153
5.43437
5.64037
5.83071
6.00635
6.16822
6.31722
6.45418
6.57993
6.69526
6.80095
6.89773
6.98632
7.06739
7.14154
7.20937
7.2714
7.32815
7.38004
0.000144639
0.0389711
0.0513725
0.0768755
0.107078
0.142132
0.182499
0.228656
0.281255
0.341309
0.410127
0.489278
0.580355
0.684709
0.803326
0.936967
1.08651
1.25295
1.43783
1.64314
1.87072
2.12286
2.40225
2.71192
3.05525
3.41941
3.77409
4.10394
4.41
4.69356
4.95588
5.1983
5.42232
5.62945
5.82091
5.99763
6.16053
6.31047
6.4483
6.57483
6.69086
6.79716
6.89449
6.98354
7.06501
7.1395
7.20762
7.26991
7.32686
7.37893
0.000459821
0.0396879
0.0522033
0.0779787
0.108217
0.143156
0.183199
0.228782
0.280538
0.339323
0.406362
0.483154
0.571417
0.672767
0.788557
0.919774
1.06732
1.23227
1.41588
1.62007
1.84699
2.09878
2.37809
2.68799
3.03189
3.39699
3.75287
4.08409
4.39159
4.67664
4.94046
5.18433
5.40968
5.61804
5.81071
5.98863
6.15264
6.3036
6.44236
6.56972
6.68649
6.79344
6.89132
6.98086
7.06274
7.13759
7.20601
7.26855
7.32571
7.37797
0.000756359
0.0404216
0.05306
0.0790873
0.109372
0.144257
0.184066
0.229199
0.280256
0.338028
0.403609
0.47841
0.564081
0.662431
0.775112
0.903489
1.04859
1.21155
1.39368
1.59655
1.82242
2.07367
2.35279
2.66284
3.0073
3.37335
3.73047
4.06312
4.37215
4.65879
4.92423
5.16969
5.3965
5.60621
5.8002
5.9794
6.1446
6.29665
6.43639
6.56464
6.68217
6.7898
6.88826
6.97831
7.06061
7.13582
7.20454
7.26733
7.32471
7.37714
0.00123541
0.0410928
0.0538559
0.0801431
0.110498
0.145362
0.184999
0.229776
0.280257
0.337209
0.401627
0.474807
0.55828
0.653831
0.763371
0.888593
1.03086
1.19136
1.37152
1.5729
1.79746
2.04783
2.32658
2.63667
2.98162
3.34863
3.707
4.04111
4.35177
4.6401
4.90727
5.15445
5.38286
5.59404
5.78946
5.97002
6.13648
6.28968
6.43046
6.55962
6.67797
6.78629
6.88536
6.97591
7.05864
7.13422
7.20325
7.26629
7.32387
7.37648
0.00149965
0.0417132
0.0545853
0.081121
0.111568
0.146428
0.185931
0.230425
0.280442
0.336713
0.400205
0.472085
0.553767
0.646918
0.753497
0.875476
1.01459
1.17226
1.34994
1.54941
1.77249
2.02163
2.29977
2.60968
2.95502
3.32296
3.6826
4.01821
4.33057
4.62067
4.88968
5.13869
5.36884
5.58161
5.77855
5.96055
6.12833
6.28274
6.4246
6.55471
6.67389
6.78294
6.88262
6.97369
7.05687
7.13281
7.20214
7.26544
7.32322
7.37599
0.00133416
0.0422614
0.0552437
0.0820037
0.112544
0.147417
0.186815
0.231076
0.280711
0.336426
0.399157
0.470011
0.550248
0.641439
0.745431
0.864337
1.00017
1.15471
1.32955
1.52659
1.74785
1.99548
2.27265
2.5822
2.92774
3.29656
3.65748
3.99459
4.30868
4.60063
4.87156
5.12252
5.35453
5.56902
5.76755
5.95104
6.12021
6.27587
6.41885
6.54995
6.66999
6.77977
6.88008
6.97168
7.0553
7.13161
7.20124
7.26477
7.32276
7.37568
0.000679485
0.0427495
0.0558503
0.0828121
0.113415
0.148289
0.187599
0.231665
0.280985
0.336248
0.398358
0.46837
0.547457
0.637065
0.738931
0.855094
0.987791
1.13907
1.31084
1.50504
1.72398
1.96989
2.24567
2.55454
2.90006
3.26962
3.63183
3.97046
4.28626
4.58012
4.85305
5.10604
5.34001
5.55634
5.75652
5.94155
6.11214
6.26911
6.41324
6.54536
6.66627
6.7768
6.87775
6.96988
7.05394
7.1306
7.20053
7.2643
7.32247
7.37554
-0.000290689
0.0431577
0.0563896
0.0835441
0.114184
0.149039
0.188264
0.23216
0.281213
0.336101
0.397703
0.467012
0.545172
0.633509
0.733653
0.847534
0.977396
1.12553
1.29413
1.48527
1.70147
1.94524
2.21933
2.52713
2.87235
3.24242
3.60585
3.94603
4.26355
4.55933
4.83428
5.08934
5.32538
5.54361
5.74548
5.93209
6.10418
6.26248
6.4078
6.54095
6.66276
6.77404
6.87562
6.96829
7.05278
7.1298
7.2
7.264
7.32234
7.37555
-0.00138323
0.0434933
0.0568539
0.0841872
0.114854
0.149682
0.188819
0.23255
0.281362
0.335934
0.39711
0.465842
0.543226
0.630544
0.729298
0.841322
0.96877
1.11406
1.27954
1.4676
1.68083
1.92204
2.19413
2.50048
2.84502
3.21534
3.57979
3.92151
4.24077
4.53842
4.8154
5.07255
5.31069
5.53087
5.73449
5.92275
6.09637
6.25604
6.40256
6.53676
6.65945
6.77149
6.87371
6.96689
7.05181
7.12918
7.19965
7.26386
7.32237
7.3757
-0.00243858
0.0437842
0.0572644
0.084762
0.115439
0.150226
0.189266
0.232834
0.281427
0.33572
0.396532
0.464781
0.541521
0.627993
0.725633
0.836149
0.961616
1.10442
1.26706
1.45214
1.66236
1.90076
2.17051
2.47515
2.8186
3.18876
3.55403
3.89714
4.21813
4.51763
4.79659
5.05583
5.29607
5.51825
5.72369
5.91362
6.08878
6.24983
6.39755
6.53278
6.65637
6.76916
6.87199
6.96569
7.05102
7.12872
7.19946
7.26387
7.32253
7.37597
-0.00334742
0.0440624
0.0576471
0.0852953
0.115962
0.150692
0.189624
0.233032
0.28142
0.335463
0.395955
0.463788
0.539989
0.625749
0.722474
0.83178
0.955629
1.09635
1.25651
1.43883
1.64616
1.88169
2.14886
2.45147
2.79361
3.16319
3.52895
3.87327
4.19587
4.49719
4.77808
5.03937
5.28171
5.5059
5.71317
5.90478
6.08148
6.24388
6.39279
6.52904
6.6535
6.76702
6.87047
6.96466
7.0504
7.12842
7.1994
7.264
7.32279
7.37632
-0.00405415
0.0443221
0.0580138
0.085805
0.116448
0.151107
0.189921
0.233173
0.28137
0.335182
0.395386
0.462855
0.538592
0.623759
0.719709
0.828033
0.950577
1.08959
1.24764
1.4275
1.63215
1.86491
2.12943
2.42976
2.77035
3.13911
3.50498
3.85026
4.17432
4.47738
4.76012
5.02338
5.26775
5.49391
5.70302
5.8963
6.07449
6.23822
6.38829
6.52554
6.65084
6.76508
6.86912
6.96379
7.04992
7.12823
7.19945
7.26422
7.32314
7.37675
-0.0044492
0.0445675
0.0583764
0.0863117
0.116918
0.151496
0.190188
0.233287
0.281306
0.334905
0.394848
0.461994
0.537328
0.621987
0.717292
0.824787
0.946286
1.0839
1.24018
1.41792
1.62016
1.85035
2.11228
2.41024
2.74904
3.11685
3.48251
3.82845
4.15378
4.45844
4.74294
5.00803
5.25433
5.4824
5.69331
5.88822
6.06786
6.23287
6.38405
6.52226
6.64839
6.76331
6.86792
6.96306
7.04955
7.12816
7.19959
7.26452
7.32354
7.37722
-0.00456937
0.0448235
0.0587552
0.0868378
0.117396
0.151887
0.190456
0.233407
0.281261
0.334665
0.394371
0.461229
0.536209
0.620431
0.71519
0.821993
0.942615
1.07911
1.23392
1.40984
1.60998
1.83784
2.09736
2.39299
2.72984
3.09651
3.46182
3.80813
4.1345
4.44058
4.72672
4.99352
5.2416
5.47146
5.6841
5.88058
6.0616
6.22782
6.38007
6.51921
6.64611
6.7617
6.86685
6.96244
7.04928
7.12816
7.1998
7.26486
7.32398
7.37772
-0.0045841
0.045115
0.0591681
0.0873963
0.1179
0.152304
0.190754
0.233562
0.281259
0.334489
0.393983
0.460585
0.535256
0.619101
0.713395
0.819617
0.939494
1.07506
1.22866
1.40305
1.60137
1.82717
2.08449
2.37792
2.71282
3.0782
3.44302
3.78947
4.11665
4.42397
4.71158
4.97998
5.22968
5.46121
5.67547
5.87342
6.05572
6.22309
6.37635
6.51636
6.64401
6.76023
6.8659
6.96191
7.04909
7.12822
7.20004
7.26524
7.32445
7.37823
-0.00454929
0.0454541
0.0596252
0.0879915
0.118445
0.152768
0.191109
0.233788
0.281336
0.3344
0.393705
0.460081
0.534483
0.618004
0.711902
0.817632
0.936887
1.07165
1.22426
1.39738
1.59414
1.81815
2.0735
2.36491
2.69792
3.06197
3.42611
3.77256
4.10033
4.40871
4.69762
4.96745
5.21863
5.4517
5.66746
5.86675
6.05024
6.21867
6.37287
6.5137
6.64206
6.75887
6.86504
6.96145
7.04894
7.12832
7.20032
7.26563
7.32491
7.37873
-0.00447326
0.0458447
0.0601373
0.0886283
0.119034
0.153291
0.191538
0.234109
0.28153
0.334441
0.39357
0.459742
0.533906
0.617144
0.710701
0.816014
0.934745
1.06884
1.2206
1.39266
1.58811
1.81056
2.06418
2.35378
2.68502
3.04771
3.4111
3.75744
4.08562
4.39485
4.68489
4.95597
5.20848
5.44293
5.66004
5.86054
6.04512
6.21455
6.36962
6.51121
6.64023
6.75761
6.86425
6.96104
7.04883
7.12843
7.2006
7.26603
7.32537
7.37921
-0.00435809
0.0462836
0.0606984
0.0893086
0.119675
0.15388
0.192049
0.234531
0.281853
0.33464
0.393616
0.459608
0.533558
0.616542
0.709799
0.81475
0.933033
1.06657
1.2176
1.38877
1.58312
1.80425
2.05635
2.34433
2.67396
3.03532
3.39794
3.74408
4.07251
4.38241
4.67339
4.94554
5.19922
5.43489
5.65318
5.85478
6.04037
6.21069
6.36657
6.50888
6.63852
6.75642
6.86351
6.96066
7.04874
7.12856
7.20088
7.26641
7.3258
7.37966
-0.00421325
0.0467638
0.0612981
0.0900319
0.120368
0.154533
0.19264
0.235049
0.282288
0.334979
0.393835
0.45968
0.53345
0.616217
0.709208
0.813837
0.931731
1.06478
1.21521
1.38561
1.57904
1.79904
2.04985
2.3364
2.66457
3.02468
3.38652
3.73236
4.06094
4.37135
4.66311
4.93619
5.19087
5.42759
5.64692
5.84949
6.03597
6.20711
6.36372
6.50668
6.63689
6.7553
6.8628
6.9603
7.04865
7.12868
7.20114
7.26677
7.32621
7.38009
-0.00404475
0.0472883
0.0619402
0.0907935
0.12111
0.155246
0.193308
0.235659
0.282831
0.335443
0.394204
0.45993
0.533552
0.616137
0.708904
0.813256
0.930813
1.06345
1.21336
1.38312
1.57576
1.79481
2.0445
2.32981
2.65668
3.01563
3.3767
3.72219
4.05082
4.36163
4.65401
4.92787
5.1834
5.42102
5.64123
5.84464
6.03191
6.20377
6.36104
6.5046
6.63535
6.75421
6.86211
6.95994
7.04856
7.12878
7.20139
7.2671
7.32659
7.38048
-0.0038586
0.0478532
0.0626235
0.0915914
0.121899
0.15602
0.194048
0.236357
0.28348
0.336031
0.394716
0.460345
0.533845
0.616278
0.708857
0.812978
0.930249
1.06253
1.21201
1.38123
1.57319
1.79145
2.04018
2.32442
2.65014
3.00802
3.36835
3.71347
4.04205
4.35313
4.64601
4.92051
5.17677
5.41513
5.63609
5.84022
6.02816
6.20066
6.35852
6.50262
6.63386
6.75316
6.86144
6.95958
7.04845
7.12887
7.20162
7.26742
7.32695
7.38085
-0.00366365
0.0484502
0.0633445
0.0924217
0.122729
0.156846
0.194857
0.237141
0.284231
0.336738
0.395367
0.460921
0.534324
0.616631
0.709053
0.812979
0.930011
1.062
1.21111
1.37987
1.57127
1.78884
2.03677
2.32008
2.6448
3.00172
3.36135
3.70607
4.03455
4.34576
4.63905
4.91405
5.1709
5.40988
5.63146
5.83619
6.02471
6.19776
6.35614
6.50072
6.63242
6.75213
6.86076
6.95921
7.04833
7.12894
7.20182
7.26771
7.32729
7.38119
-0.00346796
0.0490816
0.0641024
0.0932811
0.123597
0.157719
0.195728
0.238004
0.285078
0.33756
0.39615
0.46165
0.534979
0.617188
0.709482
0.813247
0.930079
1.06182
1.21062
1.379
1.56992
1.78692
2.03417
2.31668
2.64052
2.99658
3.35555
3.69987
4.0282
4.33948
4.63304
4.90842
5.16573
5.40521
5.62729
5.83251
6.02152
6.19504
6.35388
6.4989
6.63101
6.7511
6.86008
6.95883
7.04819
7.12899
7.20201
7.26798
7.3276
7.38152
-0.00326073
0.0497533
0.064891
0.0941642
0.124499
0.158637
0.196657
0.23894
0.286014
0.338488
0.397058
0.462525
0.535801
0.617936
0.710131
0.813766
0.930432
1.06197
1.21052
1.37857
1.5691
1.7856
2.03228
2.31411
2.63719
2.99248
3.35084
3.69476
4.0229
4.33418
4.62788
4.90355
5.1612
5.40107
5.62354
5.82916
6.01857
6.19248
6.35172
6.49713
6.62962
6.75008
6.85939
6.95843
7.04803
7.12902
7.20218
7.26824
7.32791
7.38183
-0.00302023
0.050444
0.0656992
0.0950676
0.125429
0.159597
0.197641
0.239945
0.287034
0.339516
0.398084
0.463535
0.53678
0.618864
0.710985
0.814519
0.931053
1.06242
1.21076
1.37856
1.56875
1.78485
2.03104
2.31229
2.6347
2.98931
3.3471
3.69063
4.01855
4.32978
4.62353
4.89938
5.15725
5.3974
5.62017
5.8261
6.01582
6.19007
6.34964
6.49541
6.62825
6.74905
6.85868
6.958
7.04785
7.12903
7.20233
7.26849
7.3282
7.38214
-0.00273077
0.0511412
0.0665214
0.0959908
0.126387
0.160594
0.198676
0.241013
0.288132
0.340635
0.399217
0.46467
0.537904
0.619958
0.712029
0.81549
0.931923
1.06316
1.21132
1.37891
1.56884
1.7846
2.03037
2.31114
2.63297
2.98698
3.34424
3.68739
4.01506
4.32617
4.61991
4.89585
5.15385
5.39416
5.61715
5.82329
6.01325
6.18777
6.34764
6.49372
6.62688
6.74801
6.85795
6.95756
7.04765
7.12903
7.20248
7.26873
7.3285
7.38244
-0.00237622
0.0518483
0.0673552
0.0969333
0.127371
0.161626
0.199757
0.24214
0.2893
0.34184
0.40045
0.465921
0.539161
0.621206
0.71325
0.816662
0.933022
1.06416
1.21219
1.3796
1.56931
1.7848
2.03022
2.31058
2.63191
2.98538
3.34216
3.68493
4.01233
4.32327
4.61695
4.89289
5.15094
5.39134
5.61443
5.82072
6.01085
6.18557
6.34569
6.49205
6.62551
6.74695
6.8572
6.95709
7.04743
7.12902
7.20261
7.26897
7.32879
7.38275
-0.00196152
0.0525671
0.0682044
0.0978935
0.128378
0.162689
0.20088
0.243319
0.290532
0.343121
0.401773
0.467277
0.540539
0.622594
0.714631
0.818018
0.934332
1.0654
1.21333
1.3806
1.57014
1.7854
2.03054
2.31055
2.63146
2.98445
3.34078
3.68317
4.01029
4.32102
4.61456
4.89042
5.14846
5.38886
5.61199
5.81835
6.00859
6.18347
6.34379
6.49039
6.62413
6.74587
6.85642
6.9566
7.0472
7.12899
7.20274
7.2692
7.32909
7.38307
-0.00150764
0.053297
0.0690662
0.098865
0.129402
0.163782
0.20204
0.244545
0.291822
0.34447
0.403176
0.468728
0.542027
0.624108
0.716158
0.819541
0.935833
1.06685
1.21472
1.38189
1.5713
1.78638
2.03129
2.31101
2.63154
2.9841
3.34002
3.68205
4.00885
4.31934
4.61269
4.88841
5.14636
5.38667
5.60977
5.81615
6.00646
6.18144
6.34192
6.48874
6.62274
6.74476
6.85561
6.95608
7.04694
7.12895
7.20287
7.26944
7.32939
7.38339
-0.00102303
0.0540239
0.0699277
0.099843
0.130438
0.164897
0.203232
0.245812
0.293162
0.34588
0.404652
0.470263
0.543614
0.625736
0.717816
0.821216
0.937507
1.06851
1.21633
1.38344
1.57275
1.78769
2.03241
2.31189
2.6321
2.98428
3.33981
3.68148
4.00796
4.31817
4.61128
4.88681
5.1446
5.38478
5.60778
5.81412
6.00443
6.17948
6.34008
6.48709
6.62132
6.74362
6.85477
6.95553
7.04665
7.12889
7.20299
7.26968
7.3297
7.38372
-0.000511439
0.0547396
0.0707771
0.100824
0.131486
0.16603
0.20445
0.247113
0.294545
0.347343
0.406191
0.471872
0.545287
0.627465
0.719591
0.823025
0.939336
1.07034
1.21815
1.38522
1.57446
1.78931
2.03388
2.31315
2.63309
2.98493
3.34009
3.6814
4.00755
4.31745
4.61028
4.88556
5.14313
5.38315
5.60599
5.81223
6.0025
6.17757
6.33827
6.48543
6.61988
6.74245
6.85389
6.95494
7.04635
7.12882
7.2031
7.26992
7.33001
7.38405
2.69176e-05
0.0554408
0.0716157
0.101799
0.132541
0.167183
0.205692
0.248444
0.295965
0.348851
0.407784
0.473546
0.547036
0.629283
0.721469
0.824953
0.941303
1.07233
1.22015
1.38721
1.57641
1.79119
2.03565
2.31476
2.63446
2.98599
3.34081
3.68176
4.00756
4.31712
4.60963
4.88462
5.14193
5.38172
5.60437
5.81046
6.00065
6.17572
6.33648
6.48377
6.61842
6.74124
6.85297
6.95432
7.04601
7.12873
7.20321
7.27016
7.33032
7.3844
0.000597649
0.0561288
0.0724467
0.102765
0.133598
0.168353
0.206954
0.249799
0.297415
0.350397
0.409423
0.475276
0.548851
0.631178
0.723437
0.826986
0.943392
1.07446
1.22231
1.38938
1.57857
1.79331
2.03769
2.31667
2.63617
2.98742
3.34191
3.68251
4.00795
4.31714
4.6093
4.88396
5.14096
5.38048
5.60291
5.80881
5.99889
6.17391
6.3347
6.4821
6.61694
6.73999
6.852
6.95367
7.04565
7.12863
7.2033
7.2704
7.33065
7.38475
0.00120987
0.0567993
0.0732669
0.10372
0.13465
0.169533
0.208232
0.251172
0.29889
0.351974
0.411101
0.477051
0.550721
0.633138
0.725482
0.82911
0.945586
1.07672
1.22461
1.39171
1.58091
1.79564
2.03997
2.31884
2.63818
2.98917
3.34334
3.68359
4.00866
4.31747
4.60925
4.88354
5.1402
5.37941
5.60157
5.80727
5.99719
6.17214
6.33294
6.48043
6.61542
6.7387
6.851
6.95296
7.04525
7.1285
7.20339
7.27064
7.33097
7.3851
0.00186107
0.057449
0.0740725
0.104657
0.135687
0.170709
0.209517
0.252558
0.300382
0.353576
0.41281
0.478866
0.552637
0.635153
0.727593
0.831311
0.947872
1.07908
1.22703
1.39419
1.58342
1.79815
2.04246
2.32126
2.64045
2.99121
3.34507
3.68497
4.00965
4.31806
4.60944
4.88334
5.13963
5.3785
5.60037
5.80582
5.99557
6.17041
6.33119
6.47874
6.61388
6.73738
6.84994
6.95222
7.04481
7.12834
7.20346
7.27087
7.33129
7.38546
0.00254665
0.0580763
0.0748605
0.105573
0.136706
0.171875
0.2108
0.253954
0.301887
0.355195
0.414543
0.48071
0.554591
0.637214
0.729758
0.833577
0.950235
1.08153
1.22957
1.39678
1.58607
1.80083
2.04513
2.32387
2.64294
2.99349
3.34706
3.6866
4.01088
4.31888
4.60983
4.88332
5.13922
5.37772
5.59927
5.80446
5.99401
6.16873
6.32946
6.47706
6.61232
6.73601
6.84884
6.95142
7.04433
7.12815
7.20351
7.27109
7.33162
7.38582
0.00326133
0.0586793
0.0756305
0.106468
0.13771
0.173033
0.21208
0.255352
0.3034
0.356827
0.416293
0.482577
0.556574
0.639311
0.731967
0.835897
0.952662
1.08406
1.23219
1.39949
1.58884
1.80364
2.04795
2.32666
2.64563
2.99598
3.34926
3.68845
4.01233
4.31989
4.61041
4.88346
5.13894
5.37707
5.59827
5.80317
5.99251
6.16708
6.32775
6.47537
6.61074
6.73461
6.84769
6.95058
7.04381
7.12793
7.20354
7.2713
7.33194
7.38618
0.00399393
0.0592553
0.0763847
0.107341
0.138703
0.174186
0.21336
0.256749
0.30492
0.358467
0.418058
0.484461
0.558578
0.641435
0.734212
0.83826
0.955143
1.08665
1.23488
1.40228
1.5917
1.80657
2.05091
2.3296
2.64849
2.99865
3.35165
3.69048
4.01395
4.32108
4.61114
4.88374
5.1388
5.37652
5.59737
5.80197
5.99107
6.16548
6.32607
6.47368
6.60913
6.73318
6.8465
6.94968
7.04323
7.12767
7.20354
7.27149
7.33225
7.38654
0.00472954
0.0598056
0.0771254
0.108193
0.139688
0.175329
0.214635
0.258146
0.306443
0.360112
0.419829
0.486356
0.560597
0.643579
0.736481
0.840657
0.957665
1.08929
1.23764
1.40514
1.59466
1.80959
2.05398
2.33267
2.65148
3.00147
3.3542
3.69267
4.01572
4.3224
4.612
4.88415
5.13876
5.37607
5.59655
5.80084
5.98969
6.16393
6.32441
6.472
6.60752
6.73171
6.84526
6.94872
7.04261
7.12736
7.20351
7.27167
7.33255
7.38689
0.0054553
0.0603389
0.0778513
0.109022
0.140666
0.17646
0.215901
0.259541
0.307961
0.361757
0.4216
0.488255
0.562623
0.645735
0.738769
0.843077
0.960218
1.09198
1.24045
1.40806
1.59768
1.81269
2.05714
2.33583
2.65459
3.00441
3.35687
3.695
4.01762
4.32384
4.61298
4.88466
5.13882
5.37571
5.5958
5.79977
5.98836
6.16241
6.32278
6.47033
6.6059
6.73022
6.84397
6.94772
7.04192
7.12701
7.20345
7.27183
7.33284
7.38724
0.0061866
0.0608511
0.0785601
0.109825
0.141629
0.177577
0.217154
0.260927
0.309472
0.363398
0.423369
0.490153
0.564652
0.647896
0.741066
0.845513
0.962794
1.09469
1.24329
1.41102
1.60075
1.81586
2.06037
2.33908
2.65779
3.00746
3.35966
3.69742
4.01962
4.32538
4.61405
4.88525
5.13896
5.37542
5.59513
5.79876
5.98709
6.16095
6.32119
6.46869
6.60427
6.7287
6.84265
6.94666
7.04118
7.12661
7.20335
7.27196
7.33312
7.38757
0.00692034
0.0613273
0.0792495
0.110599
0.142574
0.178676
0.218391
0.262302
0.310973
0.36503
0.42513
0.492045
0.566677
0.650057
0.743367
0.847957
0.965385
1.09742
1.24616
1.41402
1.60386
1.81907
2.06365
2.3424
2.66107
3.01059
3.36253
3.69994
4.02171
4.327
4.61519
4.88592
5.13918
5.3752
5.59452
5.79782
5.98587
6.15952
6.31963
6.46706
6.60265
6.72717
6.84128
6.94555
7.04039
7.12615
7.20321
7.27206
7.33337
7.3879
0.00760672
0.0617421
0.0799274
0.111354
0.143505
0.179759
0.21961
0.263661
0.312463
0.36665
0.42688
0.493927
0.568693
0.652212
0.745664
0.850402
0.967982
1.10016
1.24905
1.41703
1.607
1.82231
2.06698
2.34576
2.6644
3.01378
3.36547
3.70253
4.02387
4.32869
4.61639
4.88665
5.13945
5.37504
5.59396
5.79692
5.9847
6.15814
6.31811
6.46546
6.60104
6.72563
6.83989
6.94439
7.03953
7.12563
7.20302
7.27213
7.33361
7.38821
0.0081836
0.0620703
0.0806134
0.112097
0.144424
0.180822
0.22081
0.265002
0.313937
0.368254
0.428616
0.495795
0.570696
0.654355
0.747953
0.852843
0.970579
1.10291
1.25194
1.42006
1.61015
1.82558
2.07033
2.34915
2.66777
3.01702
3.36847
3.70518
4.02608
4.33044
4.61767
4.88744
5.13978
5.37494
5.59346
5.79608
5.98358
6.15681
6.31663
6.46389
6.59945
6.72408
6.83847
6.94318
7.03861
7.12506
7.20278
7.27217
7.33383
7.38851
0.00867536
0.0623211
0.0812967
0.112828
0.145324
0.181864
0.221987
0.266323
0.315392
0.369841
0.430332
0.497645
0.572682
0.656482
0.750227
0.855273
0.97317
1.10566
1.25484
1.4231
1.61331
1.82885
2.07369
2.35257
2.67116
3.02029
3.3715
3.70787
4.02836
4.33227
4.61901
4.88828
5.14014
5.37488
5.59301
5.79528
5.9825
6.15552
6.31518
6.46236
6.59787
6.72253
6.83703
6.94193
7.03764
7.12442
7.2025
7.27218
7.33403
7.38879
0.00913318
0.0625143
0.0819522
0.113541
0.1462
0.182883
0.223141
0.267619
0.316825
0.371405
0.432028
0.499473
0.574646
0.658588
0.752483
0.857687
0.975749
1.1084
1.25772
1.42613
1.61647
1.83212
2.07706
2.35599
2.67457
3.02358
3.37455
3.71059
4.03069
4.33414
4.62039
4.88916
5.14054
5.37485
5.59259
5.79452
5.98146
6.15426
6.31377
6.46085
6.59632
6.72099
6.83557
6.94064
7.0366
7.12372
7.20215
7.27214
7.3342
7.38905
0.00955311
0.0626648
0.082567
0.114227
0.14705
0.183875
0.224268
0.26889
0.318232
0.372945
0.433698
0.501276
0.576586
0.66067
0.754715
0.86008
0.978311
1.11112
1.2606
1.42914
1.61962
1.83539
2.08043
2.35941
2.67798
3.02688
3.37762
3.71333
4.03305
4.33603
4.62178
4.89007
5.14097
5.37485
5.5922
5.79379
5.98046
6.15304
6.3124
6.45937
6.5948
6.71946
6.83411
6.93932
7.03552
7.12295
7.20175
7.27207
7.33436
7.38931
0.00997382
0.0627947
0.0831355
0.114883
0.147868
0.18484
0.225368
0.270133
0.319612
0.374458
0.435341
0.503052
0.578497
0.662724
0.756921
0.862449
0.980852
1.11382
1.26346
1.43214
1.62275
1.83864
2.08377
2.36281
2.68138
3.03017
3.3807
3.71609
4.03542
4.33793
4.62318
4.89097
5.14142
5.37486
5.59184
5.79309
5.97949
6.15185
6.31105
6.45793
6.59329
6.71795
6.83264
6.93797
7.03438
7.12212
7.20129
7.27196
7.33449
7.38957
0.010403
0.062927
0.0836528
0.115508
0.148651
0.185775
0.226438
0.271347
0.320961
0.375941
0.436955
0.504798
0.580378
0.664746
0.759095
0.864789
0.983367
1.1165
1.26629
1.43512
1.62585
1.84186
2.0871
2.3662
2.68476
3.03345
3.38376
3.71884
4.03779
4.33983
4.62459
4.89189
5.14187
5.37488
5.5915
5.79242
5.97854
6.1507
6.30974
6.4565
6.59181
6.71645
6.83116
6.9366
7.0332
7.12123
7.20076
7.27179
7.3346
7.38981
0.0107668
0.0630985
0.0841039
0.116103
0.149399
0.186677
0.227476
0.272529
0.322279
0.377393
0.438537
0.506511
0.582225
0.666735
0.761236
0.867098
0.985854
1.11916
1.2691
1.43806
1.62893
1.84506
2.0904
2.36956
2.68812
3.03671
3.38681
3.72159
4.04015
4.34173
4.62599
4.8928
5.14232
5.37492
5.59118
5.79177
5.97762
6.14957
6.30845
6.45511
6.59035
6.71497
6.82969
6.9352
7.03198
7.12027
7.20016
7.27157
7.33467
7.39004
0.010946
0.0633519
0.0844669
0.116669
0.150108
0.187546
0.22848
0.273675
0.323563
0.378811
0.440085
0.50819
0.584036
0.668686
0.763339
0.869372
0.98831
1.12178
1.27187
1.44097
1.63197
1.84822
2.09366
2.37289
2.69145
3.03994
3.38984
3.72432
4.0425
4.34361
4.62739
4.89371
5.14277
5.37497
5.59086
5.79114
5.97673
6.14846
6.30719
6.45374
6.58891
6.7135
6.82823
6.9338
7.03071
7.11926
7.19949
7.27129
7.33471
7.39024
0.0109104
0.0637102
0.0847283
0.117207
0.15078
0.188379
0.229448
0.274783
0.324811
0.380193
0.441598
0.509832
0.58581
0.670598
0.765402
0.871608
0.99073
1.12437
1.27461
1.44385
1.63497
1.85134
2.09689
2.37618
2.69475
3.04314
3.39284
3.72703
4.04483
4.34549
4.62877
4.89462
5.14322
5.37502
5.59054
5.79052
5.97585
6.14738
6.30595
6.45238
6.58749
6.71204
6.82677
6.93238
7.02942
7.11818
7.19874
7.27094
7.33471
7.3904
0.0107221
0.0641644
0.0848959
0.117726
0.151413
0.189175
0.230377
0.275854
0.326022
0.381538
0.443074
0.511436
0.587543
0.672468
0.767424
0.873804
0.993114
1.12692
1.27731
1.44668
1.63793
1.85442
2.10007
2.37943
2.698
3.04631
3.3958
3.72971
4.04713
4.34734
4.63014
4.89551
5.14366
5.37506
5.59023
5.78991
5.97499
6.14632
6.30473
6.45105
6.58608
6.71059
6.82532
6.93096
7.02809
7.11705
7.19791
7.27053
7.33468
7.39054
0.0103988
0.0646828
0.0849885
0.118235
0.152006
0.189933
0.231264
0.276886
0.327193
0.382845
0.444511
0.513
0.589234
0.674295
0.7694
0.875958
0.995459
1.12944
1.27997
1.44946
1.64084
1.85745
2.1032
2.38263
2.70121
3.04943
3.39873
3.73235
4.04939
4.34917
4.6315
4.8964
5.1441
5.3751
5.58992
5.78932
5.97414
6.14527
6.30352
6.44973
6.58468
6.70915
6.82387
6.92952
7.02673
7.11586
7.19701
7.27004
7.33461
7.39069
0.00984282
0.0652039
0.0850344
0.118733
0.152556
0.190652
0.23211
0.277876
0.328323
0.384111
0.445907
0.514522
0.590881
0.676075
0.771329
0.878067
0.997762
1.13191
1.28258
1.4522
1.6437
1.86043
2.10628
2.38578
2.70437
3.0525
3.40161
3.73496
4.05163
4.35097
4.63283
4.89727
5.14454
5.37514
5.58962
5.78873
5.97331
6.14424
6.30233
6.44842
6.58329
6.70771
6.82241
6.92807
7.02534
7.11462
7.19603
7.26946
7.3345
7.39083
0.00890543
0.0656312
0.0850729
0.119203
0.153063
0.191328
0.232914
0.278823
0.32941
0.385333
0.44726
0.516
0.592483
0.677807
0.77321
0.88013
1.00002
1.13434
1.28515
1.45489
1.64651
1.86336
2.10931
2.38888
2.70748
3.05553
3.40445
3.73752
4.05382
4.35274
4.63414
4.89813
5.14496
5.37517
5.58932
5.78815
5.97249
6.14322
6.30116
6.44713
6.58191
6.70628
6.82095
6.92661
7.02392
7.11333
7.19498
7.26878
7.33432
7.39096
0.00780088
0.0659245
0.0851244
0.11964
0.153534
0.191956
0.233671
0.279723
0.330449
0.386508
0.448566
0.517431
0.594037
0.67949
0.775039
0.882145
1.00224
1.13672
1.28766
1.45753
1.64926
1.86623
2.11229
2.39192
2.71053
3.05851
3.40724
3.74004
4.05596
4.35447
4.63543
4.89897
5.14538
5.37521
5.58902
5.78758
5.97168
6.14222
6.3
6.44584
6.58054
6.70484
6.81948
6.92514
7.02247
7.11199
7.19386
7.268
7.33405
7.39106
0.00696022
0.0661211
0.0851844
0.120039
0.153975
0.192537
0.234383
0.280573
0.331436
0.387633
0.449822
0.518814
0.595541
0.681122
0.776815
0.88411
1.00441
1.13906
1.29013
1.4601
1.65196
1.86905
2.1152
2.3949
2.71353
3.06143
3.40998
3.74251
4.05806
4.35617
4.6367
4.8998
5.1458
5.37524
5.58874
5.78701
5.97089
6.14123
6.29885
6.44457
6.57917
6.70341
6.81801
6.92366
7.021
7.1106
7.19267
7.26712
7.33369
7.39112
0.00664418
0.066254
0.0852463
0.120397
0.154392
0.193074
0.23505
0.281369
0.332367
0.3887
0.451024
0.520144
0.596994
0.6827
0.778537
0.886023
1.00653
1.14134
1.29253
1.46263
1.6546
1.8718
2.11806
2.39783
2.71647
3.0643
3.41267
3.74494
4.06012
4.35784
4.63794
4.90062
5.14621
5.37528
5.58846
5.78646
5.97011
6.14026
6.29772
6.44331
6.57781
6.70198
6.81654
6.92216
7.0195
7.10915
7.19141
7.26615
7.33322
7.39114
0.00672364
0.0663566
0.0853159
0.120715
0.154779
0.19357
0.235666
0.282103
0.333234
0.389706
0.452168
0.521418
0.598393
0.684223
0.780202
0.887882
1.00861
1.14358
1.29488
1.46509
1.65718
1.8745
2.12085
2.4007
2.71935
3.06712
3.41531
3.74731
4.06214
4.35946
4.63915
4.90141
5.14661
5.37532
5.58818
5.78593
5.96935
6.13931
6.29661
6.44206
6.57646
6.70055
6.81505
6.92065
7.01798
7.10766
7.19006
7.26507
7.3326
7.3911
0.0070301
0.0664373
0.0853972
0.121005
0.155136
0.194027
0.236227
0.282773
0.334031
0.390642
0.453245
0.522632
0.599735
0.685689
0.781809
0.889686
1.01063
1.14576
1.29717
1.46749
1.65969
1.87713
2.12359
2.4035
2.72218
3.06987
3.4179
3.74964
4.06415
4.36104
4.64034
4.9022
5.147
5.37535
5.58791
5.78541
5.96861
6.13837
6.29551
6.44083
6.57512
6.69912
6.81356
6.91912
7.01644
7.10613
7.18865
7.26392
7.33184
7.39094
0.00752856
0.0665055
0.0854941
0.121275
0.155469
0.194443
0.236729
0.283373
0.334751
0.391499
0.454248
0.523779
0.601015
0.687096
0.783355
0.891433
1.0126
1.14788
1.2994
1.46982
1.66215
1.8797
2.12625
2.40624
2.72494
3.07257
3.42044
3.75192
4.06612
4.3626
4.64149
4.90296
5.14739
5.37539
5.58766
5.78491
5.96789
6.13746
6.29443
6.43961
6.57379
6.6977
6.81207
6.91758
7.01488
7.10458
7.18717
7.26269
7.33094
7.39068
0.0081976
0.0665643
0.0856116
0.121523
0.155783
0.194816
0.237173
0.2839
0.335387
0.392268
0.455169
0.524853
0.602231
0.688442
0.784839
0.893119
1.01452
1.14994
1.30156
1.47209
1.66454
1.8822
2.12886
2.40892
2.72764
3.07521
3.42292
3.75415
4.06804
4.36416
4.64263
4.9037
5.14777
5.37544
5.58744
5.78443
5.96719
6.13656
6.29337
6.43841
6.57247
6.69629
6.81059
6.91604
7.0133
7.10299
7.18563
7.26135
7.32991
7.39026
0.00900173
0.0665987
0.0857629
0.121748
0.156083
0.195147
0.237559
0.284352
0.335935
0.392944
0.456
0.525846
0.603377
0.689722
0.786261
0.894742
1.01638
1.15194
1.30366
1.4743
1.66686
1.88464
2.1314
2.41153
2.73027
3.07779
3.42535
3.75634
4.06993
4.36571
4.64378
4.90446
5.14816
5.37553
5.58725
5.78398
5.96651
6.13569
6.29232
6.43722
6.57116
6.69488
6.8091
6.91449
7.0117
7.10137
7.18405
7.25992
7.32876
7.38965
0.00988156
0.0665829
0.0859684
0.121951
0.15637
0.195438
0.237887
0.284728
0.336395
0.393523
0.456734
0.526754
0.604452
0.690944
0.787625
0.896302
1.01817
1.15387
1.30568
1.47643
1.66911
1.88701
2.13387
2.41407
2.73284
3.08031
3.42772
3.75847
4.07177
4.36724
4.64495
4.90525
5.14862
5.37566
5.58708
5.78355
5.96585
6.13483
6.2913
6.43606
6.56987
6.69349
6.80762
6.91294
7.0101
7.09973
7.18243
7.25844
7.32756
7.38882
0.0107945
0.0665033
0.0862388
0.122136
0.156645
0.195691
0.238159
0.285032
0.336769
0.394008
0.45737
0.527575
0.605456
0.692106
0.788927
0.897801
1.01989
1.15572
1.30763
1.4785
1.6713
1.88931
2.13626
2.41655
2.73535
3.08277
3.43003
3.76056
4.07358
4.36872
4.64611
4.90607
5.1491
5.37582
5.58694
5.78314
5.96521
6.134
6.2903
6.43491
6.5686
6.69211
6.80615
6.91139
7.00849
7.09807
7.18077
7.25693
7.32636
7.38794
0.0117576
0.0663461
0.0865778
0.122313
0.156906
0.195912
0.238379
0.285269
0.337061
0.394402
0.457913
0.528308
0.606391
0.693218
0.790182
0.899255
1.02155
1.1575
1.30949
1.48048
1.67341
1.89154
2.13859
2.41897
2.73779
3.08517
3.43229
3.7626
4.07534
4.37018
4.64724
4.90687
5.14958
5.37599
5.58681
5.78275
5.96459
6.13318
6.28932
6.43378
6.56735
6.69075
6.80469
6.90985
7.00687
7.09639
7.17906
7.25537
7.32513
7.38697
0.0128356
0.0660852
0.0870055
0.122483
0.157153
0.196103
0.238551
0.285444
0.337278
0.394712
0.458367
0.528957
0.607264
0.694282
0.791378
0.90064
1.02316
1.15919
1.31127
1.48239
1.67544
1.89369
2.14084
2.42131
2.74016
3.0875
3.43449
3.76459
4.07706
4.3716
4.64835
4.90767
5.15006
5.37616
5.58669
5.78237
5.964
6.13239
6.28835
6.43268
6.56612
6.68941
6.80325
6.90832
7.00525
7.09469
7.17729
7.2537
7.32377
7.3857
0.0140632
0.0657238
0.0875264
0.122655
0.15739
0.196265
0.238679
0.285565
0.337427
0.394944
0.45874
0.529531
0.608084
0.695314
0.792509
0.901897
1.02467
1.16078
1.31296
1.48421
1.6774
1.89577
2.14302
2.42357
2.74245
3.08976
3.43662
3.76652
4.07873
4.37299
4.64943
4.90844
5.15053
5.37634
5.5866
5.78202
5.96341
6.13161
6.28741
6.43159
6.5649
6.68808
6.80183
6.90679
7.00364
7.09297
7.17547
7.2519
7.32226
7.38416
0.0153919
0.0653039
0.088097
0.122866
0.157612
0.196402
0.238767
0.285639
0.337514
0.3951
0.459036
0.530034
0.608861
0.696358
0.793608
0.902905
1.02596
1.16227
1.31455
1.48595
1.67926
1.89775
2.14511
2.42574
2.74467
3.09194