/*--------------------------------*- C++ -*----------------------------------*\
  =========                 |
  \\      /  F ield         | OpenFOAM: The Open Source CFD Toolbox
   \\    /   O peration     | Website:  https://openfoam.org
    \\  /    A nd           | Version:  10
     \\/     M anipulation  |
\*---------------------------------------------------------------------------*/
FoamFile
{
    format      ascii;
    class       surfaceScalarField;
    location    "40000";
    object      phi;
}
// * * * * * * * * * * * * * * * * * * * * * * * * * * * * * * * * * * * * * //

dimensions      [0 3 -1 0 0 0 0];

internalField   nonuniform List<scalar> 
40900
(
-4.22788e-08
-5.48269e-06
-8.18944e-08
-2.7368e-06
-1.08521e-07
-2.01322e-06
-1.3037e-07
-1.39777e-06
-1.16334e-07
-9.75794e-07
-4.68195e-08
-6.7033e-07
9.36281e-08
-3.76629e-07
3.25064e-07
-2.70853e-08
6.69575e-07
4.23112e-07
1.14885e-06
1.02038e-06
1.76092e-06
1.80986e-06
2.45202e-06
2.79333e-06
3.14626e-06
3.89344e-06
3.78889e-06
4.99744e-06
4.33961e-06
6.01868e-06
4.78483e-06
6.89582e-06
5.14302e-06
7.60614e-06
5.42454e-06
8.15548e-06
5.6383e-06
8.52809e-06
5.79299e-06
8.70559e-06
5.89543e-06
8.66431e-06
5.94753e-06
8.3698e-06
5.94619e-06
7.77219e-06
5.88454e-06
6.80523e-06
5.75282e-06
5.38807e-06
5.55849e-06
3.24207e-06
5.3255e-06
1.06328e-06
5.06613e-06
-6.57237e-07
4.78855e-06
-1.99303e-06
4.49945e-06
-3.00595e-06
4.21107e-06
-3.74397e-06
3.93586e-06
-4.23051e-06
3.66925e-06
-4.49976e-06
3.40352e-06
-4.62552e-06
3.1414e-06
-4.66751e-06
2.88718e-06
-4.65821e-06
2.64485e-06
-4.61892e-06
2.4177e-06
-4.56213e-06
2.20812e-06
-4.49345e-06
2.01752e-06
-4.41404e-06
1.84631e-06
-4.32303e-06
1.69415e-06
-4.21923e-06
1.56011e-06
-4.10212e-06
1.44288e-06
-3.9721e-06
1.34098e-06
-3.83037e-06
1.25284e-06
-3.67877e-06
1.1769e-06
-3.51943e-06
1.11169e-06
-3.35462e-06
1.05584e-06
-3.18653e-06
-3.01723e-06
1.00808e-06
-4.30612e-08
-5.43963e-06
-9.09757e-08
-2.68889e-06
-1.24089e-07
-1.98011e-06
-1.54479e-07
-1.36738e-06
-1.52998e-07
-9.77274e-07
-1.05356e-07
-7.17972e-07
-6.48601e-10
-4.81337e-07
1.79748e-07
-2.07482e-07
4.57249e-07
1.45611e-07
8.57347e-07
6.2028e-07
1.4016e-06
1.2656e-06
2.07874e-06
2.11619e-06
2.81907e-06
3.15311e-06
3.54393e-06
4.27258e-06
4.20382e-06
5.35879e-06
4.76317e-06
6.33647e-06
5.2169e-06
7.15241e-06
5.58066e-06
7.79172e-06
5.86116e-06
8.24759e-06
6.0656e-06
8.50114e-06
6.20227e-06
8.52765e-06
6.2764e-06
8.29567e-06
6.28768e-06
7.76092e-06
6.23037e-06
6.86254e-06
6.09499e-06
5.52344e-06
5.89014e-06
3.44693e-06
5.64046e-06
1.31295e-06
5.35966e-06
-3.7644e-07
5.05792e-06
-1.69128e-06
4.74173e-06
-2.68977e-06
4.42012e-06
-3.42236e-06
4.10807e-06
-3.91846e-06
3.80962e-06
-4.20131e-06
3.51574e-06
-4.33163e-06
3.22824e-06
-4.38002e-06
2.95184e-06
-4.38181e-06
2.6905e-06
-4.35757e-06
2.4473e-06
-4.31893e-06
2.22441e-06
-4.27055e-06
2.02292e-06
-4.21255e-06
1.84296e-06
-4.14307e-06
1.68391e-06
-4.06017e-06
1.54455e-06
-3.96276e-06
1.42335e-06
-3.8509e-06
1.3186e-06
-3.72562e-06
1.22852e-06
-3.5887e-06
1.1514e-06
-3.44231e-06
1.08559e-06
-3.28881e-06
1.0296e-06
-3.13054e-06
-2.96969e-06
9.82061e-07
-4.44045e-08
-5.39523e-06
-9.84802e-08
-2.63481e-06
-1.35779e-07
-1.94281e-06
-1.68963e-07
-1.33419e-06
-1.74716e-07
-9.71521e-07
-1.42892e-07
-7.49796e-07
-6.40193e-08
-5.6021e-07
7.56722e-08
-3.47173e-07
2.94905e-07
-7.36223e-08
6.1699e-07
2.98195e-07
1.07042e-06
8.12172e-07
1.67554e-06
1.51107e-06
2.4086e-06
2.42005e-06
3.18512e-06
3.49606e-06
3.93035e-06
4.61356e-06
4.60065e-06
5.66617e-06
5.16496e-06
6.5881e-06
5.62334e-06
7.33334e-06
5.98519e-06
7.88574e-06
6.25581e-06
8.23052e-06
6.4412e-06
8.34226e-06
6.54804e-06
8.18882e-06
6.57955e-06
7.7294e-06
6.5321e-06
6.91e-06
6.39715e-06
5.65839e-06
6.1849e-06
3.65918e-06
5.92105e-06
1.5768e-06
5.62026e-06
-7.56493e-08
5.29462e-06
-1.36564e-06
4.95207e-06
-2.34722e-06
4.60015e-06
-3.07043e-06
4.25207e-06
-3.57038e-06
3.91789e-06
-3.86713e-06
3.59429e-06
-4.00803e-06
3.28178e-06
-4.06751e-06
2.98406e-06
-4.08409e-06
2.70466e-06
-4.07817e-06
2.4464e-06
-4.06067e-06
2.21116e-06
-4.03531e-06
1.99975e-06
-4.00115e-06
1.81203e-06
-3.95535e-06
1.64704e-06
-3.89519e-06
1.50332e-06
-3.81904e-06
1.37906e-06
-3.72663e-06
1.2723e-06
-3.61887e-06
1.18111e-06
-3.4975e-06
1.10356e-06
-3.36476e-06
1.03789e-06
-3.22314e-06
9.82471e-07
-3.07511e-06
-2.92305e-06
9.35832e-07
-4.42122e-08
-5.35102e-06
-1.02978e-07
-2.57605e-06
-1.43538e-07
-1.90225e-06
-1.77802e-07
-1.29993e-06
-1.87802e-07
-9.61521e-07
-1.65879e-07
-7.71719e-07
-1.04762e-07
-6.21327e-07
4.59426e-09
-4.56529e-07
1.76864e-07
-2.45892e-07
4.3194e-07
4.31195e-08
7.971e-07
4.47012e-07
1.3018e-06
1.00637e-06
1.96311e-06
1.75874e-06
2.74065e-06
2.71852e-06
3.54058e-06
3.81364e-06
4.29925e-06
4.9075e-06
4.97497e-06
5.91238e-06
5.54036e-06
6.76795e-06
5.99636e-06
7.42974e-06
6.34801e-06
7.87887e-06
6.59887e-06
8.0914e-06
6.75287e-06
8.03483e-06
6.81518e-06
7.66709e-06
6.7849e-06
6.94028e-06
6.65522e-06
5.78807e-06
6.43886e-06
3.87553e-06
6.1634e-06
1.85226e-06
5.84413e-06
2.43622e-07
5.49475e-06
-1.01626e-06
5.12528e-06
-1.97774e-06
4.74376e-06
-2.68891e-06
4.36221e-06
-3.18883e-06
3.99373e-06
-3.49866e-06
3.64132e-06
-3.65562e-06
3.30498e-06
-3.73117e-06
2.98724e-06
-3.76635e-06
2.69104e-06
-3.78196e-06
2.41887e-06
-3.78851e-06
2.17237e-06
-3.78881e-06
1.95208e-06
-3.78085e-06
1.75755e-06
-3.76082e-06
1.58755e-06
-3.72519e-06
1.44033e-06
-3.67182e-06
1.31382e-06
-3.60013e-06
1.20587e-06
-3.51092e-06
1.1143e-06
-3.40593e-06
1.03704e-06
-3.28751e-06
9.72169e-07
-3.15826e-06
9.17921e-07
-3.02087e-06
-2.87786e-06
8.72733e-07
-4.73641e-08
-5.30365e-06
-1.07923e-07
-2.51549e-06
-1.50282e-07
-1.85989e-06
-1.82714e-07
-1.2675e-06
-1.93022e-07
-9.51213e-07
-1.76477e-07
-7.88263e-07
-1.28704e-07
-6.691e-07
-4.20038e-08
-5.4323e-07
9.43031e-08
-3.82199e-07
2.95903e-07
-1.5848e-07
5.85853e-07
1.57062e-07
9.93558e-07
5.9867e-07
1.54771e-06
1.20459e-06
2.25837e-06
2.00786e-06
3.06697e-06
3.00504e-06
3.87995e-06
4.09452e-06
4.64539e-06
5.14693e-06
5.32081e-06
6.09253e-06
5.88135e-06
6.86921e-06
6.32666e-06
7.43357e-06
6.65713e-06
7.76093e-06
6.87686e-06
7.81509e-06
6.98425e-06
7.5597e-06
6.98102e-06
6.94351e-06
6.86303e-06
5.90606e-06
6.64643e-06
4.09214e-06
6.36205e-06
2.13664e-06
6.02652e-06
5.7916e-07
5.65462e-06
-6.4437e-07
5.25845e-06
-1.58157e-06
4.84783e-06
-2.27829e-06
4.43509e-06
-2.77609e-06
4.03592e-06
-3.09949e-06
3.65746e-06
-3.27715e-06
3.29932e-06
-3.37303e-06
2.9631e-06
-3.43013e-06
2.65137e-06
-3.47022e-06
2.36646e-06
-3.5036e-06
2.1098e-06
-3.53215e-06
1.88171e-06
-3.55276e-06
1.68143e-06
-3.56054e-06
1.50745e-06
-3.55121e-06
1.35771e-06
-3.52208e-06
1.2299e-06
-3.47232e-06
1.12161e-06
-3.40263e-06
1.03048e-06
-3.3148e-06
9.54266e-07
-3.21129e-06
8.90887e-07
-3.09488e-06
8.38466e-07
-2.96844e-06
-2.83472e-06
7.95326e-07
-4.94402e-08
-5.25421e-06
-1.10238e-07
-2.45469e-06
-1.53797e-07
-1.81633e-06
-1.84058e-07
-1.23724e-06
-1.92804e-07
-9.42467e-07
-1.78828e-07
-8.0224e-07
-1.39631e-07
-7.08296e-07
-6.9245e-08
-6.13616e-07
4.00573e-08
-4.91502e-07
2.00463e-07
-3.18886e-07
4.30285e-07
-7.276e-08
7.55129e-07
2.73826e-07
1.20481e-06
7.54906e-07
1.80582e-06
1.40685e-06
2.55575e-06
2.25511e-06
3.38072e-06
3.26956e-06
4.19825e-06
4.32939e-06
4.96343e-06
5.32735e-06
5.631e-06
6.20164e-06
6.17892e-06
6.88565e-06
6.60436e-06
7.33549e-06
6.90141e-06
7.51804e-06
7.07038e-06
7.39073e-06
7.10813e-06
6.90576e-06
7.01105e-06
6.00314e-06
6.79911e-06
4.30408e-06
6.50968e-06
2.42606e-06
6.16136e-06
9.27482e-07
5.7696e-06
-2.52612e-07
5.34824e-06
-1.16021e-06
4.90994e-06
-1.84e-06
4.46917e-06
-2.33532e-06
4.04382e-06
-2.67414e-06
3.64324e-06
-2.87658e-06
3.26596e-06
-2.99575e-06
2.91305e-06
-3.07723e-06
2.58721e-06
-3.14438e-06
2.29088e-06
-3.20727e-06
2.02539e-06
-3.26667e-06
1.7908e-06
-3.31816e-06
1.58603e-06
-3.35578e-06
1.40924e-06
-3.37442e-06
1.25807e-06
-3.37091e-06
1.12996e-06
-3.34421e-06
1.02227e-06
-3.29494e-06
9.32435e-07
-3.22496e-06
8.58036e-07
-3.13689e-06
7.96858e-07
-3.0337e-06
7.46896e-07
-2.91848e-06
-2.7942e-06
7.06375e-07
-5.05384e-08
-5.20367e-06
-1.10871e-07
-2.39436e-06
-1.54303e-07
-1.7729e-06
-1.82371e-07
-1.20917e-06
-1.88628e-07
-9.3621e-07
-1.75449e-07
-8.15418e-07
-1.41595e-07
-7.4215e-07
-8.26402e-08
-6.72571e-07
7.1233e-09
-5.81265e-07
1.36913e-07
-4.48676e-07
3.20849e-07
-2.56696e-07
5.79267e-07
1.54086e-08
9.39035e-07
3.95138e-07
1.42946e-06
9.16423e-07
2.0724e-06
1.61217e-06
2.84756e-06
2.4944e-06
3.6751e-06
3.50186e-06
4.49091e-06
4.51154e-06
5.24652e-06
5.44603e-06
5.89617e-06
6.23599e-06
6.42112e-06
6.81055e-06
6.80993e-06
7.12923e-06
7.05702e-06
7.14363e-06
7.14839e-06
6.81439e-06
7.0864e-06
6.06513e-06
6.88602e-06
4.50447e-06
6.59798e-06
2.71409e-06
6.24198e-06
1.28348e-06
5.83416e-06
1.55215e-07
5.39053e-06
-7.16579e-07
4.92766e-06
-1.37713e-06
4.46378e-06
-1.87144e-06
4.01818e-06
-2.22854e-06
3.60004e-06
-2.45843e-06
3.20592e-06
-2.60164e-06
2.83782e-06
-2.70913e-06
2.49935e-06
-2.80591e-06
2.1932e-06
-2.90112e-06
1.92055e-06
-2.99401e-06
1.68109e-06
-3.0787e-06
1.47338e-06
-3.14807e-06
1.29521e-06
-3.19624e-06
1.14391e-06
-3.21962e-06
1.01666e-06
-3.21695e-06
9.10586e-07
-3.18887e-06
8.22947e-07
-3.13732e-06
7.51172e-07
-3.06511e-06
6.92904e-07
-2.97544e-06
6.46031e-07
-2.87161e-06
-2.75686e-06
6.08687e-07
-5.03395e-08
-5.15333e-06
-1.10587e-07
-2.33411e-06
-1.53615e-07
-1.72987e-06
-1.78515e-07
-1.18427e-06
-1.81844e-07
-9.32881e-07
-1.6815e-07
-8.29112e-07
-1.37352e-07
-7.72948e-07
-8.60599e-08
-7.23863e-07
-9.98848e-09
-6.57336e-07
9.74835e-08
-5.56148e-07
2.47169e-07
-4.06382e-07
4.54698e-07
-1.9212e-07
7.41906e-07
1.0793e-07
1.1361e-06
5.22227e-07
1.6647e-06
1.08357e-06
2.34089e-06
1.81822e-06
3.12627e-06
2.71647e-06
3.9464e-06
3.69141e-06
4.75058e-06
4.64184e-06
5.4844e-06
5.50217e-06
6.1045e-06
6.19045e-06
6.58922e-06
6.64451e-06
6.92078e-06
6.81207e-06
7.08621e-06
6.64897e-06
7.07523e-06
6.0761e-06
6.89733e-06
4.68237e-06
6.61704e-06
2.99439e-06
6.25933e-06
1.64119e-06
5.8411e-06
5.73452e-07
5.3813e-06
-2.56784e-07
4.90105e-06
-8.96883e-07
4.42185e-06
-1.39224e-06
3.96112e-06
-1.76781e-06
3.52744e-06
-2.02475e-06
3.11796e-06
-2.19216e-06
2.73644e-06
-2.32761e-06
2.38764e-06
-2.45711e-06
2.07417e-06
-2.58766e-06
1.79678e-06
-2.71661e-06
1.55468e-06
-2.8366e-06
1.346e-06
-2.93939e-06
1.16814e-06
-3.01839e-06
1.01818e-06
-3.06966e-06
8.93032e-07
-3.0918e-06
7.89644e-07
-3.08548e-06
7.05112e-07
-3.05279e-06
6.36734e-07
-2.99674e-06
5.82048e-07
-2.92075e-06
5.38849e-07
-2.82841e-06
-2.7232e-06
5.05192e-07
-5.12943e-08
-5.10204e-06
-1.1106e-07
-2.27435e-06
-1.52946e-07
-1.68799e-06
-1.73963e-07
-1.16325e-06
-1.73767e-07
-9.33076e-07
-1.58186e-07
-8.44693e-07
-1.28289e-07
-8.02845e-07
-8.20161e-08
-7.70136e-07
-1.58954e-08
-7.23457e-07
7.50757e-08
-6.47119e-07
1.99232e-07
-5.30538e-07
3.68596e-07
-3.61484e-07
5.9978e-07
-1.23254e-07
9.1582e-07
2.06187e-07
1.34356e-06
6.55823e-07
1.90606e-06
1.25572e-06
2.6024e-06
2.02013e-06
3.38241e-06
2.9114e-06
4.18878e-06
3.83548e-06
4.96851e-06
4.72244e-06
5.66578e-06
5.49319e-06
6.24218e-06
6.06811e-06
6.66992e-06
6.38432e-06
6.91891e-06
6.39998e-06
6.96883e-06
6.02618e-06
6.82824e-06
4.82296e-06
6.55708e-06
3.26554e-06
6.20248e-06
1.99579e-06
5.7835e-06
9.92433e-07
5.3192e-06
2.07514e-07
4.83349e-06
-4.11167e-07
4.34654e-06
-9.05285e-07
3.87162e-06
-1.29289e-06
3.42064e-06
-1.57377e-06
2.99793e-06
-1.76945e-06
2.60715e-06
-1.93683e-06
2.25228e-06
-2.10223e-06
1.93533e-06
-2.27071e-06
1.6565e-06
-2.43779e-06
1.41453e-06
-2.59463e-06
1.20714e-06
-2.732e-06
1.03147e-06
-2.84272e-06
8.84359e-07
-2.92254e-06
7.6254e-07
-2.96998e-06
6.62837e-07
-2.98578e-06
5.82239e-07
-2.97219e-06
5.17949e-07
-2.93245e-06
4.67424e-07
-2.87023e-06
4.28391e-07
-2.78938e-06
-2.69365e-06
3.98841e-07
-5.31137e-08
-5.04893e-06
-1.11443e-07
-2.21602e-06
-1.51292e-07
-1.64814e-06
-1.68711e-07
-1.14583e-06
-1.64654e-07
-9.37134e-07
-1.46553e-07
-8.62794e-07
-1.16541e-07
-8.32857e-07
-7.37726e-08
-8.12904e-07
-1.52137e-08
-7.82016e-07
6.33382e-08
-7.2567e-07
1.68274e-07
-6.35473e-07
3.08881e-07
-5.02091e-07
4.97988e-07
-3.12361e-07
7.53118e-07
-4.89429e-08
1.09792e-06
3.1102e-07
1.55708e-06
7.96564e-07
2.14577e-06
1.43143e-06
2.84703e-06
2.21015e-06
3.61187e-06
3.07063e-06
4.39249e-06
3.94182e-06
5.13277e-06
4.75291e-06
5.77884e-06
5.42204e-06
6.29109e-06
5.87208e-06
6.63436e-06
6.05671e-06
6.76454e-06
5.896e-06
6.66914e-06
4.91836e-06
6.41615e-06
3.51852e-06
6.06972e-06
2.34222e-06
5.6601e-06
1.40205e-06
5.20471e-06
6.62907e-07
4.72259e-06
7.09533e-08
4.22932e-06
-4.12021e-07
3.74186e-06
-8.05424e-07
3.27831e-06
-1.11022e-06
2.84799e-06
-1.33914e-06
2.4534e-06
-1.54224e-06
2.09736e-06
-1.74619e-06
1.78109e-06
-1.95444e-06
1.50424e-06
-2.16093e-06
1.26513e-06
-2.35552e-06
1.06122e-06
-2.52809e-06
8.89454e-07
-2.67095e-06
7.46514e-07
-2.7796e-06
6.29069e-07
-2.85254e-06
5.33881e-07
-2.89059e-06
4.57878e-07
-2.89619e-06
3.98211e-07
-2.87278e-06
3.52284e-07
-2.8243e-06
3.17771e-07
-2.75486e-06
-2.66849e-06
2.92612e-07
-5.54171e-08
-4.99351e-06
-1.11247e-07
-2.16019e-06
-1.49063e-07
-1.61032e-06
-1.63654e-07
-1.13124e-06
-1.56333e-07
-9.44455e-07
-1.35911e-07
-8.83217e-07
-1.05492e-07
-8.63276e-07
-6.50912e-08
-8.53304e-07
-1.22218e-08
-8.34885e-07
5.68991e-08
-7.94791e-07
1.47276e-07
-7.2585e-07
2.66034e-07
-6.20849e-07
4.2324e-07
-4.69568e-07
6.32223e-07
-2.57925e-07
9.1131e-07
3.19334e-08
1.28369e-06
4.24183e-07
1.77006e-06
9.45062e-07
2.37448e-06
1.60573e-06
3.06609e-06
2.37903e-06
3.80645e-06
3.20146e-06
4.54841e-06
4.01095e-06
5.2334e-06
4.73704e-06
5.80588e-06
5.2996e-06
6.22723e-06
5.63536e-06
6.44413e-06
5.67909e-06
6.41544e-06
4.94705e-06
6.19821e-06
3.73576e-06
5.86673e-06
2.6737e-06
5.47103e-06
1.79775e-06
5.03048e-06
1.10346e-06
4.55641e-06
5.45024e-07
4.06416e-06
8.02249e-08
3.57349e-06
-3.1475e-07
3.10577e-06
-6.42502e-07
2.67443e-06
-9.078e-07
2.28164e-06
-1.14945e-06
1.92911e-06
-1.39365e-06
1.61734e-06
-1.64268e-06
1.34552e-06
-1.88911e-06
1.11168e-06
-2.12168e-06
9.1309e-07
-2.3295e-06
7.46591e-07
-2.50445e-06
6.0886e-07
-2.64187e-06
4.9657e-07
-2.74025e-06
4.06485e-07
-2.8005e-06
3.35528e-07
-2.82523e-06
2.80827e-07
-2.81808e-06
2.39756e-07
-2.78323e-06
2.09952e-07
-2.72506e-06
-2.64787e-06
1.89323e-07
-5.70711e-08
-4.93644e-06
-1.11044e-07
-2.10621e-06
-1.47389e-07
-1.57398e-06
-1.59727e-07
-1.1189e-06
-1.50011e-07
-9.54171e-07
-1.2793e-07
-9.05299e-07
-9.733e-08
-8.93876e-07
-5.87175e-08
-8.91917e-07
-1.0226e-08
-8.83377e-07
5.15466e-08
-8.56564e-07
1.30701e-07
-8.05004e-07
2.32637e-07
-7.22785e-07
3.6516e-07
-6.0209e-07
5.38805e-07
-4.3157e-07
7.67211e-07
-1.96473e-07
1.06961e-06
1.21784e-07
1.46737e-06
5.47302e-07
1.97404e-06
1.09906e-06
2.57854e-06
1.77453e-06
3.2523e-06
2.5277e-06
3.95892e-06
3.30432e-06
4.64683e-06
4.04913e-06
5.25445e-06
4.69199e-06
5.72847e-06
5.16134e-06
6.01879e-06
5.38877e-06
6.06432e-06
4.90152e-06
5.90024e-06
3.89984e-06
5.59825e-06
2.97568e-06
5.21902e-06
2.17698e-06
4.79541e-06
1.52708e-06
4.33549e-06
1.00494e-06
3.85431e-06
5.61408e-07
3.37199e-06
1.67564e-07
2.90993e-06
-1.80435e-07
2.48437e-06
-4.8224e-07
2.09863e-06
-7.63711e-07
1.7538e-06
-1.04883e-06
1.4499e-06
-1.33877e-06
1.18573e-06
-1.62494e-06
9.59125e-07
-1.89508e-06
7.67294e-07
-2.13767e-06
6.07115e-07
-2.34427e-06
4.75339e-07
-2.5101e-06
3.68716e-07
-2.63362e-06
2.84072e-07
-2.71586e-06
2.18373e-07
-2.75954e-06
1.68766e-07
-2.76847e-06
1.32621e-07
-2.74708e-06
1.07556e-07
-2.69999e-06
-2.63177e-06
9.14564e-08
-5.72473e-08
-4.87919e-06
-1.11517e-07
-2.05194e-06
-1.46892e-07
-1.5386e-06
-1.57328e-07
-1.10847e-06
-1.45968e-07
-9.6553e-07
-1.23124e-07
-9.28142e-07
-9.29606e-08
-9.24039e-07
-5.61798e-08
-9.28698e-07
-1.13937e-08
-9.28163e-07
4.43125e-08
-9.1227e-07
1.14381e-07
-8.75073e-07
2.02995e-07
-8.11399e-07
3.16018e-07
-7.15112e-07
4.61706e-07
-5.77258e-07
6.51009e-07
-3.85776e-07
8.98354e-07
-1.25561e-07
1.22292e-06
2.22734e-07
1.64144e-06
6.80541e-07
2.15731e-06
1.25865e-06
2.7533e-06
1.93171e-06
3.40078e-06
2.65684e-06
4.05966e-06
3.39026e-06
4.67358e-06
4.07806e-06
5.17744e-06
4.65749e-06
5.51882e-06
5.04739e-06
5.62974e-06
4.7906e-06
5.52573e-06
4.00386e-06
5.26681e-06
3.2346e-06
4.91337e-06
2.53042e-06
4.5099e-06
1.93055e-06
4.0708e-06
1.44405e-06
3.60906e-06
1.02314e-06
3.14371e-06
6.32918e-07
2.69632e-06
2.66953e-07
2.28365e-06
-6.95678e-08
1.91008e-06
-3.90138e-07
1.57691e-06
-7.15657e-07
1.28385e-06
-1.04572e-06
1.02953e-06
-1.37063e-06
8.11747e-07
-1.6773e-06
6.27784e-07
-1.95371e-06
4.7467e-07
-2.19116e-06
3.49316e-07
-2.38474e-06
2.48621e-07
-2.53293e-06
1.69535e-07
-2.63677e-06
1.09102e-07
-2.6991e-06
6.45283e-08
-2.7239e-06
3.32044e-08
-2.71576e-06
1.27473e-08
-2.67954e-06
-2.62004e-06
1.02478e-09
-5.8177e-08
-4.82101e-06
-1.13137e-07
-1.99698e-06
-1.47264e-07
-1.50447e-06
-1.5623e-07
-1.0995e-06
-1.44163e-07
-9.77598e-07
-1.21565e-07
-9.5074e-07
-9.2592e-08
-9.53012e-07
-5.80331e-08
-9.63256e-07
-1.6817e-08
-9.69379e-07
3.34417e-08
-9.62529e-07
9.56244e-08
-9.37256e-07
1.73101e-07
-8.88876e-07
2.70298e-07
-8.12309e-07
3.93615e-07
-7.00576e-07
5.51745e-07
-5.43906e-07
7.56056e-07
-3.29872e-07
1.02182e-06
-4.30332e-08
1.36634e-06
3.36027e-07
1.79987e-06
8.25126e-07
2.31625e-06
1.41533e-06
2.89424e-06
2.07885e-06
3.50272e-06
2.78178e-06
4.09597e-06
3.48481e-06
4.61102e-06
4.14244e-06
4.97962e-06
4.6788e-06
5.13757e-06
4.63264e-06
5.09127e-06
4.05016e-06
4.88231e-06
3.44356e-06
4.56455e-06
2.84817e-06
4.18628e-06
2.30883e-06
3.77455e-06
1.85577e-06
3.33964e-06
1.45805e-06
2.89831e-06
1.07425e-06
2.4718e-06
6.93465e-07
2.07774e-06
3.24497e-07
1.72126e-06
-3.36606e-08
1.4033e-06
-3.97691e-07
1.12366e-06
-7.66083e-07
8.81009e-07
-1.12797e-06
6.73274e-07
-1.46956e-06
4.97965e-07
-1.7784e-06
3.52362e-07
-2.04556e-06
2.33632e-07
-2.26601e-06
1.38892e-07
-2.43819e-06
6.52699e-08
-2.56315e-06
9.93768e-09
-2.64377e-06
-2.9831e-08
-2.68413e-06
-5.66016e-08
-2.68899e-06
-7.27363e-08
-2.6634e-06
-2.61241e-06
-8.03689e-08
-5.93381e-08
-4.76167e-06
-1.15311e-07
-1.94101e-06
-1.47988e-07
-1.4718e-06
-1.55995e-07
-1.0915e-06
-1.44367e-07
-9.89226e-07
-1.2306e-07
-9.72047e-07
-9.60096e-08
-9.80063e-07
-6.42197e-08
-9.95046e-07
-2.67825e-08
-1.00682e-06
1.82222e-08
-1.00753e-06
7.31294e-08
-9.92163e-07
1.4074e-07
-9.56487e-07
2.24586e-07
-8.96154e-07
3.29629e-07
-8.05619e-07
4.62803e-07
-6.77079e-07
6.33289e-07
-5.00358e-07
8.52944e-07
-2.62688e-07
1.13657e-06
5.23971e-08
1.49819e-06
4.63506e-07
1.93896e-06
9.74565e-07
2.44564e-06
1.57216e-06
2.99351e-06
2.23391e-06
3.54655e-06
2.93177e-06
4.0515e-06
3.63749e-06
4.43262e-06
4.29767e-06
4.62135e-06
4.44391e-06
4.62267e-06
4.04884e-06
4.46241e-06
3.60382e-06
4.18568e-06
3.1249e-06
3.83901e-06
2.6555e-06
3.45854e-06
2.23624e-06
3.05521e-06
1.86138e-06
2.64371e-06
1.48575e-06
2.24413e-06
1.09305e-06
1.87351e-06
6.95113e-07
1.53777e-06
3.02078e-07
1.23781e-06
-9.77344e-08
9.73483e-07
-5.01752e-07
7.43765e-07
-8.98254e-07
5.46872e-07
-1.27267e-06
3.80643e-07
-1.61217e-06
2.42705e-07
-1.90762e-06
1.30545e-07
-2.15385e-06
4.15696e-08
-2.34921e-06
-2.6887e-08
-2.49469e-06
-7.74984e-08
-2.59316e-06
-1.12869e-07
-2.64876e-06
-1.3549e-07
-2.66637e-06
-1.47696e-07
-2.6512e-06
-2.60849e-06
-1.51622e-07
-5.961e-08
-4.70206e-06
-1.17193e-07
-1.88343e-06
-1.48885e-07
-1.44011e-06
-1.56548e-07
-1.08383e-06
-1.46431e-07
-9.99342e-07
-1.27394e-07
-9.91084e-07
-1.02937e-07
-1.00452e-06
-7.43647e-08
-1.02362e-06
-4.10304e-08
-1.04015e-06
-1.30181e-09
-1.04726e-06
4.66926e-08
-1.04016e-06
1.0531e-07
-1.0151e-06
1.7755e-07
-9.68395e-07
2.67422e-07
-8.95491e-07
3.80466e-07
-7.90123e-07
5.24088e-07
-6.4398e-07
7.077e-07
-4.463e-07
9.42797e-07
-1.827e-07
1.2433e-06
1.63001e-07
1.61561e-06
6.02263e-07
2.05337e-06
1.13439e-06
2.53829e-06
1.749e-06
3.04078e-06
2.42927e-06
3.51767e-06
3.16061e-06
3.90065e-06
3.91469e-06
4.10832e-06
4.23624e-06
4.14242e-06
4.01474e-06
4.02649e-06
3.71975e-06
3.79258e-06
3.35881e-06
3.48167e-06
2.96641e-06
3.13242e-06
2.58549e-06
2.76379e-06
2.23002e-06
2.38759e-06
1.86195e-06
2.02124e-06
1.4594e-06
1.67797e-06
1.03838e-06
1.36506e-06
6.14988e-07
1.0846e-06
1.82723e-07
8.36642e-07
-2.53794e-07
6.20535e-07
-6.82146e-07
4.34842e-07
-1.08697e-06
2.77793e-07
-1.45512e-06
1.47411e-07
-1.77723e-06
4.15671e-08
-2.04801e-06
-4.20311e-08
-2.26562e-06
-1.058e-07
-2.43092e-06
-1.52193e-07
-2.54677e-06
-1.8367e-07
-2.61728e-06
-2.02643e-07
-2.6474e-06
-2.11407e-07
-2.64243e-06
-2.6078e-06
-2.12093e-07
-6.02408e-08
-4.64182e-06
-1.19253e-07
-1.82442e-06
-1.49906e-07
-1.40945e-06
-1.57853e-07
-1.07589e-06
-1.50062e-07
-1.00713e-06
-1.34157e-07
-1.00699e-06
-1.13022e-07
-1.02565e-06
-8.79859e-08
-1.04865e-06
-5.89452e-08
-1.06919e-06
-2.45579e-08
-1.08165e-06
1.68417e-08
-1.08156e-06
6.72956e-08
-1.06556e-06
1.29378e-07
-1.03048e-06
2.0641e-07
-9.72523e-07
3.0287e-07
-8.86582e-07
4.2475e-07
-7.6586e-07
5.79605e-07
-6.01155e-07
7.76745e-07
-3.7984e-07
1.02682e-06
-8.70785e-08
1.33925e-06
2.89838e-07
1.71321e-06
7.60434e-07
2.1365e-06
1.32571e-06
2.58526e-06
1.98051e-06
3.02368e-06
2.72219e-06
3.39444e-06
3.54392e-06
3.6149e-06
4.01578e-06
3.67169e-06
3.95796e-06
3.59198e-06
3.79945e-06
3.39929e-06
3.5515e-06
3.12515e-06
3.24055e-06
2.80871e-06
2.90193e-06
2.47622e-06
2.56251e-06
2.13951e-06
2.19866e-06
1.80992e-06
1.78899e-06
1.49574e-06
1.35256e-06
1.20654e-06
9.04195e-07
9.46043e-07
4.43216e-07
7.1506e-07
-2.28106e-08
5.12858e-07
-4.79944e-07
3.38461e-07
-9.12578e-07
1.90493e-07
-1.30716e-06
6.74018e-08
-1.65414e-06
-3.25349e-08
-1.94807e-06
-1.11279e-07
-2.18687e-06
-1.70922e-07
-2.37128e-06
-2.13678e-07
-2.50401e-06
-2.4185e-07
-2.58911e-06
-2.57748e-07
-2.6315e-06
-2.63621e-07
-2.63656e-06
-2.60984e-06
-2.61584e-07
-6.11002e-08
-4.58072e-06
-1.21118e-07
-1.7644e-06
-1.50604e-07
-1.37997e-06
-1.59654e-07
-1.06684e-06
-1.54703e-07
-1.01208e-06
-1.42514e-07
-1.01918e-06
-1.2546e-07
-1.04271e-06
-1.04545e-07
-1.06957e-06
-7.99754e-08
-1.09376e-06
-5.08521e-08
-1.11077e-06
-1.55635e-08
-1.11685e-06
2.76929e-08
-1.10881e-06
8.09977e-08
-1.08378e-06
1.47045e-07
-1.03857e-06
2.29531e-07
-9.69068e-07
3.33374e-07
-8.69703e-07
4.6474e-07
-7.32521e-07
6.31183e-07
-5.46283e-07
8.41174e-07
-2.97069e-07
1.10262e-06
2.8394e-08
1.41958e-06
4.43475e-07
1.7849e-06
9.60387e-07
2.1803e-06
1.58511e-06
2.5761e-06
2.32639e-06
2.92525e-06
3.19477e-06
3.14987e-06
3.79115e-06
3.22375e-06
3.88409e-06
3.17099e-06
3.85221e-06
3.01387e-06
3.70862e-06
2.77986e-06
3.47456e-06
2.49981e-06
3.18198e-06
2.20356e-06
2.85876e-06
1.90561e-06
2.4966e-06
1.61066e-06
2.08394e-06
1.32611e-06
1.63711e-06
1.06195e-06
1.16835e-06
8.22487e-07
6.82681e-07
6.09021e-07
1.90655e-07
4.21074e-07
-2.91997e-07
2.58044e-07
-7.49548e-07
1.19002e-07
-1.16811e-06
2.88458e-09
-1.53803e-06
-9.16365e-08
-1.85355e-06
-1.66098e-07
-2.11241e-06
-2.22229e-07
-2.31515e-06
-2.6199e-07
-2.46425e-06
-2.87494e-07
-2.56361e-06
-3.00934e-07
-2.61806e-06
-3.04504e-07
-2.63299e-06
-2.61405e-06
-3.00293e-07
-6.20397e-08
-4.51868e-06
-1.22071e-07
-1.70437e-06
-1.51078e-07
-1.35096e-06
-1.61623e-07
-1.05629e-06
-1.59766e-07
-1.01394e-06
-1.51557e-07
-1.02739e-06
-1.38988e-07
-1.05528e-06
-1.22765e-07
-1.08579e-06
-1.02943e-07
-1.11358e-06
-7.88285e-08
-1.13489e-06
-4.91373e-08
-1.14654e-06
-1.23529e-08
-1.1456e-06
3.32684e-08
-1.1294e-06
8.99036e-08
-1.09521e-06
1.60538e-07
-1.0397e-06
2.49159e-07
-9.58324e-07
3.60805e-07
-8.44167e-07
5.01759e-07
-6.87236e-07
6.79142e-07
-4.74453e-07
8.98913e-07
-1.91377e-07
1.16617e-06
1.7622e-07
1.47874e-06
6.47816e-07
1.8234e-06
1.24046e-06
2.17605e-06
1.97374e-06
2.49826e-06
2.87256e-06
2.71891e-06
3.57051e-06
2.80424e-06
3.79876e-06
2.774e-06
3.88244e-06
2.64831e-06
3.83431e-06
2.45215e-06
3.67073e-06
2.2105e-06
3.42362e-06
1.95027e-06
3.11899e-06
1.68665e-06
2.76022e-06
1.424e-06
2.34659e-06
1.16963e-06
1.89148e-06
9.31642e-07
1.40634e-06
7.14161e-07
9.00163e-07
5.18635e-07
3.86181e-07
3.45216e-07
-1.18578e-07
1.93531e-07
-5.97862e-07
6.31803e-08
-1.03776e-06
-4.63981e-08
-1.42845e-06
-1.36051e-07
-1.7639e-06
-2.06831e-07
-2.04163e-06
-2.60106e-07
-2.26188e-06
-2.97538e-07
-2.42682e-06
-3.21035e-07
-2.54011e-06
-3.32663e-07
-2.60643e-06
-3.34532e-07
-2.63112e-06
-2.61988e-06
-3.28699e-07
-6.30392e-08
-4.45564e-06
-1.22282e-07
-1.64512e-06
-1.51518e-07
-1.32172e-06
-1.63682e-07
-1.04413e-06
-1.64959e-07
-1.01266e-06
-1.60682e-07
-1.03166e-06
-1.52512e-07
-1.06345e-06
-1.40952e-07
-1.09735e-06
-1.25942e-07
-1.12859e-06
-1.06881e-07
-1.15395e-06
-8.27364e-08
-1.17068e-06
-5.21296e-08
-1.1762e-06
-1.3488e-08
-1.16804e-06
3.50129e-08
-1.14371e-06
9.56384e-08
-1.10033e-06
1.71342e-07
-1.03403e-06
2.66214e-07
-9.3904e-07
3.85631e-07
-8.06653e-07
5.35604e-07
-6.24426e-07
7.21483e-07
-3.77256e-07
9.46558e-07
-4.88552e-08
1.21248e-06
3.81894e-07
1.51041e-06
9.42525e-07
1.82141e-06
1.66274e-06
2.11436e-06
2.5796e-06
2.32553e-06
3.35934e-06
2.41823e-06
3.70606e-06
2.40858e-06
3.8921e-06
2.31053e-06
3.93236e-06
2.14637e-06
3.83488e-06
1.94184e-06
3.62816e-06
1.71672e-06
3.34412e-06
1.48523e-06
2.99171e-06
1.25378e-06
2.57804e-06
1.02897e-06
2.11629e-06
8.17076e-07
1.61824e-06
6.21665e-07
1.09557e-06
4.44184e-07
5.63662e-07
2.85199e-07
4.04071e-08
1.44597e-07
-4.5726e-07
2.25357e-08
-9.15703e-07
-8.10278e-08
-1.32488e-06
-1.66405e-07
-1.67852e-06
-2.34166e-07
-1.97387e-06
-2.85268e-07
-2.21077e-06
-3.21063e-07
-2.39102e-06
-3.43236e-07
-2.51794e-06
-3.53693e-07
-2.59597e-06
-3.54452e-07
-2.63036e-06
-2.6268e-06
-3.47535e-07
-6.40957e-08
-4.39155e-06
-1.22365e-07
-1.58685e-06
-1.52244e-07
-1.29184e-06
-1.66066e-07
-1.03031e-06
-1.70291e-07
-1.00844e-06
-1.69742e-07
-1.03221e-06
-1.65752e-07
-1.06744e-06
-1.58666e-07
-1.10444e-06
-1.48346e-07
-1.13891e-06
-1.34242e-07
-1.16805e-06
-1.15445e-07
-1.18948e-06
-9.07316e-08
-1.20092e-06
-5.86818e-08
-1.20009e-06
-1.77248e-08
-1.18466e-06
3.39508e-08
-1.152e-06
9.86048e-08
-1.09868e-06
1.79328e-07
-1.01976e-06
2.80439e-07
-9.07764e-07
4.07174e-07
-7.51161e-07
5.64433e-07
-5.34515e-07
7.54905e-07
-2.39327e-07
9.80267e-07
1.56532e-07
1.2363e-06
6.86495e-07
1.50845e-06
1.39059e-06
1.7718e-06
2.31626e-06
1.97022e-06
3.16092e-06
2.06684e-06
3.60944e-06
2.07281e-06
3.88612e-06
2.00088e-06
4.0043e-06
1.86834e-06
3.96742e-06
1.69579e-06
3.80071e-06
1.50388e-06
3.53602e-06
1.30351e-06
3.19208e-06
1.10214e-06
2.77941e-06
9.05704e-07
2.31273e-06
7.19131e-07
1.80481e-06
5.45293e-07
1.26941e-06
3.85501e-07
7.23454e-07
2.40471e-07
1.85437e-07
1.10514e-07
-3.27304e-07
-3.77788e-09
-8.01411e-07
-1.01928e-07
-1.22673e-06
-1.83678e-07
-1.59677e-06
-2.491e-07
-1.90845e-06
-2.98728e-07
-2.16114e-06
-3.33583e-07
-2.35617e-06
-3.55095e-07
-2.49642e-06
-3.64998e-07
-2.58607e-06
-3.65208e-07
-2.63015e-06
-2.6343e-06
-3.57706e-07
-6.51044e-08
-4.32644e-06
-1.22356e-07
-1.5296e-06
-1.53249e-07
-1.26095e-06
-1.68821e-07
-1.01473e-06
-1.75862e-07
-1.0014e-06
-1.78711e-07
-1.02936e-06
-1.78641e-07
-1.06751e-06
-1.75791e-07
-1.10729e-06
-1.69974e-07
-1.14473e-06
-1.60653e-07
-1.17737e-06
-1.46998e-07
-1.20313e-06
-1.27926e-07
-1.21999e-06
-1.02162e-07
-1.22586e-06
-6.83086e-08
-1.21852e-06
-2.48439e-08
-1.19547e-06
3.00342e-08
-1.15356e-06
9.86768e-08
-1.08841e-06
1.84315e-07
-9.93402e-07
2.91275e-07
-8.58121e-07
4.24082e-07
-6.67322e-07
5.85764e-07
-4.01009e-07
7.76586e-07
-3.42897e-08
9.95824e-07
4.67257e-07
1.23267e-06
1.15375e-06
1.46746e-06
2.08147e-06
1.65144e-06
2.97694e-06
1.74921e-06
3.51167e-06
1.76761e-06
3.86772e-06
1.71895e-06
4.05296e-06
1.61445e-06
4.07193e-06
1.47223e-06
3.94293e-06
1.31203e-06
3.69622e-06
1.14163e-06
3.36248e-06
9.69205e-07
2.95184e-06
7.99896e-07
2.48204e-06
6.37588e-07
1.96712e-06
4.84506e-07
1.42249e-06
3.4175e-07
8.6621e-07
2.10043e-07
3.17144e-07
9.01536e-08
-2.07415e-07
-1.69899e-08
-6.94268e-07
-1.10369e-07
-1.13336e-06
-1.89157e-07
-1.51798e-06
-2.52919e-07
-1.84469e-06
-3.0176e-07
-2.1123e-06
-3.36336e-07
-2.32159e-06
-3.57804e-07
-2.47496e-06
-3.67714e-07
-2.57616e-06
-3.6788e-07
-2.62999e-06
-2.64194e-06
-3.60239e-07
-6.60922e-08
-4.26035e-06
-1.2231e-07
-1.47338e-06
-1.54435e-07
-1.22883e-06
-1.71671e-07
-9.97498e-07
-1.81405e-07
-9.91663e-07
-1.87489e-07
-1.02328e-06
-1.91076e-07
-1.06392e-06
-1.92256e-07
-1.10611e-06
-1.90723e-07
-1.14626e-06
-1.85968e-07
-1.18213e-06
-1.77232e-07
-1.21187e-06
-1.63538e-07
-1.23368e-06
-1.43747e-07
-1.24565e-06
-1.16606e-07
-1.24566e-06
-8.07695e-08
-1.2313e-06
-3.47407e-08
-1.19959e-06
2.3295e-08
-1.14644e-06
9.57529e-08
-1.06586e-06
1.85963e-07
-9.48331e-07
2.97875e-07
-7.79234e-07
4.34738e-07
-5.37872e-07
5.96841e-07
-1.96392e-07
7.84027e-07
2.80071e-07
9.89418e-07
9.48358e-07
1.19758e-06
1.8733e-06
1.36667e-06
2.80785e-06
1.46369e-06
3.41465e-06
1.49222e-06
3.83919e-06
1.46197e-06
4.08321e-06
1.38296e-06
4.15094e-06
1.2721e-06
4.05379e-06
1.14046e-06
3.82785e-06
9.98922e-07
3.50402e-06
8.54166e-07
3.09659e-06
7.10635e-07
2.62557e-06
5.71403e-07
2.10635e-06
4.38096e-07
1.5558e-06
3.11548e-07
9.92758e-07
1.92506e-07
4.36186e-07
8.20234e-08
-9.69319e-08
-1.86171e-08
-5.93627e-07
-1.07863e-07
-1.04411e-06
-1.84342e-07
-1.4415e-06
-2.47107e-07
-1.78192e-06
-2.958e-07
-2.06361e-06
-3.30698e-07
-2.28669e-06
-3.52673e-07
-2.45298e-06
-3.63088e-07
-2.56574e-06
-3.63646e-07
-2.62943e-06
-2.64934e-06
-3.56244e-07
-6.69606e-08
-4.19339e-06
-1.22161e-07
-1.41818e-06
-1.5579e-07
-1.1952e-06
-1.74658e-07
-9.7863e-07
-1.86954e-07
-9.79367e-07
-1.96133e-07
-1.0141e-06
-2.0311e-07
-1.05694e-06
-2.08005e-07
-1.10121e-06
-2.10503e-07
-1.14377e-06
-2.10074e-07
-1.18256e-06
-2.06005e-07
-1.21594e-06
-1.97409e-07
-1.24228e-06
-1.83258e-07
-1.2598e-06
-1.62424e-07
-1.26649e-06
-1.3371e-07
-1.26002e-06
-9.5817e-08
-1.23748e-06
-4.72749e-08
-1.19498e-06
1.37265e-08
-1.12686e-06
8.96847e-08
-1.02429e-06
1.83806e-07
-8.73355e-07
2.99195e-07
-6.53262e-07
4.37039e-07
-3.34236e-07
5.96541e-07
1.20569e-07
7.7439e-07
7.70509e-07
9.58366e-07
1.68933e-06
1.11291e-06
2.6533e-06
1.20805e-06
3.31951e-06
1.24505e-06
3.80219e-06
1.23134e-06
4.09692e-06
1.17712e-06
4.20516e-06
1.09254e-06
4.13837e-06
9.87544e-07
3.93285e-06
8.74473e-07
3.61709e-06
7.55655e-07
3.21541e-06
6.36404e-07
2.74482e-06
5.18993e-07
2.22376e-06
4.04418e-07
1.67037e-06
2.93217e-07
1.10396e-06