/*--------------------------------*- C++ -*----------------------------------*\
  =========                 |
  \\      /  F ield         | OpenFOAM: The Open Source CFD Toolbox
   \\    /   O peration     | Website:  https://openfoam.org
    \\  /    A nd           | Version:  10
     \\/     M anipulation  |
\*---------------------------------------------------------------------------*/
FoamFile
{
    format      ascii;
    class       volSymmTensorField;
    location    "40000";
    object      shearStress;
}
// * * * * * * * * * * * * * * * * * * * * * * * * * * * * * * * * * * * * * //

dimensions      [0 2 -2 0 0 0 0];

internalField   nonuniform List<symmTensor> 
20625
(
(-0.000284156 -0.00647515 -9.77666e-24 4.07786e-05 -5.98437e-25 0.000243377)
(0.00253747 -0.00675715 -1.42186e-22 -0.00137683 7.00271e-22 -0.00116063)
(-0.00177997 -0.00357908 1.95322e-22 0.000801681 2.22756e-21 0.000978293)
(0.000591472 -0.00298311 -4.03404e-22 -0.000369491 -2.92751e-21 -0.000221981)
(9.3101e-06 -0.00281614 1.25219e-21 7.11511e-06 8.85137e-21 -1.64252e-05)
(-0.000453429 -0.00282869 7.1444e-22 0.000462277 -2.17389e-20 -8.84799e-06)
(-0.00108371 -0.00278106 -5.34414e-21 0.00109583 3.53065e-21 -1.21254e-05)
(-0.00184536 -0.00282182 8.29307e-22 0.00184811 2.76431e-20 -2.75853e-06)
(-0.00261118 -0.00285609 -4.87804e-21 0.00261311 -1.26212e-20 -1.92691e-06)
(-0.00318259 -0.00271476 3.18858e-21 0.00317658 4.56345e-20 6.01184e-06)
(-0.00354272 -0.00247409 6.34868e-21 0.00353102 -1.7817e-20 1.17011e-05)
(-0.00361298 -0.00213721 -3.30444e-21 0.00360673 -4.1363e-21 6.24532e-06)
(-0.00342657 -0.0017083 1.24959e-23 0.0034269 -3.1082e-21 -3.22668e-07)
(-0.00293355 -0.00116414 -0 0.00293844 3.33541e-21 -4.88773e-06)
(-0.00228516 -0.000657151 -0 0.00228988 5.20787e-22 -4.71792e-06)
(-0.00171685 -0.000295698 4.23623e-22 0.00172322 -2.04126e-20 -6.36953e-06)
(-0.00126203 -1.91738e-05 1.06147e-21 0.00127123 -4.2168e-20 -9.19092e-06)
(-0.000816198 0.000231408 -5.79595e-22 0.000814472 2.30251e-20 1.72591e-06)
(-0.000320361 0.000442575 -1.48635e-21 0.000326588 5.90469e-20 -6.22719e-06)
(0.000183075 0.000663731 -0 -0.000176705 8.58151e-21 -6.3702e-06)
(0.000667529 0.000895754 2.06294e-21 -0.000663435 -1.00871e-19 -4.09382e-06)
(0.00113887 0.00114306 -8.28609e-20 -0.00113451 9.25176e-21 -4.35625e-06)
(0.00159638 0.00141078 1.9062e-21 -0.00159138 5.53644e-19 -5.00439e-06)
(0.00203326 0.00169244 1.03095e-19 -0.00202687 2.48045e-19 -6.38974e-06)
(0.00242694 0.00197399 3.15257e-22 -0.00242142 -6.52059e-20 -5.51098e-06)
(0.0027469 0.00224545 1.04853e-19 -0.00274505 3.24037e-19 -1.85068e-06)
(0.00277961 0.00232956 1.45791e-19 -0.00277889 -4.48035e-19 -7.16544e-07)
(0.00276267 0.00238777 -1.34694e-19 -0.00275872 -8.87611e-19 -3.95388e-06)
(0.00274913 0.00243181 -1.61958e-19 -0.0027439 1.11392e-19 -5.22643e-06)
(0.00276277 0.00246083 5.6089e-20 -0.00275538 1.89474e-19 -7.38589e-06)
(0.0028258 0.00248007 -1.1951e-19 -0.00281801 -4.01168e-19 -7.79312e-06)
(0.00295736 0.00250807 -5.76234e-20 -0.00294944 3.61219e-19 -7.91485e-06)
(0.00307126 0.00249591 1.40677e-19 -0.00307039 4.78133e-20 -8.6932e-07)
(0.00306471 0.00246765 -9.36133e-20 -0.00306634 2.18421e-19 1.63415e-06)
(0.00305794 0.00258507 2.95087e-19 -0.00305492 -8.60174e-20 -3.0175e-06)
(0.00301684 0.00282144 -1.35584e-19 -0.00301485 -7.49282e-20 -1.98905e-06)
(0.00296131 0.00317632 -2.66422e-19 -0.00295906 -6.76336e-20 -2.25601e-06)
(0.00289493 0.00363814 1.53099e-19 -0.00289209 -1.03584e-19 -2.84003e-06)
(0.00281765 0.00418265 -5.75626e-20 -0.00281467 3.45698e-19 -2.98328e-06)
(0.00272841 0.00477821 6.23647e-20 -0.00272571 -3.96754e-20 -2.70823e-06)
(0.00262611 0.00539232 6.68239e-20 -0.00262393 -9.10367e-20 -2.17957e-06)
(0.00251077 0.00599659 -8.09668e-21 -0.00250922 2.45549e-19 -1.55363e-06)
(0.0023839 0.00656933 -2.95853e-20 -0.00238297 -8.68998e-21 -9.2765e-07)
(0.00224803 0.00709614 5.37076e-21 -0.00224773 -1.3427e-19 -3.00766e-07)
(0.00210669 0.00756942 2.98002e-20 -0.00210684 3.41509e-19 1.49393e-07)
(0.00196299 0.00798572 -2.90259e-19 -0.00196343 -6.10729e-20 4.38523e-07)
(0.0018197 0.00834462 3.3692e-19 -0.00182043 5.04887e-19 7.26963e-07)
(0.00167926 0.00864878 3.0149e-19 -0.00168036 -6.58416e-19 1.10121e-06)
(0.00154281 0.00890233 -3.38547e-19 -0.00154484 -3.38729e-20 2.03887e-06)
(0.00141414 0.00911032 -1.27105e-20 -0.00141652 5.32942e-20 2.38001e-06)
(-9.76642e-05 -0.00648107 -1.05777e-23 -0.000214891 -3.91023e-25 0.000312555)
(0.00255137 -0.00664369 3.70628e-23 -0.00155669 7.25259e-22 -0.000994678)
(-0.00147351 -0.00326659 -1.02933e-22 0.000564186 -1.81977e-21 0.000909329)
(0.000711262 -0.00254643 1.74458e-21 -0.000499734 2.29644e-21 -0.000211528)
(0.000173537 -0.00237366 -1.69221e-21 -0.000161829 -2.02402e-20 -1.17077e-05)
(-0.000179497 -0.00239352 -1.32993e-20 0.000191887 3.98681e-20 -1.23893e-05)
(-0.00071328 -0.00241175 2.58815e-20 0.000728448 4.36983e-20 -1.51672e-05)
(-0.00140212 -0.00250237 -2.6877e-21 0.00141014 -1.50781e-19 -8.01833e-06)
(-0.00213927 -0.00258907 -1.3533e-20 0.00214302 1.17619e-19 -3.74572e-06)
(-0.00278458 -0.0025663 2.28008e-20 0.00278339 -9.81089e-20 1.18407e-06)
(-0.00329574 -0.00243194 -2.45224e-20 0.0032844 9.5439e-21 1.13413e-05)
(-0.0035848 -0.0021746 -1.18096e-21 0.00357344 4.0882e-20 1.13611e-05)
(-0.00360685 -0.00183092 6.46423e-21 0.00360203 3.84754e-20 4.81557e-06)
(-0.00339885 -0.00140198 1.29023e-21 0.00340133 -1.40629e-20 -2.48616e-06)
(-0.00282134 -0.000864784 -1.37106e-20 0.00282669 -1.73372e-20 -5.34367e-06)
(-0.00218527 -0.000427218 -3.21032e-20 0.00218837 1.10369e-19 -3.09911e-06)
(-0.00164167 -0.000122277 3.41051e-20 0.00164958 1.91508e-19 -7.91476e-06)
(-0.00117646 0.000137314 7.40157e-20 0.00118121 -8.95164e-20 -4.7494e-06)
(-0.000679749 0.000366313 -2.03759e-20 0.00067583 -2.64259e-19 3.91957e-06)
(-0.000127847 0.000561271 -1.01481e-19 0.000135179 9.43483e-20 -7.3319e-06)
(0.000418539 0.000778504 -3.35656e-21 -0.000414462 3.59308e-19 -4.07689e-06)
(0.00094484 0.00101139 1.20636e-19 -0.000943076 4.49416e-21 -1.76469e-06)
(0.00144848 0.00126453 1.28515e-19 -0.00144688 -1.33999e-19 -1.59832e-06)
(0.00192676 0.00153807 -5.31967e-20 -0.00192445 -7.62702e-19 -2.31659e-06)
(0.0023581 0.00182023 3.68333e-20 -0.00235759 -2.79841e-20 -5.07006e-07)
(0.0027122 0.00209661 1.09586e-20 -0.00271509 -8.554e-19 2.88745e-06)
(0.00275224 0.00217673 -4.90601e-19 -0.00275758 -1.92393e-19 5.34162e-06)
(0.00274622 0.00223895 2.09116e-19 -0.00274997 3.78751e-19 3.756e-06)
(0.0027419 0.0022919 2.90357e-19 -0.00274395 -2.86024e-19 2.04798e-06)
(0.00276312 0.00233511 -4.09403e-19 -0.00276294 1.94447e-19 -1.74948e-07)
(0.0028431 0.00236704 2.46075e-19 -0.00283988 2.87222e-19 -3.22048e-06)
(0.00299991 0.0024088 1.64736e-19 -0.00299854 -2.6373e-19 -1.37079e-06)
(0.00324345 0.00249779 1.88051e-21 -0.00324838 9.41593e-19 4.93654e-06)
(0.00324833 0.00248557 -3.53018e-19 -0.00325663 -9.18497e-19 8.29738e-06)
(0.00322961 0.00262937 -3.42566e-20 -0.00323194 8.79439e-19 2.32615e-06)
(0.00316173 0.00290132 3.75249e-19 -0.00316436 -1.48394e-18 2.62188e-06)
(0.00306829 0.00329302 -7.35507e-19 -0.00307083 5.62847e-19 2.5359e-06)
(0.00295804 0.00379426 5.34982e-19 -0.0029597 1.9387e-19 1.66691e-06)
(0.00283211 0.00438028 4.83899e-19 -0.00283323 -3.68606e-19 1.12649e-06)
(0.00269087 0.0050173 -9.15796e-19 -0.00269193 -1.05224e-19 1.06416e-06)
(0.00253496 0.00567036 9.42972e-19 -0.00253625 1.54196e-18 1.28366e-06)
(0.00236603 0.00630912 4.57271e-21 -0.00236766 -2.30855e-18 1.62996e-06)
(0.002187 0.00691063 -1.62113e-18 -0.00218897 8.24111e-19 1.96629e-06)
(0.0020016 0.00745961 1.74844e-18 -0.00200387 1.30856e-18 2.27525e-06)
(0.00181384 0.00794785 5.3797e-19 -0.00181639 -2.18077e-18 2.54878e-06)
(0.00162781 0.00837272 -1.8572e-18 -0.00163056 -3.56576e-19 2.75588e-06)
(0.00144682 0.00873512 5.96467e-19 -0.00144968 1.33788e-18 2.85704e-06)
(0.00127308 0.00903831 3.23351e-20 -0.00127616 -1.39382e-18 3.07781e-06)
(0.00110751 0.00928711 1.20874e-20 -0.00111144 1.68729e-18 3.9325e-06)
(0.000953652 0.0094874 6.98787e-19 -0.000957928 -1.59577e-18 4.27577e-06)
(0.000289202 -0.00648554 2.17049e-23 -0.000566173 2.39646e-24 0.000276971)
(0.00255001 -0.006522 1.61348e-22 -0.00171791 -2.26475e-21 -0.000832096)
(-0.0012279 -0.0029806 -1.41234e-22 0.000379017 7.5682e-22 0.000848881)
(0.000778418 -0.00219296 1.62935e-21 -0.000575426 -2.81978e-22 -0.000202991)
(0.00026505 -0.00199126 2.10281e-21 -0.000260738 -2.67454e-20 -4.31196e-06)
(1.09894e-05 -0.00200283 -1.68279e-20 -1.2287e-07 6.71235e-21 -1.08665e-05)
(-0.000434281 -0.0020634 -1.54186e-20 0.000449164 1.07131e-19 -1.48837e-05)
(-0.0010306 -0.00219438 3.44461e-20 0.00104002 1.7887e-20 -9.41791e-06)
(-0.0016993 -0.0023254 -1.40364e-20 0.001704 -9.01381e-20 -4.70022e-06)
(-0.00234282 -0.00238416 -4.75563e-21 0.00234314 1.07423e-19 -3.25962e-07)
(-0.00291015 -0.00233653 3.21216e-20 0.00290419 -9.29692e-20 5.9643e-06)
(-0.0033827 -0.00218467 2.6051e-20 0.00336857 4.24325e-20 1.41336e-05)
(-0.00361906 -0.00189866 -4.17667e-21 0.00360919 -2.28664e-19 9.86686e-06)
(-0.00360687 -0.00154502 -6.29035e-20 0.0036033 8.91096e-20 3.57143e-06)
(-0.0033534 -0.00110322 4.41743e-20 0.00335737 8.44058e-20 -3.96101e-06)
(-0.00270673 -0.000596199 3.54326e-20 0.00271112 -1.91182e-19 -4.38769e-06)
(-0.00208256 -0.0002255 -3.49401e-20 0.00208464 -2.82797e-20 -2.07691e-06)
(-0.00155019 3.86072e-05 -4.80016e-20 0.00155899 -6.96563e-20 -8.79907e-06)
(-0.00105292 0.000282131 4.99341e-20 0.00105302 2.99634e-19 -1.00199e-07)
(-0.000499261 0.000491458 1.13337e-19 0.000495944 -2.9962e-19 3.31714e-06)
(9.90331e-05 0.000678278 -7.82782e-20 -9.34076e-05 -2.67471e-19 -5.62542e-06)
(0.000684595 0.0008978 -6.14365e-20 -0.000682177 -2.75822e-19 -2.41879e-06)
(0.00124161 0.00113825 -1.30372e-19 -0.00124125 -4.25812e-21 -3.59912e-07)
(0.00176805 0.00140227 4.085e-20 -0.00176757 -1.89335e-19 -4.83902e-07)
(0.00224286 0.00168469 -3.30899e-20 -0.00224435 -2.03411e-21 1.48374e-06)
(0.00263532 0.00196612 3.61657e-20 -0.00263887 5.79667e-20 3.552e-06)
(0.00269594 0.00204766 1.64405e-19 -0.00270246 1.78704e-19 6.52471e-06)
(0.00270353 0.00211266 -8.64208e-20 -0.00271029 1.19942e-18 6.75799e-06)
(0.00271256 0.00217388 2.70526e-19 -0.00271635 -1.0511e-18 3.78891e-06)
(0.00274539 0.00223145 -3.32868e-20 -0.00274672 1.37796e-19 1.32598e-06)
(0.00283692 0.00228635 -2.04627e-19 -0.00283499 1.94069e-19 -1.93469e-06)
(0.00301997 0.00234943 9.13313e-19 -0.00301803 -1.11137e-19 -1.93646e-06)
(0.00330196 0.00246444 -6.15962e-19 -0.00330503 -1.65571e-18 3.07732e-06)
(0.00343554 0.0025614 -6.75465e-19 -0.00344533 1.99228e-19 9.78431e-06)
(0.00338946 0.00272405 -1.11619e-18 -0.00339348 1.54164e-19 4.02434e-06)
(0.00329485 0.00303008 3.51568e-19 -0.00329585 2.66109e-18 1.00683e-06)
(0.00315962 0.00345659 8.95415e-19 -0.00316148 -1.18232e-18 1.86631e-06)
(0.00300228 0.00399542 -4.35574e-19 -0.00300337 1.79266e-18 1.0923e-06)
(0.00282403 0.00462081 9.53625e-19 -0.00282442 -1.08859e-18 3.92638e-07)
(0.00262634 0.00529644 1.8095e-18 -0.00262665 -3.04522e-19 3.10182e-07)
(0.00241206 0.00598469 -2.12737e-18 -0.00241265 -2.87304e-18 5.91005e-07)
(0.00218498 0.00665318 -2.30116e-18 -0.00218598 2.50675e-18 1.00708e-06)
(0.00194977 0.00727778 3.45806e-18 -0.00195121 7.51775e-19 1.44401e-06)
(0.00171156 0.00784309 -1.82419e-20 -0.0017134 -2.00052e-18 1.84145e-06)
(0.00147526 0.00834121 -2.56541e-18 -0.0014774 -3.70067e-19 2.13938e-06)
(0.00124527 0.00876976 1.7161e-21 -0.00124762 2.53435e-18 2.35211e-06)
(0.00102523 0.00913018 1.33611e-18 -0.0010277 2.01806e-19 2.47886e-06)
(0.000817404 0.00942673 1.28087e-18 -0.000820137 3.17437e-19 2.73319e-06)
(0.00062247 0.00966507 1.40437e-19 -0.000626148 -3.43882e-18 3.67718e-06)
(0.000413387 0.00997041 -1.38453e-18 -0.000387109 3.87676e-20 -2.62782e-05)
(0.000671377 -0.00647222 -4.15916e-22 -0.000911132 -4.30935e-21 0.000239755)
(0.00256233 -0.00638215 -5.904e-22 -0.00187293 4.72529e-20 -0.000689405)
(-0.00103474 -0.00275147 4.7044e-21 0.000232945 -2.62075e-20 0.0008018)
(0.00080775 -0.0018818 -8.75194e-21 -0.0006147 7.81344e-21 -0.00019305)
(0.00030877 -0.0016643 1.25175e-21 -0.00031192 5.76591e-20 3.15035e-06)
(0.000124839 -0.00164741 2.27645e-20 -0.00011381 -7.79556e-20 -1.10291e-05)
(-0.000243591 -0.00174484 -1.44073e-20 0.000258261 2.57069e-20 -1.46703e-05)
(-0.000743108 -0.00191179 1.12441e-20 0.000753248 8.5881e-21 -1.01402e-05)
(-0.00131641 -0.00207641 -1.44888e-20 0.00132446 -8.16216e-20 -8.04864e-06)
(-0.00190646 -0.00217952 -2.68324e-20 0.00190783 1.31324e-19 -1.37871e-06)
(-0.00246562 -0.00219484 6.92764e-20 0.00246267 -2.62481e-20 2.9532e-06)
(-0.00300889 -0.0021315 -2.08475e-20 0.00300079 -2.05638e-19 8.10049e-06)
(-0.00344617 -0.00194108 -2.84909e-20 0.00343197 1.22102e-19 1.41976e-05)
(-0.00364543 -0.00163357 4.11713e-20 0.00363729 -8.16534e-20 8.138e-06)
(-0.00361294 -0.00127041 -6.94447e-20 0.003611 4.3025e-20 1.93744e-06)
(-0.0032403 -0.00080005 -3.50004e-21 0.00324505 3.19878e-19 -4.74804e-06)
(-0.00259251 -0.000354977 2.30941e-20 0.00259514 -1.3427e-19 -2.62405e-06)
(-0.00197047 -4.24332e-05 7.26214e-20 0.00197348 2.05711e-19 -3.00988e-06)
(-0.00142632 0.000195867 5.66632e-20 0.00143507 -5.52711e-19 -8.7549e-06)
(-0.000889987 0.000422046 -8.88908e-20 0.000887917 -2.73306e-19 2.07073e-06)
(-0.000287282 0.000620939 -1.52498e-19 0.000286349 1.05539e-19 9.32984e-07)
(0.00035463 0.000810252 1.34953e-20 -0.000350571 8.15156e-19 -4.05899e-06)
(0.000966908 0.00103664 -5.809e-20 -0.000963783 -2.25024e-19 -3.12549e-06)
(0.00154874 0.00129215 -1.67942e-19 -0.00154703 1.68882e-18 -1.71426e-06)
(0.002076 0.00157494 1.87105e-19 -0.00207664 -1.06929e-19 6.3917e-07)
(0.00251263 0.00186171 1.45468e-19 -0.00251393 -7.63771e-20 1.30168e-06)
(0.00261055 0.0019488 6.82622e-19 -0.00261519 -1.88702e-19 4.63616e-06)
(0.0026362 0.00201374 -6.79793e-19 -0.00264272 -2.30413e-18 6.51796e-06)
(0.00266368 0.00208064 -1.48344e-19 -0.00266712 6.27422e-19 3.4424e-06)
(0.00271477 0.00215007 7.02697e-19 -0.00271599 -6.70503e-19 1.21925e-06)
(0.00282045 0.00223099 -4.07344e-19 -0.00281907 4.12723e-19 -1.38242e-06)
(0.00302738 0.00232644 -2.4198e-19 -0.00302277 -3.05128e-20 -4.61454e-06)
(0.00334289 0.00248057 -6.33568e-19 -0.00334476 5.7272e-19 1.87643e-06)
(0.00360226 0.00269199 1.01246e-18 -0.00361448 9.53199e-19 1.22177e-05)
(0.00353281 0.00286696 1.45349e-18 -0.00353775 -1.08937e-18 4.93582e-06)
(0.00341115 0.00319783 -1.40464e-18 -0.00341064 -2.17937e-19 -5.09703e-07)
(0.00323357 0.00365486 9.53061e-20 -0.00323522 4.89649e-19 1.6567e-06)
(0.00302717 0.0042292 -5.30765e-19 -0.00302828 -8.52644e-19 1.11691e-06)
(0.00279326 0.00489204 -1.97005e-18 -0.00279358 1.66612e-18 3.19152e-07)
(0.00253496 0.00560374 2.15986e-18 -0.0025352 1.21141e-18 2.39673e-07)
(0.00225796 0.00632384 8.12133e-20 -0.00225851 -2.13019e-18 5.50903e-07)
(0.00196861 0.00701789 2.58471e-19 -0.0019696 1.65333e-18 9.86141e-07)
(0.00167363 0.00766074 1.10578e-18 -0.00167506 -1.3735e-18 1.4277e-06)
(0.00137967 0.00823684 -1.34912e-18 -0.00138148 -3.11569e-19 1.81439e-06)
(0.00109263 0.00873858 1.55107e-19 -0.00109474 2.21729e-20 2.10657e-06)
(0.000817532 0.00916428 -1.77823e-20 -0.000819862 1.34999e-19 2.33019e-06)
(0.000558238 0.00951646 1.24536e-18 -0.000560678 9.03449e-20 2.44008e-06)
(0.00031685 0.00980035 -2.50017e-18 -0.000319554 -3.14341e-18 2.7048e-06)
(9.36146e-05 0.0100225 -3.41513e-19 -9.7336e-05 6.41752e-18 3.72134e-06)
(-7.50871e-05 0.0103055 3.19131e-18 3.75435e-05 -2.33461e-19 3.75435e-05)
(0.000958927 -0.00645214 4.28955e-22 -0.00120318 -4.51536e-22 0.000244254)
(0.00254713 -0.00623508 7.88229e-22 -0.00200125 -2.75313e-20 -0.000545876)
(-0.00088649 -0.00257172 -3.64998e-21 0.000116313 1.76982e-20 0.000770177)
(0.000793842 -0.00158241 -3.23364e-21 -0.00061443 -9.55339e-21 -0.000179412)
(0.000313704 -0.00138049 -1.12067e-20 -0.000323035 6.44346e-20 9.33099e-06)
(0.000181688 -0.00134959 3.39606e-20 -0.000171212 9.84669e-21 -1.0476e-05)
(-0.000106268 -0.00146508 3.1719e-20 0.000119842 -2.0025e-19 -1.35742e-05)
(-0.000518716 -0.0016518 -3.83241e-20 0.000529011 -2.64119e-20 -1.02946e-05)
(-0.000998095 -0.00184136 -1.27032e-20 0.00100768 6.36198e-20 -9.58947e-06)
(-0.00150285 -0.00196398 -1.89406e-20 0.00150581 1.42213e-20 -2.95461e-06)
(-0.00201803 -0.00202107 -3.11627e-20 0.00201515 6.29847e-20 2.87621e-06)
(-0.00255806 -0.00202309 4.04116e-21 0.00255466 1.45467e-19 3.39598e-06)
(-0.0030838 -0.00192804 -6.44829e-21 0.00307489 3.52365e-20 8.91067e-06)
(-0.00349354 -0.00169934 3.87134e-20 0.00347986 -1.61251e-20 1.36795e-05)
(-0.00366815 -0.00137822 1.26496e-19 0.0036611 -9.2572e-20 7.04352e-06)
(-0.00362592 -0.00099913 -3.16879e-20 0.00362679 -5.1215e-19 -8.76879e-07)
(-0.00312302 -0.000519345 -6.5614e-20 0.00312782 4.7562e-20 -4.80229e-06)
(-0.00246964 -0.000135499 -3.1868e-20 0.00246992 -6.89701e-20 -2.78199e-07)
(-0.0018379 0.000132389 -1.26459e-19 0.0018419 1.15451e-19 -4.00078e-06)
(-0.00127275 0.0003525 1.61003e-19 0.0012811 5.76358e-19 -8.34323e-06)
(-0.000693731 0.000570483 2.61915e-19 0.000690641 -7.0859e-19 3.09043e-06)
(-4.94649e-05 0.000751469 -1.45007e-19 5.24219e-05 -1.82828e-19 -2.95706e-06)
(0.000625067 0.000972484 1.77782e-19 -0.000622965 -5.94706e-20 -2.10184e-06)
(0.00126505 0.00121298 -7.18617e-20 -0.00126171 -4.37203e-19 -3.33626e-06)
(0.00185252 0.00149494 -7.41691e-19 -0.00185188 1.17387e-18 -6.38434e-07)
(0.00234139 0.00178811 1.21073e-19 -0.00234067 1.89172e-19 -7.1875e-07)
(0.00249629 0.00188685 -5.09218e-19 -0.00249951 -2.09077e-19 3.21818e-06)
(0.00254658 0.00194705 -3.54906e-19 -0.00255215 1.48411e-18 5.57682e-06)
(0.00259833 0.00201614 8.31583e-19 -0.00260217 4.77486e-19 3.83913e-06)
(0.00267434 0.00209548 7.62341e-19 -0.00267621 -2.91456e-19 1.87415e-06)
(0.00279977 0.00220248 5.88721e-23 -0.00279951 -5.776e-19 -2.61233e-07)
(0.00302727 0.00234043 4.82552e-19 -0.00302096 5.03328e-19 -6.30813e-06)
(0.00336816 0.00254876 -5.45296e-19 -0.00336728 -1.39267e-18 -8.75186e-07)
(0.00372828 0.00286589 -1.33203e-18 -0.00374152 7.26113e-19 1.32395e-05)
(0.00364663 0.00304981 7.54531e-19 -0.00365192 -6.26927e-19 5.29113e-06)
(0.00350322 0.00340111 4.41412e-20 -0.00350127 -4.50455e-19 -1.94781e-06)
(0.00328519 0.00388681 -3.10086e-20 -0.0032864 3.21551e-19 1.20451e-06)
(0.00302768 0.00449532 7.61572e-19 -0.00302846 -3.5299e-19 7.87982e-07)
(0.0027339 0.00519339 -9.14074e-19 -0.00273379 -1.41576e-18 -1.07857e-07)
(0.00241009 0.00593765 -1.06875e-18 -0.00240991 3.42694e-18 -1.80623e-07)
(0.00206565 0.00668475 -8.93101e-19 -0.00206584 -2.13476e-18 1.8656e-07)
(0.00171007 0.00739849 1.70729e-18 -0.00171074 4.87397e-18 6.69073e-07)
(0.00135236 0.00805298 2.60912e-18 -0.00135352 -3.35906e-18 1.16444e-06)
(0.00100074 0.00863305 -2.09489e-18 -0.00100233 -9.38718e-19 1.58397e-06)
(0.000662114 0.00913169 5.9422e-21 -0.000664003 -4.997e-20 1.88906e-06)
(0.000341958 0.00954795 -7.81187e-20 -0.000344093 -3.28205e-20 2.13547e-06)
(4.42056e-05 0.00988537 -8.41873e-20 -4.64779e-05 7.77059e-19 2.27237e-06)
(-0.000169513 0.0103039 2.76519e-18 0.000107155 4.11862e-20 6.23587e-05)
(-0.000465074 0.0103407 -2.49206e-18 0.00044774 -5.45462e-18 1.7334e-05)
(-0.000701462 0.010494 -7.47556e-19 0.000697291 6.48538e-18 4.17159e-06)
(0.00101508 -0.00644642 -5.82489e-23 -0.00137328 -5.09206e-21 0.000358197)
(0.00252652 -0.00607388 -1.22273e-21 -0.00211279 2.62035e-20 -0.000413726)
(-0.000767494 -0.00242836 -2.57718e-21 1.98261e-05 -1.29091e-21 0.000747668)
(0.000784239 -0.00136248 -2.20978e-21 -0.000613615 2.70576e-20 -0.000170625)
(0.000300362 -0.00114169 1.85507e-20 -0.000312652 -2.48492e-20 1.229e-05)
(0.000203376 -0.00111092 1.19194e-20 -0.000193975 -1.11453e-19 -9.40079e-06)
(-2.29356e-05 -0.00122635 -4.1579e-20 3.43999e-05 -1.37431e-20 -1.14643e-05)
(-0.000353855 -0.0014171 -1.02263e-20 0.000363457 1.82294e-19 -9.60226e-06)
(-0.000740842 -0.00161899 4.76111e-20 0.000750974 -1.13341e-19 -1.01313e-05)
(-0.00114893 -0.00174644 -7.90558e-20 0.00115361 1.24797e-20 -4.68601e-06)
(-0.00159991 -0.00183368 7.3717e-20 0.0015978 2.23267e-19 2.112e-06)
(-0.00209632 -0.00187635 1.10124e-19 0.0020942 -4.08941e-19 2.11532e-06)
(-0.00262571 -0.00185309 -1.94526e-19 0.00262268 2.50787e-20 3.03153e-06)
(-0.00313937 -0.00172332 -2.57598e-22 0.00312826 3.75619e-19 1.11066e-05)
(-0.00352838 -0.00146119 3.14377e-20 0.00351672 -1.35301e-19 1.16605e-05)
(-0.00369202 -0.00112924 -1.13334e-19 0.00368616 1.40894e-19 5.86104e-06)
(-0.00359589 -0.000716919 4.26513e-20 0.00359862 5.74421e-19 -2.73688e-06)
(-0.00299538 -0.000260467 5.30053e-20 0.00299831 -1.84373e-19 -2.93154e-06)
(-0.00232765 6.90284e-05 -1.86607e-20 0.0023267 2.40593e-19 9.54173e-07)
(-0.00168414 0.000306418 -8.32479e-20 0.00169016 4.86229e-20 -6.01835e-06)
(-0.00110092 0.000518924 -4.79185e-20 0.00110434 3.14523e-19 -3.41983e-06)
(-0.000474441 0.000732151 1.29636e-19 0.00047479 -2.5488e-20 -3.4923e-07)
(0.000223885 0.000916476 1.01582e-19 -0.000215569 3.66532e-20 -8.31651e-06)
(0.000907388 0.00117967 6.88072e-19 -0.000906245 -1.82048e-18 -1.14292e-06)
(0.00156452 0.00144854 -4.13092e-19 -0.00156402 -1.54951e-18 -4.99741e-07)
(0.00211558 0.00174748 -7.93575e-19 -0.00211387 2.57934e-18 -1.70835e-06)
(0.00235391 0.00187136 7.44773e-19 -0.00235722 1.78669e-18 3.30715e-06)
(0.00243723 0.00192029 -9.14804e-19 -0.00244242 1.22232e-18 5.1901e-06)
(0.00252023 0.00198738 -6.54433e-19 -0.00252533 1.70075e-18 5.09741e-06)
(0.00262671 0.00207604 7.65881e-19 -0.00262935 -8.05525e-19 2.63422e-06)
(0.00277687 0.002208 6.83535e-19 -0.00277778 -1.72111e-18 9.15511e-07)
(0.00302148 0.00239362 3.61412e-20 -0.00301444 -6.31539e-19 -7.03873e-06)
(0.00337918 0.0026634 -1.20481e-18 -0.00337679 4.81704e-19 -2.38387e-06)
(0.00380416 0.00306947 -4.65979e-19 -0.00381856 1.38118e-18 1.43989e-05)
(0.00372343 0.00326165 8.09168e-19 -0.00372965 -4.33878e-19 6.2188e-06)
(0.00356599 0.00363308 3.79046e-19 -0.00356342 4.92057e-20 -2.57759e-06)
(0.00330965 0.00414807 1.45087e-19 -0.00331062 -1.03029e-18 9.64906e-07)
(0.00299794 0.00478993 -1.99112e-18 -0.00299852 1.76323e-18 5.77862e-07)
(0.00263932 0.00552037 3.83603e-18 -0.00263894 1.87054e-18 -3.77323e-07)
(0.00224502 0.00629241 -2.31235e-18 -0.0022446 -4.46991e-18 -4.2641e-07)
(0.00182903 0.00706031 -2.38429e-18 -0.00182901 6.4164e-18 -1.08253e-08)
(0.0014043 0.00778656 5.27289e-18 -0.00140481 -2.98919e-18 5.10424e-07)
(0.00098223 0.00844509 -4.65598e-18 -0.000983281 -2.71301e-18 1.05092e-06)
(0.000572415 0.00902123 -9.19009e-19 -0.000573879 4.9758e-18 1.46379e-06)
(0.000182721 0.00950885 2.71501e-18 -0.000184522 -4.32637e-20 1.80109e-06)
(-0.00016533 0.0100417 2.9222e-18 0.000147576 3.73896e-19 1.77533e-05)
(-0.000514944 0.0102233 3.80153e-19 0.000512784 -4.90956e-18 2.15972e-06)
(-0.000817551 0.0104624 -3.02275e-18 0.000815113 2.09765e-19 2.43743e-06)
(-0.00108962 0.0106341 2.13434e-19 0.00108602 -1.58952e-18 3.60195e-06)
(-0.00132903 0.0107482 -2.98112e-18 0.0013248 7.98725e-20 4.22876e-06)
(0.00113179 -0.00643229 1.10511e-22 -0.0015712 9.25825e-24 0.000439409)
(0.00248851 -0.00588886 -2.46867e-21 -0.00220018 -5.96228e-21 -0.000288327)
(-0.000669332 -0.00230475 -6.58797e-21 -5.97743e-05 3.29612e-20 0.000729106)
(0.000782784 -0.00120131 1.37075e-21 -0.00061726 4.84378e-21 -0.000165524)
(0.000284171 -0.000967958 -3.13739e-21 -0.000298687 -1.1225e-20 1.45154e-05)
(0.000206055 -0.00092726 -8.91891e-22 -0.00019668 6.65223e-20 -9.37473e-06)
(2.24502e-05 -0.00103567 3.91832e-20 -1.18835e-05 -9.07046e-20 -1.05666e-05)
(-0.000239119 -0.00121863 -1.11751e-20 0.000248481 -2.6354e-20 -9.36229e-06)
(-0.000541681 -0.00140913 2.42872e-20 0.000550627 -4.06026e-20 -8.94625e-06)
(-0.000857919 -0.0015325 -3.15368e-20 0.000862171 -1.1197e-19 -4.25201e-06)
(-0.00123016 -0.00164202 -9.92157e-20 0.00123019 2.66658e-19 -3.13158e-08)
(-0.00166546 -0.0017136 1.13846e-19 0.00166363 -7.63176e-20 1.83079e-06)
(-0.00215312 -0.00173439 6.85876e-20 0.00215178 -2.53194e-19 1.33988e-06)
(-0.00267677 -0.00168267 -1.20721e-20 0.00267291 9.91141e-20 3.85938e-06)
(-0.00318418 -0.00151776 4.71997e-22 0.00317166 -2.77083e-19 1.25237e-05)
(-0.00355755 -0.00122878 6.92629e-20 0.0035493 2.43617e-19 8.24471e-06)
(-0.00371707 -0.000879264 1.13265e-19 0.00371348 -6.62421e-19 3.58863e-06)
(-0.00345456 -0.000424723 -1.18587e-19 0.00345858 -1.76422e-19 -4.01377e-06)
(-0.00284581 -2.00817e-05 -3.64988e-20 0.00284463 4.23378e-19 1.17101e-06)
(-0.00215892 0.000270498 -1.29779e-20 0.00215853 2.42781e-20 3.89192e-07)
(-0.00151019 0.00048828 -1.73451e-20 0.00151847 1.57684e-19 -8.27794e-06)
(-0.000899403 0.000716848 4.04598e-20 0.000893768 -2.9169e-19 5.6351e-06)
(-0.000219266 0.000906 -4.3781e-19 0.000224728 -4.24109e-19 -5.46212e-06)
(0.000505783 0.00116693 -1.5521e-19 -0.000500983 1.50478e-18 -4.79998e-06)
(0.00119781 0.00142643 9.67042e-19 -0.00119697 -2.44133e-19 -8.3538e-07)
(0.00182701 0.00173185 8.99765e-19 -0.0018246 -5.75673e-19 -2.40773e-06)
(0.00218911 0.00191181 6.69372e-19 -0.0021881 -3.43107e-18 -1.01175e-06)
(0.00231105 0.00194385 -3.57791e-19 -0.00231648 -2.48585e-18 5.42436e-06)
(0.00243297 0.00200377 -1.47e-18 -0.0024399 -3.2381e-19 6.93415e-06)
(0.00257454 0.00209949 -1.71692e-18 -0.00257887 1.64577e-18 4.32877e-06)
(0.0027526 0.00225359 6.52882e-19 -0.00275497 1.72262e-18 2.37423e-06)
(0.00300979 0.00248668 2.90353e-18 -0.00300298 9.79958e-21 -6.81266e-06)
(0.00337624 0.00281819 2.74003e-19 -0.0033721 -2.7509e-18 -4.13869e-06)
(0.00382532 0.00328694 -3.53962e-18 -0.00383784 -6.79929e-20 1.25271e-05)
(0.00376341 0.00349504 -2.16512e-19 -0.00377062 2.2637e-18 7.21357e-06)
(0.00359835 0.0038911 -2.25692e-19 -0.0035958 -3.41801e-20 -2.54404e-06)
(0.00330178 0.0044376 3.53754e-18 -0.00330234 2.95917e-18 5.59579e-07)
(0.00292951 0.00511067 7.92288e-19 -0.00292967 -5.11321e-18 1.5681e-07)
(0.00249982 0.00586815 -1.8712e-18 -0.00249906 2.40984e-18 -7.5749e-07)
(0.00203047 0.00666068 2.40929e-18 -0.0020297 -4.82345e-18 -7.60617e-07)
(0.00154016 0.00744088 -5.06882e-18 -0.00153986 4.06344e-19 -2.91506e-07)
(0.00104519 0.00817059 -3.41121e-18 -0.00104549 2.35424e-18 2.97766e-07)
(0.00055905 0.00882438 4.71974e-18 -0.000559913 5.50194e-18 8.62954e-07)
(9.26086e-05 0.0093881 1.03572e-18 -9.38893e-05 -3.79304e-18 1.28071e-06)
(-0.000345509 0.00985639 -3.32232e-18 0.000343855 3.98534e-18 1.65387e-06)
(-0.00074929 0.0102308 5.34367e-18 0.000747402 8.16427e-19 1.88807e-06)
(-0.00111515 0.0105175 3.45879e-18 0.00111316 -5.62223e-18 1.99521e-06)
(-0.00144219 0.0107252 -8.16848e-18 0.00143987 -6.55873e-18 2.31403e-06)
(-0.001732 0.0108634 -4.29916e-18 0.00172843 1.18158e-17 3.56738e-06)
(-0.00198321 0.0109431 6.05287e-18 0.00197895 9.3147e-19 4.2648e-06)
(0.00115911 -0.00643691 -4.05849e-23 -0.00172231 5.42435e-21 0.000563194)
(0.00246426 -0.00565804 9.78352e-22 -0.00227603 -2.13739e-20 -0.000188232)
(-0.000586074 -0.00219575 1.04286e-21 -0.000127398 3.75147e-21 0.000713472)
(0.000779805 -0.00106976 -6.69362e-21 -0.000616955 -2.22811e-20 -0.000162849)
(0.000277371 -0.000870038 -1.83646e-20 -0.000294152 9.85505e-20 1.67815e-05)
(0.000201995 -0.000805636 3.31989e-20 -0.000193147 -2.245e-20 -8.84867e-06)
(4.60297e-05 -0.000891205 9.6038e-21 -3.67544e-05 -2.42762e-20 -9.2753e-06)
(-0.000162877 -0.00105839 -1.58924e-20 0.000171547 -1.01969e-19 -8.66993e-06)
(-0.000391426 -0.00120988 -4.20121e-20 0.000398116 2.21073e-19 -6.69029e-06)
(-0.00063194 -0.00133161 6.1049e-20 0.000634165 -1.33309e-19 -2.22497e-06)
(-0.000922886 -0.00145199 -1.53179e-19 0.0009251 6.35232e-20 -2.2132e-06)
(-0.00128508 -0.00154368 -1.60287e-19 0.00128504 5.09648e-19 4.58117e-08)
(-0.00171425 -0.00159469 8.08595e-20 0.0017125 1.69763e-19 1.75285e-06)
(-0.00219779 -0.00159329 -9.34463e-21 0.00219652 5.75043e-20 1.26722e-06)
(-0.00271969 -0.00151123 -2.64244e-20 0.00271436 1.20505e-19 5.3335e-06)
(-0.00322398 -0.00130947 -3.25619e-20 0.00321163 -1.83727e-20 1.23501e-05)
(-0.00358444 -0.000999505 -1.25676e-19 0.00357907 3.58116e-19 5.37865e-06)
(-0.00372971 -0.000614007 3.30373e-19 0.00372907 3.43807e-19 6.39442e-07)
(-0.00328927 -0.000150398 4.33998e-19 0.0032904 -1.45084e-18 -1.13415e-06)
(-0.00266253 0.000209806 -9.38329e-20 0.00265843 -1.08736e-18 4.10202e-06)
(-0.00196162 0.000471736 -2.09964e-19 0.00196445 -2.63278e-20 -2.82302e-06)
(-0.0013156 0.000691265 -1.51392e-19 0.00131868 4.98982e-20 -3.07841e-06)
(-0.000648714 0.000910572 -1.09491e-19 0.000649617 1.21811e-18 -9.02524e-07)
(6.71439e-05 0.00112328 6.6328e-20 -6.11852e-05 1.63333e-18 -5.95879e-06)
(0.000777806 0.00141687 2.67977e-19 -0.000779388 -2.17932e-18 1.58194e-06)
(0.00147744 0.00171185 -5.49531e-19 -0.00147382 -1.8129e-18 -3.61881e-06)
(0.00201076 0.00201103 -1.63243e-20 -0.00200349 5.26958e-19 -7.27622e-06)
(0.00217373 0.0020265 6.3644e-19 -0.0021778 -9.01169e-19 4.0699e-06)
(0.00233848 0.00207614 8.83981e-19 -0.00234705 6.17182e-19 8.57156e-06)
(0.00251832 0.002173 2.9374e-19 -0.00252608 -5.32178e-19 7.757e-06)
(0.00272376 0.00234471 -1.32967e-18 -0.00272694 3.0485e-18 3.18161e-06)
(0.00298854 0.00261866 -6.77096e-19 -0.00297959 9.26835e-19 -8.95098e-06)
(0.00335831 0.0030032 2.8783e-19 -0.00335188 -1.25754e-18 -6.43091e-06)
(0.0038152 0.00351648 3.75913e-19 -0.00382413 1.84347e-18 8.93877e-06)
(0.00377285 0.00374744 4.40925e-20 -0.0037797 -1.26287e-19 6.85498e-06)
(0.0035906 0.00417427 -0 -0.00358813 -0 -2.4727e-06)
(0.00324589 0.00475283 -1.66664e-19 -0.00324528 1.02763e-18 -6.07973e-07)
(0.00280583 0.00545048 -3.87771e-19 -0.00280522 -9.55134e-19 -6.11667e-07)
(0.00230112 0.00622579 1.75911e-20 -0.00229989 3.68591e-19 -1.22805e-06)
(0.00175562 0.00702884 6.34139e-19 -0.00175449 -2.06037e-18 -1.1299e-06)
(0.00119193 0.00781137 -1.76805e-19 -0.00119135 1.16333e-18 -5.82638e-07)
(0.000629047 0.00853513 3.05325e-19 -0.00062915 1.90916e-18 1.02162e-07)
(8.21329e-05 0.00917525 -1.22446e-19 -8.27823e-05 -3.55108e-19 6.49352e-07)
(-0.000436528 0.00971834 -3.91451e-19 0.000435404 2.74743e-19 1.12403e-06)
(-0.000917905 0.0101601 2.1137e-19 0.000916398 -1.00114e-19 1.50719e-06)
(-0.00135618 0.0105035 -9.75659e-21 0.00135443 5.40799e-20 1.75558e-06)
(-0.00174825 0.010756 3.10012e-18 0.00174638 -8.3418e-19 1.87077e-06)