/*--------------------------------*- C++ -*----------------------------------*\
  =========                 |
  \\      /  F ield         | OpenFOAM: The Open Source CFD Toolbox
   \\    /   O peration     | Website:  https://openfoam.org
    \\  /    A nd           | Version:  10
     \\/     M anipulation  |
\*---------------------------------------------------------------------------*/
FoamFile
{
    format      ascii;
    class       vectorField;
    location    "40000";
    object      U_all-;
}
// * * * * * * * * * * * * * * * * * * * * * * * * * * * * * * * * * * * * * //


20625
(
(0.198247 0.902355 0)
(-0.102149 1.33714 2.72877e-21)
(-0.00699041 1.47224 7.92394e-21)
(-0.024874 1.57812 -1.21163e-20)
(-0.0269456 1.65517 3.44237e-20)
(-0.0257003 1.71573 -6.70936e-20)
(-0.0218922 1.77202 3.48186e-20)
(-0.0142991 1.83057 4.65573e-20)
(-0.00242205 1.89426 0)
(0.0145013 1.96511 1.71897e-19)
(0.0372202 2.04382 -1.01954e-19)
(0.0640161 2.12729 0)
(0.0908797 2.20918 0)
(0.115084 2.28528 0)
(0.13493 2.354 0)
(0.14932 2.41559 0)
(0.158725 2.47269 0)
(0.164576 2.52784 0)
(0.166938 2.58252 0)
(0.166335 2.63823 0)
(0.16337 2.69627 0)
(0.158337 2.75766 0)
(0.151366 2.82324 1.50998e-18)
(0.142491 2.8937 3.83536e-20)
(0.131654 2.96976 -3.31614e-19)
(0.119445 3.04864 0)
(0.107046 3.12372 -2.07547e-18)
(0.0950583 3.19199 -2.44724e-18)
(0.0836159 3.2542 0)
(0.0726997 3.31098 0)
(0.0623431 3.36319 -7.48829e-19)
(0.0528686 3.41223 1.44932e-18)
(0.0443239 3.45883 1.34581e-20)
(0.0363432 3.50216 0)
(0.0287042 3.54163 7.95069e-19)
(0.0215469 3.57702 -2.35641e-18)
(0.0149077 3.60818 1.56092e-18)
(0.00881764 3.6351 0)
(0.00330141 3.65793 3.83695e-19)
(-0.00163497 3.67699 3.70946e-19)
(-0.00600547 3.69268 0)
(-0.00984001 3.70548 0)
(-0.0131794 3.71582 0)
(-0.0160701 3.72414 1.4964e-19)
(-0.0185602 3.73079 0)
(-0.0206976 3.73609 0)
(-0.0225265 3.7403 9.83914e-19)
(-0.0240879 3.74364 -9.66223e-19)
(-0.0254181 3.74629 -2.65509e-20)
(-0.0265483 3.74839 0)
(0.178355 0.913213 0)
(-0.137838 1.33973 2.88441e-21)
(-0.0430462 1.47519 -8.34178e-21)
(-0.0654326 1.57996 1.30476e-20)
(-0.0694139 1.65319 -1.15383e-19)
(-0.070299 1.709 1.20104e-19)
(-0.0688568 1.76042 1.76856e-19)
(-0.0643287 1.81353 -5.20035e-19)
(-0.0560808 1.87122 4.22361e-19)
(-0.043428 1.93565 -3.79627e-19)
(-0.0253427 2.00846 0)
(-0.00147895 2.08931 2.69027e-19)
(0.025737 2.17379 1.80443e-20)
(0.0519527 2.25534 0)
(0.0748599 2.33077 0)
(0.0929874 2.3993 4.8969e-19)
(0.105465 2.46185 1.04423e-18)
(0.113011 2.5212 -4.80586e-19)
(0.116779 2.57906 -1.04771e-18)
(0.116558 2.63728 0)
(0.113104 2.69716 1.11459e-18)
(0.106909 2.75995 0)
(0.0982205 2.82666 -1.24548e-18)
(0.0871452 2.89811 -2.64989e-18)
(0.0736428 2.97506 0)
(0.0584675 3.05475 -3.35503e-18)
(0.0430666 3.13058 -9.18679e-20)
(0.0281939 3.19952 5.07532e-18)
(0.014016 3.26235 -2.81616e-18)
(0.000521006 3.31975 0)
(-0.0123107 3.37241 3.20546e-18)
(-0.0243554 3.42153 -3.03648e-18)
(-0.0352421 3.46827 7.59562e-19)
(-0.0452984 3.51212 -3.16116e-18)
(-0.0548235 3.55208 3.94345e-18)
(-0.0636677 3.58783 -2.44052e-18)
(-0.0717745 3.61919 8.18232e-19)
(-0.0791226 3.64615 3.28671e-18)
(-0.0857008 3.66886 -2.75097e-18)
(-0.0915197 3.68764 -3.84533e-19)
(-0.0966133 3.70294 2.96815e-18)
(-0.101033 3.71524 -5.59363e-18)
(-0.10484 3.72502 2.62468e-18)
(-0.108101 3.73274 2.34639e-18)
(-0.11088 3.73876 -4.81214e-18)
(-0.11324 3.74344 -2.17769e-20)
(-0.115237 3.74703 2.03207e-18)
(-0.116925 3.74978 -1.85312e-18)
(-0.118346 3.75185 1.74091e-18)
(-0.119541 3.75341 -1.73232e-18)
(0.157069 0.923586 0)
(-0.172719 1.34255 -5.82056e-21)
(-0.078184 1.47796 0)
(-0.104726 1.58125 0)
(-0.110068 1.65111 -1.03522e-19)
(-0.112633 1.7031 0)
(-0.113034 1.75051 3.54027e-19)
(-0.110881 1.79899 1.69956e-19)
(-0.105711 1.85149 -3.90523e-19)
(-0.0968884 1.91009 6.42937e-19)
(-0.0834879 1.97666 -4.72724e-19)
(-0.0644983 2.05198 0)
(-0.0398288 2.13503 -1.38376e-18)
(-0.0127972 2.22021 4.79158e-19)
(0.01226 2.30144 5.51165e-19)
(0.0335427 2.37676 -1.00147e-18)
(0.0496996 2.44589 -5.35104e-19)
(0.0600284 2.51027 0)
(0.0654126 2.57239 1.11612e-18)
(0.0664871 2.6337 -1.64759e-18)
(0.0632256 2.69606 -1.72563e-18)
(0.0563462 2.76069 0)
(0.0462815 2.8288 0)
(0.0332449 2.9014 2.76145e-18)
(0.0172407 2.97935 0)
(-0.000797939 3.05989 3.46746e-18)
(-0.0191386 3.13654 0)
(-0.0368576 3.20619 0)
(-0.0537814 3.26966 1.20036e-19)
(-0.0699009 3.32769 -3.10127e-18)
(-0.0852189 3.38092 0)
(-0.0997371 3.43031 0)
(-0.113101 3.47708 -1.15009e-17)
(-0.125368 3.52128 6.36923e-18)
(-0.136782 3.56161 -3.4209e-18)
(-0.147328 3.5976 1.51752e-17)
(-0.156896 3.62905 -5.84952e-18)
(-0.165482 3.65593 6.80547e-18)
(-0.173093 3.67839 -2.33321e-18)
(-0.179758 3.69679 1.18104e-19)
(-0.185531 3.71158 -1.29593e-17)
(-0.190488 3.72329 1.15963e-17)
(-0.194712 3.73242 7.44287e-20)
(-0.198289 3.73945 -5.45674e-18)
(-0.201304 3.74478 1.51675e-19)
(-0.203833 3.74875 4.85633e-18)
(-0.205948 3.75166 3.86166e-20)
(-0.207711 3.75374 1.57027e-19)
(-0.209176 3.75519 -3.75739e-18)
(-0.210389 3.75614 0)
(0.137129 0.933325 -7.27247e-22)
(-0.206555 1.34528 1.72727e-19)
(-0.112398 1.48036 -1.33014e-19)
(-0.142836 1.58194 6.25418e-20)
(-0.149213 1.64881 4.19784e-19)
(-0.153074 1.69749 -2.68332e-19)
(-0.154883 1.74138 0)
(-0.154495 1.78617 0)
(-0.151823 1.83444 -2.56145e-19)
(-0.146257 1.88817 4.50079e-19)
(-0.136992 1.94906 4.92882e-20)
(-0.123011 2.01837 -1.15304e-18)
(-0.103392 2.0964 1.13009e-18)
(-0.0782988 2.18148 -5.70688e-19)
(-0.0521632 2.26706 0)
(-0.0286706 2.34823 1.6734e-18)
(-0.00924598 2.42407 -5.16154e-19)
(0.00461378 2.49462 1.22212e-18)
(0.0124953 2.56158 -3.40274e-18)
(0.0151661 2.62705 3.53193e-20)
(0.0130324 2.69246 0)
(0.00612717 2.75952 3.89119e-18)
(-0.0048477 2.82944 -1.25597e-18)
(-0.0195161 2.90345 5.68082e-18)
(-0.0378066 2.98256 0)
(-0.0585901 3.06404 1.87915e-18)
(-0.079797 3.14157 -2.17276e-18)
(-0.100328 3.21203 -1.13872e-17)
(-0.120011 3.27618 1.28683e-17)
(-0.138809 3.33487 -6.58238e-18)
(-0.156674 3.38874 -1.96272e-19)
(-0.173643 3.43854 -3.25819e-19)
(-0.189495 3.48543 3.18973e-18)
(-0.203964 3.52979 6.65146e-18)
(-0.217268 3.57033 -6.87759e-18)
(-0.229501 3.60642 -7.09363e-18)
(-0.240505 3.63784 5.179e-18)
(-0.250297 3.66452 -7.04952e-18)
(-0.258904 3.68663 8.45469e-18)
(-0.266369 3.70454 6.6579e-18)
(-0.272772 3.71872 -5.477e-18)
(-0.278212 3.72974 6.0593e-18)
(-0.282796 3.73813 -6.36558e-18)
(-0.286633 3.74439 3.35681e-19)
(-0.289825 3.74893 0)
(-0.292468 3.75213 -2.96475e-19)
(-0.294645 3.75429 0)
(-0.296432 3.75564 -4.30861e-18)
(-0.297891 3.7564 7.7801e-18)
(-0.299075 3.75671 -3.78073e-18)
(0.114591 0.942753 -6.66999e-24)
(-0.23966 1.34783 -1.30627e-19)
(-0.145798 1.48235 1.00291e-19)
(-0.179791 1.58182 -6.71838e-20)
(-0.186912 1.646 4.59293e-19)
(-0.191698 1.69178 8.42665e-20)
(-0.19461 1.73278 -6.70458e-19)
(-0.195684 1.77454 -7.52632e-20)
(-0.194953 1.81944 1.6959e-19)
(-0.192063 1.86922 0)
(-0.186259 1.92536 5.65534e-19)
(-0.176707 1.98914 6.05248e-19)
(-0.162368 2.06144 0)
(-0.142314 2.14224 7.4326e-19)
(-0.117397 2.22902 -1.0252e-18)
(-0.09281 2.31479 -3.43921e-18)
(-0.0712408 2.39642 1.25836e-18)
(-0.0540324 2.47349 -1.11351e-18)
(-0.042851 2.54625 2.48021e-18)
(-0.037879 2.61647 3.89041e-18)
(-0.0385276 2.68587 -3.78576e-18)
(-0.0444826 2.75602 -2.69945e-18)
(-0.0557098 2.82828 0)
(-0.0715657 2.90411 -7.57052e-18)
(-0.0918466 2.98463 1.5065e-18)
(-0.115213 3.06718 7.3458e-18)
(-0.139203 3.14568 0)
(-0.162504 3.21705 1.7485e-17)
(-0.184939 3.28199 6.48139e-18)
(-0.206436 3.34141 0)
(-0.226906 3.39595 -7.56243e-18)
(-0.246343 3.44624 0)
(-0.264633 3.49327 -1.48639e-17)
(-0.281242 3.53765 6.94689e-18)
(-0.296396 3.57824 6.67406e-21)
(-0.310278 3.61432 0)
(-0.322684 3.64559 0)
(-0.333645 3.67198 0)
(-0.343201 3.69363 -5.37547e-18)
(-0.351414 3.71093 6.77303e-18)
(-0.358388 3.72441 0)
(-0.364247 3.73464 1.25806e-17)
(-0.369127 3.74219 -1.02727e-17)
(-0.373158 3.74759 0)
(-0.376464 3.75127 0)
(-0.379157 3.75363 0)
(-0.381336 3.75496 2.90597e-19)
(-0.383088 3.75554 0)
(-0.384486 3.75555 -8.06882e-18)
(-0.385591 3.75516 7.94865e-18)
(0.0942187 0.951706 -6.63891e-22)
(-0.27171 1.34992 7.95541e-20)
(-0.17834 1.484 -4.83358e-22)
(-0.215483 1.58075 3.4324e-19)
(-0.223225 1.6424 -1.63763e-19)
(-0.228733 1.68576 -4.88393e-19)
(-0.232478 1.72446 0)
(-0.234674 1.76374 5.93764e-19)
(-0.235503 1.80591 -3.78122e-19)
(-0.234746 1.85256 0)
(-0.231793 1.90486 1.26277e-18)
(-0.225971 1.96393 -2.44539e-18)
(-0.216325 2.03088 0)
(-0.201766 2.10636 2.85024e-18)
(-0.181562 2.1899 -1.34058e-18)
(-0.157679 2.2779 2.48957e-18)
(-0.135215 2.36404 2.47472e-18)
(-0.115908 2.44682 -1.14873e-18)
(-0.101421 2.52582 1.36227e-18)
(-0.093405 2.6015 -1.42327e-18)
(-0.0919664 2.67561 4.04497e-18)
(-0.0963255 2.74949 0)
(-0.107167 2.82494 0)
(-0.123537 2.90308 -3.32251e-18)
(-0.145367 2.9854 -1.37506e-17)
(-0.171086 3.06926 1.11897e-17)
(-0.197753 3.14886 0)
(-0.223737 3.22123 -1.21677e-17)
(-0.248872 3.28708 1.42033e-17)
(-0.27305 3.34731 0)
(-0.296156 3.40258 0)
(-0.318059 3.45341 -8.07527e-18)
(-0.338698 3.50056 -1.50444e-19)
(-0.35734 3.54483 7.2569e-18)
(-0.374274 3.58536 3.72371e-18)
(-0.389751 3.62133 0)
(-0.403516 3.65237 0)
(-0.415598 3.67835 0)
(-0.426045 3.69944 1.29822e-17)
(-0.434941 3.71603 -2.66022e-17)
(-0.442414 3.72869 2.72223e-17)
(-0.44862 3.73804 -1.28758e-17)
(-0.45372 3.74466 -1.53929e-18)
(-0.457872 3.74911 1.1722e-17)
(-0.46122 3.75186 8.10875e-19)
(-0.463895 3.7533 1.05301e-19)
(-0.46601 3.75375 -1.00063e-17)
(-0.467665 3.75348 0)
(-0.468944 3.7527 0)
(-0.469916 3.75157 0)
(0.0731217 0.960202 0)
(-0.302839 1.35151 -2.7426e-20)
(-0.210061 1.48514 2.61522e-19)
(-0.249987 1.57889 1.07958e-19)
(-0.258172 1.63802 5.44356e-20)
(-0.264277 1.6793 4.26793e-19)
(-0.268661 1.71608 -3.28185e-19)
(-0.271744 1.75337 -1.90589e-19)
(-0.273827 1.7934 0)
(-0.274727 1.83757 -5.88125e-19)
(-0.274077 1.88686 1.07821e-18)
(-0.271327 1.94212 6.69831e-19)
(-0.265637 2.00443 -1.41223e-18)
(-0.256028 2.07476 0)
(-0.241466 2.15353 -1.57553e-18)
(-0.221643 2.23964 1.31553e-18)
(-0.199786 2.32853 -5.41144e-18)
(-0.179858 2.41555 3.82845e-20)
(-0.163225 2.50016 -3.99319e-20)
(-0.152133 2.58178 -1.4961e-18)
(-0.147962 2.66104 -1.93855e-19)
(-0.150639 2.73957 -1.79815e-18)
(-0.159749 2.81867 -4.02799e-19)
(-0.176388 2.89994 1.61947e-17)
(-0.199036 2.98462 1.32013e-19)
(-0.226743 3.07012 -1.18238e-17)
(-0.255915 3.151 -2.42514e-17)
(-0.284416 3.2245 -1.87524e-17)
(-0.312151 3.29141 -7.76415e-18)
(-0.338964 3.35256 1.61568e-17)
(-0.364679 3.40862 2.5608e-17)
(-0.389003 3.45997 2.13923e-19)
(-0.411816 3.50719 -2.4872e-17)
(-0.432354 3.55126 -5.72009e-19)
(-0.450997 3.59167 1.52508e-17)
(-0.468017 3.62747 0)
(-0.483096 3.65818 1.59239e-17)
(-0.496238 3.68366 -3.11208e-17)
(-0.507503 3.70407 1.12566e-17)
(-0.516998 3.71985 -1.67208e-17)
(-0.524884 3.73159 -2.01153e-18)
(-0.531349 3.73995 1.33998e-17)
(-0.536585 3.74557 1.53307e-17)
(-0.540775 3.749 -1.28472e-17)
(-0.544086 3.75073 1.08488e-17)
(-0.546666 3.75119 1.10908e-19)
(-0.548647 3.7507 -1.01908e-17)
(-0.55014 3.74953 -9.67836e-18)
(-0.551239 3.74791 1.84043e-17)
(-0.552022 3.746 6.08308e-20)
(0.0553325 0.968728 3.47127e-21)
(-0.333012 1.35249 -5.42682e-20)
(-0.241003 1.48565 0)
(-0.283313 1.57624 -2.18319e-19)
(-0.291834 1.63282 1.06397e-18)
(-0.298385 1.67228 -3.00305e-19)
(-0.303278 1.70753 0)
(-0.307082 1.74321 -4.77186e-19)
(-0.310161 1.78153 8.05333e-19)
(-0.312365 1.82375 -5.1491e-19)
(-0.313559 1.87066 0)
(-0.31331 1.92295 2.84959e-18)
(-0.310888 1.98148 1.60699e-18)
(-0.305482 2.0473 0)
(-0.29611 2.12122 1.69138e-18)
(-0.28189 2.2033 2.24684e-19)
(-0.263251 2.29164 3.19205e-18)
(-0.244214 2.38138 3.05959e-18)
(-0.227232 2.47014 -9.87405e-18)
(-0.214036 2.5572 -5.82593e-18)
(-0.207065 2.64202 0)
(-0.207611 2.72561 2.91917e-18)
(-0.21499 2.80914 6.63007e-18)
(-0.230853 2.89415 2.94792e-19)
(-0.253599 2.98175 -7.26794e-18)
(-0.282768 3.06949 3.94234e-18)
(-0.314129 3.15181 2.00687e-17)
(-0.345011 3.22667 6.0063e-18)
(-0.375213 3.29483 7.33222e-18)
(-0.404542 3.35706 -1.70286e-17)
(-0.432706 3.41397 -6.81625e-20)
(-0.459255 3.4658 0)
(-0.484011 3.513 8.58526e-18)
(-0.50637 3.5568 0)
(-0.52672 3.59714 0)
(-0.545228 3.63273 0)
(-0.561549 3.66303 0)
(-0.575657 3.68789 0)
(-0.587632 3.70751 3.95916e-18)
(-0.597617 3.72237 0)
(-0.60581 3.7331 1.84215e-18)
(-0.612431 3.7404 0)
(-0.617706 3.74492 -1.67566e-18)
(-0.621842 3.74726 7.95446e-19)
(-0.625031 3.74792 0)
(-0.627439 3.74733 0)
(-0.629213 3.74585 0)
(-0.630476 3.74374 -1.02128e-17)
(-0.631333 3.74124 9.54491e-18)
(-0.631868 3.73851 -2.94021e-19)
(0.0394135 0.977448 3.73066e-21)
(-0.362478 1.35306 -5.37475e-20)
(-0.271159 1.48559 -3.75066e-19)
(-0.31553 1.57261 1.35166e-18)
(-0.32428 1.62682 2.39808e-19)
(-0.331111 1.66473 -1.87687e-18)
(-0.336388 1.69871 7.17945e-19)
(-0.340783 1.73309 -8.23802e-19)
(-0.344685 1.77003 4.64328e-19)
(-0.347988 1.81073 0)
(-0.350681 1.85577 -1.21459e-18)
(-0.352453 1.90572 -1.37925e-18)
(-0.352719 1.96129 1.16582e-19)
(-0.350788 2.02337 -1.52118e-18)
(-0.345851 2.09295 0)
(-0.336973 2.17064 1.79285e-18)
(-0.323567 2.25594 -6.45909e-18)
(-0.307295 2.34614 1.43248e-18)
(-0.29156 2.43735 1.04759e-17)
(-0.278018 2.52852 1.04487e-17)
(-0.269194 2.61856 -4.28799e-19)
(-0.2674 2.70728 3.02279e-18)
(-0.272955 2.7958 -1.38798e-17)
(-0.286881 2.88516 -1.48033e-17)
(-0.309794 2.97644 2.7099e-17)
(-0.33953 3.067 2.16346e-17)
(-0.372811 3.15112 -5.42646e-18)
(-0.406073 3.2275 5.97658e-18)
(-0.438534 3.29711 -7.80212e-18)
(-0.470086 3.36059 8.42785e-18)
(-0.500338 3.41833 -3.68639e-17)
(-0.528772 3.47059 -1.86418e-17)
(-0.555327 3.51791 9.49e-18)
(-0.579647 3.56152 -2.5876e-17)
(-0.601719 3.60173 1.66971e-17)
(-0.621563 3.63706 0)
(-0.638985 3.66683 0)
(-0.653908 3.69096 -1.70593e-17)
(-0.666446 3.70969 1.63108e-17)
(-0.676786 3.72354 1.61338e-17)
(-0.685161 3.73318 -1.33148e-17)
(-0.691827 3.73934 -1.48233e-17)
(-0.697037 3.74271 1.21737e-17)
(-0.701026 3.74391 -1.34276e-17)
(-0.704007 3.74345 1.25992e-17)
(-0.706164 3.74178 -7.51022e-19)
(-0.707657 3.73925 1.14327e-17)
(-0.708623 3.73617 -2.15224e-17)
(-0.709176 3.73275 9.48719e-18)
(-0.709408 3.72918 3.12432e-19)
(0.0242516 0.986349 -6.91536e-21)
(-0.391188 1.3531 1.05866e-19)
(-0.300435 1.48491 -6.85654e-19)
(-0.346626 1.56814 2.29449e-19)
(-0.355453 1.62003 9.90349e-19)
(-0.362501 1.65657 6.44613e-19)
(-0.368093 1.68952 -3.24231e-19)
(-0.37301 1.72291 4.23203e-19)
(-0.377627 1.75876 -1.53709e-18)
(-0.381897 1.79825 -9.44032e-20)
(-0.385858 1.8418 1.25292e-18)
(-0.389279 1.8899 -1.1249e-19)
(-0.39174 1.94315 -2.37235e-19)
(-0.392671 2.00228 1.59768e-18)
(-0.391412 2.06819 0)
(-0.387173 2.14177 0)
(-0.379136 2.22333 3.51661e-18)
(-0.367363 2.31165 -6.66313e-18)
(-0.354425 2.40357 -6.47269e-18)
(-0.342345 2.49723 -6.51282e-18)
(-0.333239 2.59133 6.61128e-18)
(-0.329854 2.68494 -2.07528e-17)
(-0.333795 2.77828 1.46751e-17)
(-0.346046 2.87261 4.11706e-18)
(-0.367519 2.96824 -2.03693e-17)
(-0.397732 3.06228 -5.03887e-18)
(-0.432462 3.14884 5.13184e-18)
(-0.467781 3.22675 6.54297e-18)
(-0.502333 3.29784 -7.11989e-18)
(-0.535723 3.36264 -3.49319e-17)
(-0.567642 3.42137 3.76952e-17)
(-0.597828 3.47426 1.98456e-17)
(-0.626266 3.52192 -1.01686e-17)
(-0.652462 3.56548 1.80915e-17)
(-0.676052 3.6054 -9.23842e-18)
(-0.69704 3.6403 8.64799e-18)
(-0.715369 3.66944 -8.89235e-18)
(-0.730927 3.69275 -2.22033e-17)
(-0.74387 3.71052 -3.76631e-19)
(-0.754423 3.72329 1.65233e-17)
(-0.762855 3.7318 1.42002e-17)
(-0.769454 3.73678 -1.72015e-17)
(-0.7745 3.73897 1.48156e-17)
(-0.778253 3.73898 -2.80484e-17)
(-0.780943 3.73736 1.32725e-17)
(-0.782773 3.73457 -1.27551e-17)
(-0.783916 3.73098 1.19902e-17)
(-0.784521 3.72689 0)
(-0.784712 3.72253 3.37764e-19)
(-0.784588 3.71808 0)
(0.00901427 0.995359 0)
(-0.419058 1.3526 -2.12893e-19)
(-0.328842 1.4836 -4.36873e-20)
(-0.376635 1.56297 1.60893e-18)
(-0.385468 1.61252 -1.76055e-18)
(-0.392716 1.64781 -6.49464e-19)
(-0.398606 1.67994 -6.02564e-19)
(-0.403993 1.71259 7.76746e-19)
(-0.409241 1.74761 0)
(-0.414374 1.78611 1.14461e-18)
(-0.41943 1.82848 0)
(-0.424236 1.87509 -2.83622e-18)
(-0.428501 1.92649 -1.6908e-18)
(-0.431802 1.9833 -2.55996e-19)
(-0.433586 2.04626 5.47843e-18)
(-0.433236 2.11628 0)
(-0.429997 2.1941 -1.73221e-18)
(-0.423255 2.27947 5.58597e-18)
(-0.41428 2.37054 -6.86487e-18)
(-0.405205 2.46499 -3.66272e-18)
(-0.397476 2.56163 -1.06859e-17)
(-0.393914 2.6592 2.88617e-17)
(-0.396807 2.75712 -1.50854e-17)
(-0.408028 2.85602 0)
(-0.428215 2.95653 4.57255e-18)
(-0.457874 3.05486 -4.82663e-17)
(-0.493299 3.14453 2.77975e-17)
(-0.530201 3.22431 -6.72726e-18)
(-0.566602 3.29673 7.08855e-18)
(-0.601635 3.3629 3.38697e-17)
(-0.635109 3.42285 0)
(-0.666961 3.47674 -2.0946e-17)
(-0.697011 3.52496 2.13984e-17)
(-0.724766 3.56843 -2.92807e-17)
(-0.749622 3.60791 -9.40278e-18)
(-0.771529 3.64228 9.34341e-18)
(-0.790562 3.67071 -1.88651e-17)
(-0.80658 3.69315 2.27736e-17)
(-0.819773 3.70992 -2.2699e-17)
(-0.830405 3.7216 3.49271e-17)
(-0.838778 3.72895 -1.6685e-17)
(-0.845208 3.73274 1.83064e-17)
(-0.850001 3.73371 -1.34218e-17)
(-0.853436 3.73252 1.84693e-18)
(-0.855761 3.72973 1.76224e-18)
(-0.857194 3.7258 4.17341e-23)
(-0.857923 3.72112 -1.28464e-17)
(-0.858108 3.716 2.43031e-17)
(-0.857882 3.71068 -6.32497e-19)
(-0.857354 3.70534 -1.13517e-17)
(-0.00690624 1.00435 -4.44941e-21)
(-0.445971 1.35145 -1.71612e-20)
(-0.356484 1.48171 0)
(-0.405625 1.55717 1.82237e-19)
(-0.414435 1.60439 -4.39646e-19)
(-0.42188 1.63852 0)
(-0.428084 1.66997 9.26967e-19)
(-0.43391 1.70207 -7.80024e-19)
(-0.439745 1.73647 9.1581e-20)
(-0.445664 1.77416 -1.055e-18)
(-0.451687 1.81557 1.29272e-18)
(-0.457692 1.861 -1.53525e-18)
(-0.463477 1.9109 -2.34873e-19)
(-0.468754 1.96585 -3.70225e-18)
(-0.473101 2.02648 -4.59106e-21)
(-0.475995 2.09359 -1.85352e-18)
(-0.476829 2.16801 3.99558e-18)
(-0.474891 2.25015 -2.0803e-18)
(-0.470465 2.33925 9.18663e-18)
(-0.465146 2.43326 3.36901e-18)
(-0.46023 2.53092 2.54068e-17)
(-0.457976 2.63114 -3.01002e-17)
(-0.460964 2.73295 2.72391e-17)
(-0.471549 2.83612 3.89156e-18)
(-0.491424 2.94126 3.54035e-17)
(-0.520225 3.04416 2.01137e-17)
(-0.555691 3.13759 -1.73166e-17)
(-0.59352 3.21996 -6.39415e-18)
(-0.631381 3.29386 0)
(-0.667991 3.36128 3.41849e-17)
(-0.702911 3.42261 -1.87533e-17)
(-0.736188 3.47766 4.3467e-17)
(-0.767491 3.52657 -4.41387e-17)
(-0.796435 3.5701 -3.88061e-19)
(-0.822249 3.6091 1.02467e-17)
(-0.84486 3.64288 -2.90802e-17)
(-0.864397 3.67056 -2.71321e-19)
(-0.880704 3.69211 1.90393e-17)
(-0.894006 3.70787 -9.64264e-18)
(-0.904598 3.71845 3.66286e-17)
(-0.91281 3.72464 -2.19353e-17)
(-0.918982 3.72725 -4.24765e-18)
(-0.923442 3.72701 -1.6414e-17)
(-0.926487 3.72462 1.35542e-17)
(-0.928381 3.72064 1.12811e-17)
(-0.929357 3.71556 -1.32944e-17)
(-0.929615 3.70978 0)
(-0.929328 3.70361 0)
(-0.928638 3.69731 1.54143e-18)
(-0.927661 3.69108 0)
(-0.0234407 1.01301 6.64784e-22)
(-0.472086 1.34991 1.22935e-19)
(-0.383452 1.47931 0)
(-0.433674 1.55081 -1.83606e-19)
(-0.442404 1.59574 4.33054e-19)
(-0.450067 1.62881 4.23988e-19)
(-0.45662 1.65969 -9.10843e-19)
(-0.462897 1.69136 3.44633e-19)
(-0.469308 1.72526 9.82149e-19)
(-0.475958 1.76231 1.13631e-18)
(-0.482869 1.80291 -1.28155e-18)
(-0.489948 1.84738 2.82429e-18)
(-0.497066 1.89608 0)
(-0.50403 1.94951 1.82742e-18)
(-0.510551 2.00828 -5.45173e-18)
(-0.516196 2.07303 -2.17784e-18)
(-0.52045 2.14458 -6.39458e-18)
(-0.522741 2.22363 0)
(-0.522873 2.31017 1.22215e-17)
(-0.521608 2.40291 -7.30414e-18)
(-0.520263 2.50048 -3.74899e-18)
(-0.520559 2.60204 1.58203e-17)
(-0.524865 2.70665 -3.25959e-17)
(-0.535699 2.81367 -4.57473e-18)
(-0.555668 2.92281 3.98171e-18)
(-0.584412 3.03028 -4.65525e-17)
(-0.619599 3.12772 -6.11121e-19)
(-0.657823 3.21317 -1.36858e-17)
(-0.696696 3.2891 3.93265e-17)
(-0.734583 3.35778 -3.30201e-17)
(-0.770822 3.42045 5.12017e-19)
(-0.805202 3.47673 2.13008e-17)
(-0.837509 3.52646 0)
(-0.867314 3.5702 -4.11579e-19)
(-0.893769 3.60881 9.6908e-18)
(-0.916864 3.64199 4.12076e-17)
(-0.936704 3.66892 -4.07087e-17)
(-0.953143 3.68959 -1.03783e-17)
(-0.966425 3.70436 -5.39913e-18)
(-0.976871 3.71388 -5.19667e-18)
(-0.984834 3.71894 2.7728e-17)
(-0.990675 3.72038 1.20867e-21)
(-0.994736 3.71896 0)
(-0.99733 3.71537 1.66276e-17)
(-0.998738 3.71021 2.16471e-18)
(-0.999204 3.70397 -1.31987e-17)
(-0.998943 3.69708 0)
(-0.998137 3.68985 0)
(-0.996941 3.68257 -1.493e-17)
(-0.995477 3.67543 1.30795e-17)
(-0.0415594 1.021 7.86414e-23)
(-0.497747 1.34827 -1.26185e-19)
(-0.409698 1.47652 -6.61301e-19)
(-0.460821 1.54399 6.15616e-19)
(-0.469423 1.5867 4.26159e-19)
(-0.477345 1.61878 -4.11364e-19)
(-0.484288 1.64918 -8.88061e-19)
(-0.491045 1.68049 6.73621e-19)
(-0.498045 1.71398 8.69004e-19)
(-0.505407 1.75049 9.36248e-20)
(-0.51316 1.79041 -1.14171e-18)
(-0.521241 1.83407 1.05333e-19)
(-0.52957 1.88179 -2.76421e-18)
(-0.538024 1.93398 1.8782e-21)
(-0.546398 1.9912 7.17612e-18)
(-0.55441 2.05406 -5.80439e-18)
(-0.561592 2.12325 3.65807e-20)
(-0.56745 2.19955 0)
(-0.571715 2.28344 -8.54784e-18)
(-0.574576 2.37429 0)
(-0.577036 2.47106 -3.29364e-17)
(-0.580624 2.57293 4.41456e-18)
(-0.587261 2.67922 2.99313e-17)
(-0.599388 2.78926 4.71418e-18)
(-0.619695 2.90218 -4.19732e-17)
(-0.649451 3.01351 2.87817e-19)
(-0.684479 3.1149 0)
(-0.72284 3.20372 5.64415e-17)
(-0.762302 3.28211 -3.1632e-17)
(-0.801186 3.35235 -1.66604e-17)
(-0.838495 3.41631 -3.81436e-17)
(-0.873692 3.47384 -5.68927e-19)
(-0.906729 3.5245 0)
(-0.93713 3.56855 -2.22639e-17)
(-0.964 3.60688 -2.1972e-17)
(-0.987359 3.63951 4.30196e-17)
(-1.00731 3.66574 1.07872e-17)
(-1.02374 3.68559 2.15471e-17)
(-1.03689 3.69943 -2.58124e-17)
(-1.0471 3.70793 -1.0335e-17)
(-1.05474 3.71192 1.9425e-17)
(-1.06019 3.71223 1.15967e-21)
(-1.0638 3.70966 -1.83473e-17)
(-1.0659 3.7049 1.74118e-17)
(-1.06678 3.69857 1.69474e-17)
(-1.06669 3.69118 -3.43895e-17)
(-1.06587 3.68317 1.44694e-17)
(-1.06451 3.67488 1.48999e-17)
(-1.06277 3.66661 -1.32305e-17)
(-1.06078 3.65856 8.80346e-19)
(-0.0606299 1.02839 2.40418e-22)
(-0.523047 1.34636 2.30867e-20)
(-0.435111 1.4733 5.65588e-19)
(-0.487082 1.5368 -6.19983e-19)
(-0.495535 1.57741 -1.36476e-18)
(-0.503772 1.60857 7.02893e-19)
(-0.51115 1.63852 8.62514e-19)
(-0.518423 1.66951 -1.13769e-18)
(-0.52604 1.70265 9.98256e-19)
(-0.534113 1.73869 -1.04936e-18)
(-0.542691 1.77803 -1.89089e-19)
(-0.551736 1.82099 2.60298e-18)
(-0.561199 1.86786 4.36294e-18)
(-0.571 1.91903 0)
(-0.581001 1.97497 0)
(-0.591009 2.03625 1.33089e-17)
(-0.60069 2.1035 6.48151e-18)
(-0.609613 2.17746 6.5687e-18)
(-0.617461 2.25883 -6.86218e-18)
(-0.624236 2.34754 4.72032e-18)
(-0.63053 2.44301 -3.97364e-18)
(-0.637668 2.54453 2.19913e-17)
(-0.647316 2.65154 -1.71339e-17)
(-0.661598 2.7636 -4.26364e-18)
(-0.683016 2.87987 5.10724e-18)
(-0.713869 2.99451 3.80295e-17)
(-0.749426 3.09954 -6.62293e-18)
(-0.787949 3.19173 -2.19678e-17)
(-0.827796 3.27283 -3.20913e-17)
(-0.867412 3.34491 3.52106e-17)
(-0.905478 3.41012 5.24282e-19)
(-0.941346 3.46893 -2.03294e-17)
(-0.974881 3.52058 0)
(-1.00562 3.56508 2.22764e-17)
(-1.03266 3.60323 0)
(-1.05612 3.6354 -1.12545e-17)
(-1.07602 3.66101 3.43911e-17)
(-1.09232 3.68012 -3.33497e-17)
(-1.10526 3.69311 2.76991e-17)
(-1.11517 3.70068 -2.6492e-17)
(-1.12244 3.70366 -5.17665e-18)
(-1.12746 3.70291 1.00048e-17)
(-1.13058 3.69923 0)
(-1.13214 3.69333 -1.87496e-17)
(-1.13246 3.68585 3.36358e-17)
(-1.13178 3.67733 -1.92981e-17)
(-1.13037 3.66821 -1.0337e-18)
(-1.12842 3.65886 1.69207e-17)
(-1.12611 3.6496 -1.51363e-17)
(-1.12358 3.64064 1.42446e-17)
(-0.07952 1.03538 2.4585e-23)
(-0.54781 1.34446 -6.73359e-20)
(-0.459772 1.46969 7.01254e-19)
(-0.512457 1.5293 2.55666e-19)
(-0.520807 1.56801 -7.02794e-19)
(-0.529416 1.59829 3.88071e-19)
(-0.537268 1.6278 -3.78008e-19)
(-0.545099 1.65849 1.63568e-18)
(-0.553341 1.6913 -1.65396e-18)
(-0.562144 1.72691 8.32261e-20)
(-0.571541 1.76574 -3.30153e-18)
(-0.581525 1.80807 -1.30237e-18)
(-0.592064 1.8542 -2.65253e-18)
(-0.603102 1.90448 0)
(-0.61455 1.95934 0)
(-0.626265 2.01929 -8.98915e-18)
(-0.638054 2.08494 -2.69289e-19)
(-0.649609 2.15695 -3.28397e-19)
(-0.660572 2.23606 2.19772e-18)
(-0.67089 2.32262 1.35286e-17)
(-0.680908 2.41646 2.26783e-17)
(-0.691637 2.51716 -1.83085e-17)
(-0.704558 2.62426 0)
(-0.721619 2.73746 5.02448e-18)
(-0.744936 2.85626 -4.57954e-18)
(-0.776806 2.97422 0)
(-0.81354 3.08196 0)
(-0.852443 3.17742 -7.6317e-18)
(-0.892644 3.26133 4.05758e-17)
(-0.932756 3.3355 -3.55735e-17)
(-0.971437 3.40201 0)
(-1.00789 3.46202 0)
(-1.0417 3.51471 0)
(-1.07247 3.55974 -4.44852e-17)
(-1.09946 3.59786 -3.84831e-19)
(-1.12289 3.62968 -1.14625e-17)
(-1.14265 3.65479 -1.18663e-17)
(-1.15874 3.67326 2.39478e-17)
(-1.17141 3.6855 -4.63312e-17)
(-1.18099 3.69223 2.23327e-17)
(-1.18786 3.69429 5.47314e-18)
(-1.19241 3.69255 -1.08386e-21)
(-1.19502 3.68782 -2.06605e-17)
(-1.19604 3.68083 3.95997e-17)
(-1.19576 3.67223 -3.57432e-17)
(-1.19449 3.66258 3.66871e-17)
(-1.19246 3.65236 -1.75725e-17)
(-1.1899 3.64196 -2.12329e-18)
(-1.18699 3.6317 -1.02003e-18)
(-1.1839 3.62182 0)
(-0.0984998 1.04202 0)
(-0.572024 1.34254 0)
(-0.483758 1.46579 1.22262e-19)
(-0.536989 1.52166 8.83306e-19)
(-0.545296 1.55864 -2.00114e-18)
(-0.55433 1.58806 1.13568e-18)
(-0.562704 1.6171 -2.90858e-19)
(-0.571119 1.64748 4.77961e-22)
(-0.580001 1.67997 8.14671e-19)
(-0.589531 1.71518 1.88675e-18)
(-0.599748 1.75352 -9.28785e-19)
(-0.610638 1.79528 2.51585e-21)
(-0.622189 1.84074 0)
(-0.634369 1.89024 0)
(-0.647123 1.94415 1.58404e-18)
(-0.660356 2.00297 -1.53927e-18)
(-0.673946 2.06725 -7.41871e-18)
(-0.687723 2.13764 -1.45081e-17)
(-0.701413 2.21482 7.07594e-18)
(-0.714882 2.29934 -1.90056e-17)
(-0.728386 2.39143 -1.39229e-17)
(-0.74263 2.49098 -4.44731e-18)
(-0.758904 2.5977 5.09792e-18)
(-0.77899 2.71142 -4.54662e-18)
(-0.804808 2.83191 5.34569e-18)
(-0.838019 2.95259 -5.21065e-18)
(-0.875995 3.06304 6.81373e-18)
(-0.915694 3.16117 2.24552e-17)
(-0.956266 3.24782 -8.58554e-18)
(-0.996817 3.32418 4.47974e-17)
(-1.03602 3.39216 0)
(-1.07286 3.45318 0)
(-1.10679 3.50683 0)
(-1.1373 3.55246 -4.27694e-19)
(-1.16416 3.59081 2.15268e-17)
(-1.1875 3.62243 4.634e-17)
(-1.20707 3.64717 2.47678e-17)
(-1.22292 3.6651 -2.46319e-17)
(-1.23528 3.6767 -2.47473e-17)
(-1.24449 3.68269 2.95725e-17)
(-1.25095 3.68393 -5.79727e-18)
(-1.25503 3.68127 -2.83048e-17)
(-1.25713 3.67556 2.16207e-17)
(-1.25758 3.66753 2.1157e-17)
(-1.25671 3.65785 -1.76094e-17)
(-1.25481 3.6471 -1.72138e-17)
(-1.25215 3.6358 1.87881e-17)
(-1.24896 3.62434 -1.60162e-17)
(-1.24544 3.61309 3.6199e-17)
(-1.24177 3.6023 -1.75029e-17)
(-0.117376 1.04845 -6.43205e-24)
(-0.59571 1.34072 0)
(-0.50707 1.46161 -1.25108e-19)
(-0.560724 1.51395 -8.87878e-19)
(-0.569037 1.54938 1.46542e-18)
(-0.578541 1.57798 3.69851e-19)
(-0.587476 1.60651 -4.37468e-19)
(-0.596512 1.63653 7.38335e-19)
(-0.606065 1.66871 -7.09216e-19)
(-0.616321 1.70353 -8.40629e-19)
(-0.627325 1.7414 1.9271e-18)
(-0.639067 1.78261 1.09886e-18)
(-0.651554 1.82746 -1.20197e-18)
(-0.664785 1.87623 2.27879e-18)
(-0.678737 1.92931 3.98901e-18)
(-0.693345 1.98713 -6.10472e-18)
(-0.708537 2.05022 6.91e-18)
(-0.724229 2.11922 9.90757e-18)
(-0.740274 2.19479 -1.08388e-17)
(-0.756541 2.2775 -1.89927e-17)
(-0.773209 2.36784 3.3655e-17)
(-0.790811 2.46604 2.4131e-17)
(-0.8104 2.57205 -1.96926e-17)
(-0.833591 2.68583 0)
(-0.86218 2.80735 4.08811e-17)
(-0.897149 2.93012 0)
(-0.93644 3.04299 0)
(-0.977124 3.14357 -6.76132e-17)
(-1.01845 3.23255 8.02195e-18)
(-1.05929 3.3112 -3.62971e-17)
(-1.09877 3.3807 1.86684e-17)
(-1.13581 3.44264 1.95741e-17)
(-1.16969 3.49703 0)
(-1.19998 3.54335 0)
(-1.22677 3.58211 0)
(-1.24993 3.61373 -2.37998e-17)
(-1.26925 3.63821 0)
(-1.2848 3.65574 -1.30306e-17)
(-1.29682 3.66681 2.61564e-17)
(-1.30566 3.67218 -3.12939e-17)
(-1.31169 3.67269 0)
(-1.31531 3.66922 -2.40903e-17)
(-1.31689 3.6626 2.87328e-17)
(-1.31678 3.65359 0)
(-1.31531 3.64287 -2.43915e-17)
(-1.31279 3.63106 2.07625e-17)
(-1.30949 3.61868 2.03049e-17)
(-1.30566 3.60618 -2.27684e-18)
(-1.30152 3.59393 -1.8821e-17)
(-1.29724 3.58223 0)
(-0.135978 1.05473 -7.33282e-23)
(-0.618796 1.33884 -6.2104e-20)
(-0.529665 1.45713 0)
(-0.583717 1.50631 0)
(-0.592067 1.54032 -3.86273e-19)
(-0.60206 1.56813 -1.17089e-18)
(-0.611569 1.59612 2.80034e-19)
(-0.621257 1.62573 1.52181e-18)
(-0.631504 1.65754 -6.9779e-19)
(-0.642474 1.69198 0)
(-0.654221 1.7294 0)
(-0.666772 1.7701 0)
(-0.680141 1.81436 0)
(-0.694346 1.86247 -3.51114e-18)
(-0.709393 1.91478 -1.78712e-19)
(-0.725255 1.9717 6.96335e-18)
(-0.741908 2.03374 -1.70459e-18)
(-0.759314 2.10151 -5.55836e-18)
(-0.777411 2.17567 8.22692e-18)
(-0.796155 2.25684 1.84213e-17)
(-0.815661 2.34554 -5.5696e-20)
(-0.836387 2.44232 -1.46137e-17)
(-0.85917 2.54739 1.54927e-17)
(-0.885443 2.66087 0)
(-0.916879 2.78291 -4.18558e-17)
(-0.953925 2.9072 0)
(-0.994695 3.02214 0)
(-1.03648 3.12481 3.02242e-17)
(-1.0786 3.21595 8.74385e-18)
(-1.11977 3.29649 2.78158e-17)
(-1.15943 3.36767 -4.88557e-17)
(-1.19655 3.43063 9.82599e-18)
(-1.23035 3.48569 0)
(-1.26057 3.53268 0)
(-1.28722 3.57189 0)
(-1.31011 3.60363 -2.46458e-17)
(-1.32913 3.62799 2.52429e-17)
(-1.34435 3.64524 1.34535e-17)
(-1.35602 3.65592 -1.36671e-17)
(-1.36448 3.66079 2.03262e-17)
(-1.3701 3.6607 -5.21364e-17)
(-1.37326 3.65652 2.51282e-17)
(-1.37434 3.64907 -6.14268e-22)
(-1.37369 3.63915 2.09107e-17)
(-1.37163 3.62745 -2.60021e-18)
(-1.36848 3.6146 -2.21865e-17)
(-1.36453 3.60116 -1.16011e-22)
(-1.36006 3.58762 1.31302e-18)
(-1.35528 3.57438 1.27206e-18)
(-1.3504 3.56177 1.27805e-18)
(-0.154306 1.0609 -7.89735e-23)
(-0.64122 1.33684 -7.94669e-20)
(-0.551642 1.45254 5.95911e-19)
(-0.605993 1.49873 1.29747e-19)
(-0.614427 1.53146 -3.30501e-19)
(-0.624901 1.55852 0)
(-0.634978 1.58599 -7.69676e-19)
(-0.645307 1.61516 6.49194e-19)
(-0.656236 1.64655 -8.25677e-19)
(-0.667908 1.68056 7.45832e-19)
(-0.680395 1.71752 -9.47714e-19)
(-0.693736 1.7577 1.89834e-18)
(-0.707951 1.8014 -9.51974e-19)
(-0.723066 1.84891 -3.41262e-18)
(-0.739111 1.90052 -4.82914e-18)
(-0.75612 1.95664 -2.66197e-18)
(-0.77412 2.01774 1.38958e-18)
(-0.793096 2.08441 4.96232e-18)
(-0.81303 2.15731 3.84132e-18)
(-0.833963 2.2371 -2.02335e-18)
(-0.856023 2.32435 -3.81808e-17)
(-0.879592 2.41972 5.30178e-18)