/*--------------------------------*- C++ -*----------------------------------*\
  =========                 |
  \\      /  F ield         | OpenFOAM: The Open Source CFD Toolbox
   \\    /   O peration     | Website:  https://openfoam.org
    \\  /    A nd           | Version:  10
     \\/     M anipulation  |
\*---------------------------------------------------------------------------*/
FoamFile
{
    format      ascii;
    class       volVectorField;
    location    "40000";
    object      Urel;
}
// * * * * * * * * * * * * * * * * * * * * * * * * * * * * * * * * * * * * * //

dimensions      [0 1 -1 0 0 0 0];

internalField   nonuniform List<vector> 
20625
(
(0.219403 -0.780278 0)
(-0.0807998 -0.360886 2.72877e-21)
(0.0145699 -0.242569 7.92394e-21)
(-0.00308337 -0.15499 -1.21163e-20)
(-0.00490379 -0.0978948 3.44237e-20)
(-0.00338455 -0.0591087 -6.70936e-20)
(0.000722221 -0.0265537 3.48186e-20)
(0.00864111 0.00611659 4.65573e-20)
(0.0208734 0.0415741 0)
(0.0381841 0.0816407 1.71897e-19)
(0.0613255 0.126782 -1.01954e-19)
(0.0885821 0.173645 0)
(0.115948 0.215603 0)
(0.1407 0.248171 0)
(0.161144 0.26941 0)
(0.176185 0.279219 0)
(0.1863 0.279863 0)
(0.192927 0.273429 0)
(0.196134 0.260961 0)
(0.196453 0.243449 0)
(0.194492 0.221625 0)
(0.190555 0.195938 0)
(0.184779 0.166543 1.50998e-18)
(0.177207 0.133433 3.83536e-20)
(0.167791 0.0965546 -3.31614e-19)
(0.157064 0.0576737 0)
(0.146085 0.0199297 -2.07547e-18)
(0.1354 -0.0152603 -2.44724e-18)
(0.125151 -0.0479348 0)
(0.11533 -0.0781633 0)
(0.105978 -0.105748 -7.48829e-19)
(0.097424 -0.129887 1.44932e-18)
(0.0897238 -0.150389 1.34581e-20)
(0.0825175 -0.168605 0)
(0.0755886 -0.185568 7.95069e-19)
(0.0690826 -0.201925 -2.35641e-18)
(0.0630405 -0.218217 1.56092e-18)
(0.0574981 -0.234815 0)
(0.0524841 -0.25189 3.83695e-19)
(0.0480082 -0.26943 3.70946e-19)
(0.04406 -0.287294 0)
(0.0406128 -0.305275 0)
(0.0376285 -0.32315 0)
(0.0350634 -0.340714 1.4964e-19)
(0.032872 -0.357793 0)
(0.0310084 -0.374255 0)
(0.0294306 -0.389998 9.83914e-19)
(0.0280995 -0.404956 -9.66223e-19)
(0.0269805 -0.419087 -2.65509e-20)
(0.026044 -0.432374 0)
(0.241161 -0.768405 0)
(-0.0744571 -0.357271 2.88441e-21)
(0.0209618 -0.238583 -8.34178e-21)
(-0.000740861 -0.152103 1.30476e-20)
(-0.00397652 -0.0988256 -1.15383e-19)
(-0.00404842 -0.0647636 1.20104e-19)
(-0.00171939 -0.0370675 1.76856e-19)
(0.00377576 -0.00982917 -5.20035e-19)
(0.0130783 0.019656 4.22361e-19)
(0.0268811 0.053323 -3.79627e-19)
(0.0462206 0.0925822 0)
(0.071452 0.13684 2.69027e-19)
(0.10016 0.181425 1.80443e-20)
(0.128002 0.219466 0)
(0.152683 0.247449 0)
(0.172744 0.264235 4.8969e-19)
(0.187332 0.270351 1.04423e-18)
(0.197178 0.268164 -4.80586e-19)
(0.203455 0.258915 -1.04771e-18)
(0.205969 0.243953 0)
(0.205499 0.22403 1.11459e-18)
(0.202558 0.199789 0)
(0.197417 0.171588 -1.24548e-18)
(0.190211 0.139533 -2.64989e-18)
(0.180927 0.103618 0)
(0.170152 0.0656178 -3.35503e-18)
(0.158966 0.0287009 -9.18679e-20)
(0.147958 -0.00576366 5.07532e-18)
(0.137325 -0.0377569 -2.81616e-18)
(0.127081 -0.0673184 0)
(0.11723 -0.0944005 3.20546e-18)
(0.107919 -0.118408 -3.03648e-18)
(0.0995397 -0.138733 7.59562e-19)
(0.0917824 -0.156383 -3.16116e-18)
(0.0843655 -0.172821 3.94345e-18)
(0.0774546 -0.18879 -2.44052e-18)
(0.0711208 -0.20485 8.18232e-19)
(0.0653984 -0.221383 3.28671e-18)
(0.0603111 -0.238559 -2.75097e-18)
(0.0558594 -0.25635 -3.84533e-19)
(0.0520195 -0.27459 2.96815e-18)
(0.0487495 -0.293044 -5.59363e-18)
(0.0459965 -0.31146 2.62468e-18)
(0.0437025 -0.329609 2.34639e-18)
(0.0418099 -0.347297 -4.81214e-18)
(0.0402632 -0.36437 -2.17769e-20)
(0.0390111 -0.380717 2.03207e-18)
(0.0380076 -0.396263 -1.85312e-18)
(0.0372128 -0.410958 1.74091e-18)
(0.0365931 -0.424781 -1.73232e-18)
(0.260213 -0.756062 0)
(-0.0686301 -0.352457 -5.82056e-21)
(0.0269346 -0.233801 0)
(0.00151511 -0.148783 0)
(-0.00260181 -0.0988469 -1.03522e-19)
(-0.00383158 -0.0685842 0)
(-0.00277597 -0.0448704 3.54027e-19)
(0.000964697 -0.0222299 1.69956e-19)
(0.00786713 0.00209218 -3.90523e-19)
(0.0185783 0.0299725 6.42937e-19)
(0.0340385 0.0630249 -4.72724e-19)
(0.0552741 0.101806 0)
(0.0823931 0.145 -1.38376e-18)
(0.112096 0.186729 4.79158e-19)
(0.140066 0.220561 5.51165e-19)
(0.164525 0.244201 -1.00147e-18)
(0.184147 0.256967 -5.35104e-19)
(0.198253 0.259891 0)
(0.207757 0.254983 1.11612e-18)
(0.213325 0.243193 -1.64759e-18)
(0.214963 0.225844 -1.72563e-18)
(0.213426 0.203545 0)
(0.209188 0.176856 0)
(0.202506 0.146075 2.76145e-18)
(0.193431 0.111289 0)
(0.182617 0.0742858 3.46746e-18)
(0.171199 0.0383178 0)
(0.159827 0.0046952 0)
(0.148725 -0.0265481 1.20036e-19)
(0.137944 -0.0553745 -3.10127e-18)
(0.127522 -0.0817899 0)
(0.117493 -0.10545 0)
(0.108247 -0.125664 -1.15009e-17)
(0.0997549 -0.142891 6.36923e-18)
(0.0918036 -0.158883 -3.4209e-18)
(0.0844325 -0.174551 1.51752e-17)
(0.0777765 -0.190471 -5.84952e-18)
(0.0718603 -0.207033 6.80547e-18)
(0.0666973 -0.224404 -2.33321e-18)
(0.0622777 -0.242538 1.18104e-19)
(0.0585633 -0.261243 -1.29593e-17)
(0.0554949 -0.280252 1.15963e-17)
(0.0530025 -0.299286 7.44287e-20)
(0.0510129 -0.318089 -5.45674e-18)
(0.0494542 -0.336448 1.51675e-19)
(0.0482599 -0.354195 4.85633e-18)
(0.0473694 -0.371204 3.86166e-20)
(0.0467291 -0.38739 1.57027e-19)
(0.0462934 -0.402698 -3.75739e-18)
(0.0460244 -0.4171 0)
(0.27932 -0.743489 -7.27247e-22)
(-0.0630616 -0.346866 1.72727e-19)
(0.0325144 -0.228512 -1.33014e-19)
(0.00362519 -0.145176 6.25418e-20)
(-0.00106371 -0.0981951 4.19784e-19)
(-0.00308461 -0.0712053 -2.68332e-19)
(-0.00288549 -0.0509644 0)
(-0.00030802 -0.0319726 0)
(0.00475136 -0.0118304 -2.56145e-19)
(0.0129215 0.0112219 4.50079e-19)
(0.0250251 0.0386652 4.92882e-20)
(0.0421032 0.0714961 -1.15304e-18)
(0.0650986 0.109737 1.13009e-18)
(0.0938741 0.151436 -5.70688e-19)
(0.124025 0.189704 0)
(0.151897 0.219277 1.6734e-18)
(0.176097 0.238849 -5.16154e-19)
(0.195165 0.248046 1.22212e-18)
(0.208726 0.248088 -3.40274e-18)
(0.21759 0.240594 3.53193e-20)
(0.222211 0.226425 0)
(0.222671 0.206703 3.89119e-18)
(0.219729 0.181993 -1.25597e-18)
(0.21382 0.152802 5.68082e-18)
(0.205082 0.119361 0)
(0.194259 0.0834958 1.87915e-18)
(0.182594 0.0486013 -2.17276e-18)
(0.170814 0.0159601 -1.13872e-17)
(0.159156 -0.0144336 1.28683e-17)
(0.147718 -0.0424482 -6.58238e-18)
(0.136601 -0.0680962 -1.96272e-19)
(0.125822 -0.0912201 -3.25819e-19)
(0.115646 -0.111194 3.18973e-18)
(0.106381 -0.128159 6.65146e-18)
(0.0978506 -0.143855 -6.87759e-18)
(0.0899944 -0.159331 -7.09363e-18)
(0.0830044 -0.175202 5.179e-18)
(0.0768926 -0.191882 -7.04952e-18)
(0.0716616 -0.209535 8.45469e-18)
(0.0672911 -0.228099 6.6579e-18)
(0.0637263 -0.247354 -5.477e-18)
(0.0608897 -0.267 6.0593e-18)
(0.0586924 -0.286731 -6.36558e-18)
(0.0570443 -0.306264 3.35681e-19)
(0.0558587 -0.325364 0)
(0.0550566 -0.343848 -2.96475e-19)
(0.0545671 -0.361576 0)
(0.0543286 -0.378455 -4.30861e-18)
(0.0542889 -0.394422 7.7801e-18)
(0.0544056 -0.409446 -3.78073e-18)
(0.29456 -0.730444 -6.66999e-24)
(-0.0580437 -0.340667 -1.30627e-19)
(0.0376153 -0.222838 1.00291e-19)
(0.00558141 -0.141572 -6.71838e-20)
(0.000597086 -0.0972373 4.59293e-19)
(-0.00185811 -0.0730959 8.42665e-20)
(-0.00222993 -0.0557004 -6.70458e-19)
(-0.000532487 -0.039675 -7.52632e-20)
(0.00322017 -0.0228498 1.6959e-19)
(0.00940599 -0.00367466 0)
(0.0188033 0.0190818 5.65534e-19)
(0.0322742 0.0464651 6.05248e-19)
(0.0508873 0.0790717 0)
(0.0756017 0.11658 7.4326e-19)
(0.105602 0.156146 -1.0252e-18)
(0.135731 0.19044 -3.43921e-18)
(0.163345 0.21592 1.25836e-18)
(0.187145 0.231766 -1.11351e-18)
(0.205514 0.237757 2.48021e-18)
(0.218325 0.235167 3.89041e-18)
(0.226226 0.225169 -3.78576e-18)
(0.229593 0.208722 -2.69945e-18)
(0.228532 0.186551 0)
(0.223763 0.159404 -7.57052e-18)
(0.215573 0.127626 1.5065e-18)
(0.204812 0.0930883 7.3458e-18)
(0.1929 0.0594092 0)
(0.180675 0.0278996 1.7485e-17)
(0.168397 -0.00150366 6.48139e-18)
(0.156214 -0.0286037 0)
(0.144286 -0.053402 -7.56243e-18)
(0.132683 -0.0758747 0)
(0.121577 -0.0955653 -1.48639e-17)
(0.111556 -0.112378 6.94689e-18)
(0.102443 -0.127895 6.67406e-21)
(0.0941002 -0.143275 0)
(0.0867743 -0.159185 0)
(0.0804717 -0.176071 0)
(0.0751883 -0.194097 -5.37547e-18)
(0.0708922 -0.213183 6.77303e-18)
(0.067511 -0.233076 0)
(0.0649459 -0.253445 1.25806e-17)
(0.0630875 -0.273951 -1.02727e-17)
(0.0618267 -0.294287 0)
(0.0610609 -0.314197 0)
(0.0606974 -0.33348 0)
(0.0606545 -0.351986 2.90597e-19)
(0.0608616 -0.369609 0)
(0.06126 -0.386282 -8.06882e-18)
(0.061802 -0.401968 7.94865e-18)
(0.310721 -0.717172 -6.63891e-22)
(-0.053226 -0.334217 7.95541e-20)
(0.0423057 -0.216791 -4.83358e-22)
(0.00752015 -0.138189 3.4324e-19)
(0.00234814 -0.096329 -1.63763e-19)
(-0.000356595 -0.074555 -4.88393e-19)
(-0.00104434 -0.0593957 0)
(9.31586e-05 -0.0457959 5.93764e-19)
(0.00289943 -0.0316166 -3.78122e-19)
(0.00762064 -0.0154968 0)
(0.0148961 0.0035144 1.26277e-18)
(0.0254331 0.026279 -2.44539e-18)
(0.0402202 0.0536313 0)
(0.0603859 0.085931 2.85024e-18)
(0.0867043 0.12239 -1.34058e-18)
(0.117256 0.159039 2.48957e-18)
(0.14699 0.189184 2.47472e-18)
(0.174227 0.210897 -1.14873e-18)
(0.197362 0.223301 1.36227e-18)
(0.214808 0.226359 -1.42327e-18)
(0.226531 0.221273 4.04497e-18)
(0.233387 0.208784 0)
(0.234775 0.190054 0)
(0.231742 0.165476 -3.32251e-18)
(0.224457 0.135792 -1.37506e-17)
(0.213903 0.102857 1.11897e-17)
(0.201766 0.0705711 0)
(0.189105 0.040339 -1.21677e-17)
(0.17619 0.0120905 1.42033e-17)
(0.163217 -0.0139715 0)
(0.150387 -0.0378383 0)
(0.137907 -0.0595865 -8.07527e-18)
(0.125911 -0.0789867 -1.50444e-19)
(0.115194 -0.095748 7.2569e-18)
(0.105527 -0.111177 3.72371e-18)
(0.0967143 -0.126533 0)
(0.0890606 -0.142558 0)
(0.0825831 -0.159733 0)
(0.0772751 -0.178223 1.29822e-17)
(0.0730919 -0.197922 -2.66022e-17)
(0.0699403 -0.218542 2.72223e-17)
(0.0676975 -0.239719 -1.28758e-17)
(0.0662312 -0.26108 -1.53929e-18)
(0.065412 -0.282291 1.1722e-17)
(0.0651199 -0.303079 8.10875e-19)
(0.0652479 -0.323222 1.05301e-19)
(0.0657024 -0.34256 -1.00063e-17)
(0.0664036 -0.360979 0)
(0.0672856 -0.378402 0)
(0.0682955 -0.394791 0)
(0.32494 -0.703726 0)
(-0.048716 -0.327633 -2.7426e-20)
(0.0465765 -0.210602 2.61522e-19)
(0.00939172 -0.134944 1.07958e-19)
(0.0041962 -0.0955573 5.44356e-20)
(0.00135233 -0.0758006 4.26793e-19)
(0.000523367 -0.0624849 -3.28185e-19)
(0.00131723 -0.0507899 -1.90589e-19)
(0.00346257 -0.0386705 0)
(0.00717422 -0.0249432 -5.88125e-19)
(0.0128522 -0.00884978 1.07821e-18)
(0.0210862 0.0102154 6.69831e-19)
(0.0327559 0.0330511 -1.41223e-18)
(0.0488857 0.0603302 0)
(0.0705593 0.0921508 -1.57553e-18)
(0.0981381 0.127066 1.31553e-18)
(0.128452 0.160124 -5.41144e-18)
(0.157604 0.186264 3.82845e-20)
(0.184295 0.204474 -3.99319e-20)
(0.206355 0.213692 -1.4961e-18)
(0.222488 0.213986 -1.93855e-19)
(0.232855 0.206413 -1.79815e-18)
(0.23797 0.191604 -4.02799e-19)
(0.236844 0.170473 1.61947e-17)
(0.231113 0.143481 1.32013e-19)
(0.221045 0.112536 -1.18238e-17)
(0.208771 0.0818679 -2.42514e-17)
(0.195768 0.0530608 -1.87524e-17)
(0.182245 0.0261512 -7.76415e-18)
(0.168465 0.00127045 1.61568e-17)
(0.154703 -0.0215708 2.5608e-17)
(0.14134 -0.0425766 2.13923e-19)
(0.128578 -0.0617088 -2.4872e-17)
(0.117257 -0.0784938 -5.72009e-19)
(0.107067 -0.0938786 1.52508e-17)
(0.0977985 -0.109253 0)
(0.0898284 -0.125461 1.59239e-17)
(0.0832043 -0.143013 -3.11208e-17)
(0.0779171 -0.162062 1.12566e-17)
(0.0739032 -0.182468 -1.67208e-17)
(0.0710436 -0.203906 -2.01153e-18)
(0.0691881 -0.225972 1.33998e-17)
(0.0681793 -0.248262 1.53307e-17)
(0.0678658 -0.27042 -1.28472e-17)
(0.0681095 -0.292148 1.08488e-17)
(0.0687883 -0.31321 1.10908e-19)
(0.0697963 -0.333433 -1.01908e-17)
(0.0710441 -0.352692 -9.67836e-18)
(0.0724585 -0.370907 1.84043e-17)
(0.0739813 -0.388032 6.08308e-20)
(0.341277 -0.689686 3.47127e-21)
(-0.0444505 -0.321089 -5.42682e-20)
(0.0504136 -0.204476 0)
(0.0112164 -0.131922 -2.18319e-19)
(0.00609045 -0.0950128 1.06397e-18)
(0.00324179 -0.0770014 -3.00305e-19)
(0.00238546 -0.0651456 0)
(0.00298422 -0.0549723 -4.77186e-19)
(0.00470621 -0.0444714 8.05333e-19)
(0.00773869 -0.0325842 -5.1491e-19)
(0.0122545 -0.018758 0)
(0.0187303 -0.0025543 2.84959e-18)
(0.0279427 0.0166353 1.60699e-18)
(0.0407535 0.0395464 0)
(0.058201 0.0666777 1.69138e-18)
(0.0812269 0.0977344 2.24684e-19)
(0.109469 0.130433 3.19205e-18)
(0.13898 0.159487 3.05959e-18)
(0.167383 0.182068 -9.87405e-18)
(0.193034 0.196967 -5.82593e-18)
(0.213587 0.203085 0)
(0.227853 0.200855 2.91917e-18)
(0.236627 0.190798 6.63007e-18)
(0.238379 0.17374 2.94792e-19)
(0.234843 0.150039 -7.26794e-18)
(0.225704 0.121723 3.94234e-18)
(0.213531 0.0928618 2.00687e-17)
(0.200246 0.0657555 6.0063e-18)
(0.186182 0.040411 7.33222e-18)
(0.171653 0.0168934 -1.70286e-17)
(0.157061 -0.00483583 -6.81625e-20)
(0.142959 -0.0251194 0)
(0.129616 -0.0440591 8.58526e-18)
(0.117724 -0.0609031 0)
(0.106972 -0.0761764 0)
(0.0972653 -0.0915815 0)
(0.0890167 -0.108048 0)
(0.0823102 -0.126076 0)
(0.0771224 -0.145784 3.95916e-18)
(0.0733616 -0.166992 0)
(0.070877 -0.189332 1.84215e-18)
(0.0694893 -0.212363 0)
(0.0690146 -0.235652 -1.67566e-18)
(0.0692795 -0.258816 7.95446e-19)
(0.0701271 -0.281539 0)
(0.07142 -0.30357 0)
(0.0730405 -0.324721 0)
(0.0748896 -0.344861 -1.02128e-17)
(0.0768869 -0.363902 9.54491e-18)
(0.0789688 -0.381794 -2.94021e-19)
(0.358323 -0.674951 3.73066e-21)
(-0.040649 -0.314456 -5.37475e-20)
(0.0538535 -0.198405 -3.75066e-19)
(0.0129552 -0.12935 1.35166e-18)
(0.00799137 -0.0947431 2.39808e-19)
(0.00528862 -0.0782021 -1.87687e-18)
(0.0045148 -0.0675316 7.17945e-19)
(0.00503035 -0.0585672 -8.23802e-19)
(0.00648288 -0.0493451 4.64328e-19)
(0.00901909 -0.038875 0)
(0.0126942 -0.0267986 -1.21459e-18)
(0.0178672 -0.0127928 -1.37925e-18)
(0.0251739 0.00357521 1.16582e-19)
(0.0353639 0.0229089 -1.52118e-18)
(0.0493067 0.0458671 0)
(0.0680066 0.0727137 1.79285e-18)
(0.0921231 0.102574 -6.45909e-18)
(0.120076 0.132316 1.43248e-18)
(0.148548 0.157591 1.04759e-17)
(0.175981 0.176856 1.04487e-17)
(0.199953 0.188483 -4.28799e-19)
(0.218268 0.191691 3.02279e-18)
(0.230727 0.186963 -1.38798e-17)
(0.236447 0.174631 -1.48033e-17)
(0.234958 0.155011 2.7099e-17)
(0.227561 0.129938 2.16346e-17)
(0.215681 0.103283 -5.42646e-18)
(0.202045 0.0780661 5.97658e-18)
(0.187583 0.0545052 -7.80212e-18)
(0.172536 0.0325449 8.42785e-18)
(0.157421 0.0119417 -3.68639e-17)
(0.142868 -0.00765247 -1.86418e-17)
(0.129043 -0.0262291 9.49e-18)
(0.116396 -0.0430381 -2.5876e-17)
(0.105029 -0.0582414 1.66971e-17)
(0.0950011 -0.0737297 0)
(0.0865817 -0.0905512 0)
(0.0799137 -0.109152 -1.70593e-17)
(0.0749451 -0.129608 1.63108e-17)
(0.0715475 -0.151695 1.61338e-17)
(0.0695386 -0.175004 -1.33148e-17)
(0.0687099 -0.199058 -1.48233e-17)
(0.0688529 -0.223397 1.21737e-17)
(0.0697722 -0.247615 -1.34276e-17)
(0.0712932 -0.271374 1.25992e-17)
(0.0732645 -0.294412 -7.51022e-19)
(0.0755567 -0.316529 1.14327e-17)
(0.0780616 -0.337582 -2.15224e-17)
(0.0806917 -0.357478 9.48719e-18)
(0.0833782 -0.376162 3.12432e-19)
(0.374996 -0.659593 -6.91536e-21)
(-0.0372323 -0.307899 1.05866e-19)
(0.0570222 -0.192505 -6.85654e-19)
(0.0146494 -0.127171 2.29449e-19)
(0.00998672 -0.0948021 9.90349e-19)
(0.00748032 -0.0795487 6.44613e-19)
(0.00684031 -0.0698147 -3.24231e-19)
(0.00732347 -0.0617473 4.23203e-19)
(0.00859553 -0.0535019 -1.53709e-18)
(0.0107485 -0.044129 -9.44032e-20)
(0.0137912 -0.0334069 1.25292e-18)
(0.0180078 -0.0211156 -1.1249e-19)
(0.0238757 -0.00690937 -2.37235e-19)
(0.0320277 0.00963421 1.59768e-18)
(0.0431923 0.0291033 0)
(0.0582335 0.0520481 0)
(0.0780507 0.0783781 3.51661e-18)
(0.10267 0.10648 -6.66313e-18)
(0.129617 0.13272 -6.47269e-18)
(0.156975 0.154758 -6.51282e-18)
(0.182741 0.170752 6.61128e-18)
(0.204294 0.179192 -2.07528e-17)
(0.220167 0.17964 1.46751e-17)
(0.229523 0.172676 4.11706e-18)
(0.231613 0.157841 -2.03693e-17)
(0.225968 0.136699 -5.03887e-18)
(0.214776 0.11292 5.13184e-18)
(0.201042 0.089631 6.54297e-18)
(0.186285 0.0679218 -7.11989e-18)
(0.171049 0.0476213 -3.49319e-17)
(0.155778 0.028299 3.76952e-17)
(0.140858 0.00961802 1.98456e-17)
(0.12642 -0.00834998 -1.01686e-17)
(0.113063 -0.0249771 1.80915e-17)
(0.101246 -0.0402583 -9.23842e-18)
(0.0910553 -0.0559714 8.64799e-18)
(0.0826266 -0.0732481 -8.89235e-18)
(0.0761472 -0.092498 -2.22033e-17)
(0.0715304 -0.113763 -3.76631e-19)
(0.0686123 -0.136777 1.65233e-17)
(0.0671814 -0.161094 1.42002e-17)
(0.067003 -0.186207 -1.72015e-17)
(0.0678441 -0.211627 1.48156e-17)
(0.0694901 -0.236926 -2.80484e-17)
(0.0717507 -0.261751 1.32725e-17)
(0.0744613 -0.285823 -1.27551e-17)
(0.0774814 -0.30893 1.19902e-17)
(0.0806938 -0.330921 0)
(0.084004 -0.351694 3.37764e-19)
(0.0873382 -0.371189 0)
(0.390494 -0.643737 0)
(-0.0340862 -0.301489 -2.12893e-19)
(0.0599383 -0.186831 -4.36873e-20)
(0.0162984 -0.125286 1.60893e-18)
(0.0119946 -0.0951795 -1.76055e-18)
(0.00968588 -0.0810902 -6.49464e-19)
(0.00918168 -0.0720851 -6.02564e-19)
(0.00966858 -0.0646446 7.76746e-19)
(0.0108259 -0.057115 0)
(0.0126772 -0.0486023 1.14461e-18)
(0.0152388 -0.0389306 0)
(0.0187405 -0.0279698 -2.83622e-18)
(0.0235341 -0.0154572 -1.6908e-18)
(0.0301128 -0.00105371 -2.55996e-19)
(0.0391019 0.0156575 5.47843e-18)
(0.0512001 0.0352563 0)
(0.0672521 0.0580752 -1.73221e-18)
(0.0879655 0.083477 5.58597e-18)
(0.112178 0.109139 -6.86487e-18)
(0.137868 0.132264 -3.66272e-18)
(0.163718 0.151123 -1.06859e-17)
(0.187041 0.163873 2.88617e-17)
(0.205698 0.169295 -1.50854e-17)
(0.217976 0.167326 0)
(0.223417 0.157829 4.57255e-18)
(0.22048 0.141461 -4.82663e-17)
(0.210655 0.121248 2.77975e-17)
(0.19723 0.100254 -6.72726e-18)
(0.182358 0.0802551 7.08855e-18)
(0.16707 0.0616814 3.38697e-17)
(0.151702 0.0439101 0)
(0.136455 0.02653 -2.0946e-17)
(0.121632 0.00938109 2.13984e-17)
(0.107841 -0.00708059 -2.92807e-17)
(0.0957897 -0.0225695 -9.40278e-18)
(0.0856251 -0.0386009 9.34341e-18)
(0.0773604 -0.0563947 -1.88651e-17)
(0.0712176 -0.0763355 2.27736e-17)
(0.0670796 -0.098437 -2.2699e-17)
(0.0647508 -0.122399 3.49271e-17)
(0.0639927 -0.147739 -1.6685e-17)
(0.0645454 -0.173921 1.83064e-17)
(0.0661562 -0.200433 -1.34218e-17)
(0.0685936 -0.226826 1.84693e-18)
(0.0716532 -0.252732 1.76224e-18)
(0.075158 -0.277855 4.17341e-23)
(0.0789571 -0.301972 -1.28464e-17)
(0.0829241 -0.324919 2.43031e-17)
(0.0869573 -0.346585 -6.32497e-19)
(0.0909776 -0.366903 -1.13517e-17)
(0.404239 -0.627561 -4.44941e-21)
(-0.0310618 -0.295387 -1.71612e-20)
(0.0625292 -0.181402 0)
(0.017865 -0.123687 1.82237e-19)
(0.0139365 -0.0958255 -4.39646e-19)
(0.0118141 -0.0827969 0)
(0.0114154 -0.0743662 9.26967e-19)
(0.0119191 -0.0673678 -7.80024e-19)
(0.012988 -0.0603493 9.1581e-20)
(0.0145976 -0.0525031 -1.055e-18)
(0.0167838 -0.0436531 1.29272e-18)
(0.0197328 -0.0337199 -1.53525e-18)
(0.0237107 -0.0225334 -2.34873e-19)
(0.0290817 -0.00980345 -3.70225e-18)
(0.0363454 0.00478944 -4.59106e-21)
(0.0461137 0.0216834 -1.85352e-18)
(0.0590884 0.0413507 3.99558e-18)
(0.0760853 0.0637843 -2.0803e-18)
(0.0969327 0.0877632 9.18663e-18)
(0.12016 0.11077 3.36901e-18)
(0.144606 0.130993 2.54068e-17)
(0.168157 0.146763 -3.01002e-17)
(0.188394 0.156482 2.72391e-17)
(0.203137 0.159218 3.89156e-18)
(0.210884 0.154836 3.54035e-17)
(0.210882 0.143538 2.01137e-17)
(0.203007 0.127573 -1.73166e-17)
(0.19048 0.109609 -6.39415e-18)
(0.175824 0.0914999 0)
(0.160493 0.0745461 3.41849e-17)
(0.145088 0.0584931 -1.87533e-17)
(0.129707 0.0425778 4.3467e-17)
(0.114815 0.0264191 -4.41387e-17)
(0.10092 0.0102793 -3.88061e-19)
(0.0889069 -0.0054447 1.02467e-17)
(0.0789512 -0.0218517 -2.90802e-17)
(0.0710206 -0.0401919 -2.71321e-19)
(0.0653556 -0.0608375 1.90393e-17)
(0.0618134 -0.0837786 -9.64264e-18)
(0.0601711 -0.108681 3.66286e-17)
(0.0601663 -0.135033 -2.19353e-17)
(0.0615194 -0.162273 -4.24765e-18)
(0.0639608 -0.18987 -1.6414e-17)
(0.0672448 -0.217357 1.35542e-17)
(0.0711541 -0.244348 1.12811e-17)
(0.0755003 -0.270531 -1.32944e-17)
(0.0801222 -0.295668 0)
(0.0848844 -0.319581 0)
(0.0896781 -0.34215 1.54143e-18)
(0.0944186 -0.363301 0)
(0.416332 -0.611422 6.64784e-22)
(-0.028287 -0.289375 1.22935e-19)
(0.064737 -0.176177 0)
(0.0193033 -0.122342 -1.83606e-19)
(0.0157939 -0.0966809 4.33054e-19)
(0.0138245 -0.0846232 4.23988e-19)
(0.0134811 -0.0766508 -9.10843e-19)
(0.0139755 -0.0699705 3.44633e-19)
(0.0149489 -0.0633192 9.82149e-19)
(0.0163508 -0.0559857 1.13631e-18)
(0.0182215 -0.0477866 -1.28155e-18)
(0.0207195 -0.0386544 2.82429e-18)
(0.0240445 -0.0284941 0)
(0.0284695 -0.0170886 1.82742e-18)
(0.0343681 -0.00415189 -5.45173e-18)
(0.0422672 0.0106208 -2.17784e-18)
(0.0527834 0.0276733 -6.39458e-18)
(0.0665998 0.0472852 0)
(0.084033 0.0690082 1.22215e-17)
(0.104454 0.0910616 -7.30414e-18)
(0.126688 0.111554 -3.74899e-18)
(0.149172 0.129047 1.58203e-17)
(0.169709 0.14199 -3.25959e-17)
(0.185966 0.149044 -4.57473e-18)
(0.195541 0.149161 3.98171e-18)
(0.197602 0.14296 -4.65525e-17)
(0.191927 0.131499 -6.11121e-19)
(0.180767 0.11708 -1.36858e-17)
(0.166715 0.101422 3.93265e-17)
(0.151589 0.0861125 -3.30201e-17)
(0.136223 0.0717619 5.12017e-19)
(0.120985 0.0574009 2.13008e-17)
(0.106232 0.0423583 0)
(0.0925243 0.0266956 -4.11579e-19)
(0.080831 0.0108372 9.6908e-18)
(0.0712729 -0.0059396 4.12076e-17)
(0.0638469 -0.0248157 -4.07087e-17)
(0.058792 -0.0461454 -1.03783e-17)
(0.0559488 -0.0698953 -5.39913e-18)
(0.0550752 -0.095703 -5.19667e-18)
(0.0558906 -0.123032 2.7728e-17)
(0.0581002 -0.151302 1.20867e-21)
(0.0614211 -0.179961 0)
(0.0655957 -0.208527 1.66276e-17)
(0.0703957 -0.236595 2.16471e-18)
(0.075622 -0.263837 -1.31987e-17)
(0.0811035 -0.289998 0)
(0.0866956 -0.314885 0)
(0.0922816 -0.338366 -1.493e-17)
(0.0977709 -0.360354 1.30795e-17)
(0.425834 -0.595704 7.86414e-23)
(-0.0260742 -0.283212 -1.26185e-19)
(0.0666405 -0.171091 -6.61301e-19)
(0.0206056 -0.121206 6.15616e-19)
(0.0175535 -0.0976669 4.26159e-19)
(0.0156829 -0.0864947 -4.11364e-19)
(0.0153383 -0.078901 -8.88061e-19)
(0.0157781 -0.0724601 6.73621e-19)
(0.016626 -0.0660837 8.69004e-19)
(0.0178229 -0.0591517 9.36248e-20)
(0.0194027 -0.0514759 -1.14171e-18)
(0.0214998 -0.0429856 1.05333e-19)
(0.0242699 -0.0336258 -2.76421e-18)
(0.0279205 -0.0232574 1.8782e-21)
(0.0327464 -0.0116458 7.17612e-18)
(0.039129 0.00146847 -5.80439e-18)
(0.0476451 0.0164153 3.65807e-20)
(0.0589055 0.0335684 0)
(0.0733086 0.0529481 -8.54784e-18)
(0.0908067 0.0734484 0)
(0.110548 0.0935055 -3.29364e-17)
(0.131171 0.111717 4.41456e-18)
(0.150937 0.126766 2.99313e-17)
(0.167603 0.137312 4.71418e-18)
(0.178696 0.141738 -4.19732e-17)
(0.181681 0.13994 2.87817e-19)
(0.178017 0.13294 0)
(0.168421 0.122374 5.64415e-17)
(0.155338 0.109613 -3.1632e-17)
(0.140645 0.0962564 -1.66604e-17)
(0.12552 0.0835653 -3.81436e-17)
(0.110668 0.070796 -5.68927e-19)
(0.0962871 0.0569859 0)
(0.082995 0.0419154 -2.22639e-17)
(0.0718131 0.0260324 -2.1972e-17)
(0.0628417 0.00894856 4.30196e-17)
(0.0560848 -0.0104081 1.07872e-17)
(0.0517573 -0.0323641 2.15471e-17)
(0.0496999 -0.056862 -2.58124e-17)
(0.0496608 -0.0835146 -1.0335e-17)
(0.0513475 -0.111765 1.9425e-17)
(0.0544548 -0.141016 1.15967e-21)
(0.0586905 -0.1707 -1.83473e-17)
(0.063788 -0.200318 1.74118e-17)
(0.0695093 -0.229448 1.69474e-17)
(0.0756455 -0.257741 -3.43895e-17)
(0.0820151 -0.284923 1.44694e-17)
(0.0884642 -0.310786 1.48999e-17)
(0.0948677 -0.33518 -1.32305e-17)
(0.101129 -0.358009 8.80346e-19)
(0.433408 -0.580366 2.40418e-22)
(-0.024486 -0.277112 2.30867e-20)
(0.0683826 -0.166219 5.65588e-19)
(0.0217899 -0.120217 -6.19983e-19)
(0.019202 -0.0986823 -1.36476e-18)
(0.0173615 -0.0883297 7.02893e-19)
(0.0169593 -0.0810685 8.62514e-19)
(0.0172924 -0.0748234 -1.13769e-18)
(0.0179716 -0.0686687 9.98256e-19)
(0.0189448 -0.0620593 -1.04936e-18)
(0.0202322 -0.054811 -1.89089e-19)
(0.0219449 -0.0468512 2.60298e-18)
(0.024214 -0.0381402 4.36294e-18)
(0.0272071 -0.0285938 0)
(0.0311587 -0.0180396 0)
(0.0363664 -0.00624995 1.33089e-17)
(0.043278 0.00701984 6.48151e-18)
(0.0524498 0.0221211 6.5687e-18)
(0.064335 0.0392969 -6.86218e-18)
(0.0790789 0.0580084 4.72032e-18)
(0.0962523 0.0771365 -3.97364e-18)
(0.114706 0.0954081 2.19913e-17)
(0.132966 0.111632 -1.71339e-17)
(0.149118 0.12469 -4.26364e-18)
(0.16089 0.132995 5.10724e-18)
(0.164644 0.135058 3.80295e-17)
(0.16224 0.132244 -6.62293e-18)
(0.154122 0.125522 -2.19678e-17)
(0.142158 0.115917 -3.20913e-17)
(0.128112 0.104823 3.52106e-17)
(0.113495 0.0937505 5.24282e-19)
(0.0991315 0.0826111 -2.03294e-17)
(0.0853164 0.0701109 0)
(0.0726651 0.0557775 2.22764e-17)
(0.0622019 0.0399857 0)
(0.0539547 0.0226843 -1.12545e-17)
(0.0479956 0.00293576 3.43911e-17)
(0.0444885 -0.0195581 -3.33497e-17)
(0.0432784 -0.0447169 2.76991e-17)
(0.0441173 -0.0721313 -2.6492e-17)
(0.0467068 -0.101229 -5.17665e-18)
(0.050736 -0.131397 1.00048e-17)
(0.0559069 -0.162056 0)
(0.0619464 -0.192689 -1.87496e-17)
(0.0686082 -0.222855 3.36358e-17)
(0.0756736 -0.252184 -1.92981e-17)
(0.0829512 -0.280381 -1.0337e-18)
(0.0902772 -0.307217 1.69207e-17)
(0.0975179 -0.332525 -1.51363e-17)
(0.104569 -0.356195 1.42446e-17)
(0.440218 -0.565255 2.4585e-23)
(-0.0233139 -0.270822 -6.73359e-20)
(0.0699123 -0.161551 7.01254e-19)
(0.0228859 -0.119345 2.55666e-19)
(0.0207064 -0.0996202 -7.02794e-19)
(0.0188267 -0.0900429 3.88071e-19)
(0.0183127 -0.083107 -3.78008e-19)
(0.0184847 -0.0770387 1.63568e-18)
(0.0189695 -0.0710824 -1.65396e-18)
(0.0196838 -0.064745 8.32261e-20)
(0.0206647 -0.0578538 -3.30153e-18)
(0.0219986 -0.0503423 -1.30237e-18)
(0.0238027 -0.0421786 -2.65253e-18)
(0.0262246 -0.0333072 0)
(0.0294549 -0.0236084 0)
(0.0337468 -0.0129003 -8.98915e-18)
(0.0394137 -0.000955794 -2.69289e-19)
(0.0468947 0.01249 -3.28397e-19)
(0.0566907 0.027729 2.19772e-18)
(0.0690114 0.0446395 1.35286e-17)
(0.0836815 0.0625304 2.26783e-17)
(0.0998755 0.080399 -1.83085e-17)
(0.116315 0.0971722 0)
(0.131272 0.111868 5.02448e-18)
(0.142872 0.123249 -4.57954e-18)
(0.147408 0.129203 0)
(0.145552 0.129639 0)
(0.138636 0.126696 -7.6317e-18)
(0.127768 0.120357 4.05758e-17)
(0.114557 0.111764 -3.55735e-17)
(0.100545 0.102381 0)
(0.0867137 0.0927955 0)
(0.0736477 0.0816577 0)
(0.0619018 0.0681642 -4.44852e-17)
(0.0523653 0.0526055 -3.84831e-19)
(0.0449327 0.0352017 -1.14625e-17)
(0.0398382 0.0151823 -1.18663e-17)
(0.0372024 -0.00774236 2.39478e-17)
(0.0368729 -0.0334579 -4.63312e-17)
(0.0386096 -0.0615361 2.23327e-17)
(0.0421137 -0.091392 5.47314e-18)
(0.0470721 -0.122403 -1.08386e-21)
(0.0531843 -0.153976 -2.06605e-17)
(0.0601722 -0.185579 3.95997e-17)
(0.0677822 -0.216747 -3.57432e-17)
(0.0757867 -0.247091 3.66871e-17)
(0.0839846 -0.276291 -1.75725e-17)
(0.0922013 -0.304097 -2.12329e-18)
(0.100294 -0.330319 -1.02003e-18)
(0.108146 -0.354829 0)
(0.446023 -0.550356 0)
(-0.0225168 -0.264398 0)
(0.071186 -0.157034 1.22262e-19)
(0.0238832 -0.11848 8.83306e-19)
(0.0220405 -0.100385 -2.00114e-18)
(0.0200569 -0.0915551 1.13568e-18)
(0.0193708 -0.0849806 -2.90858e-19)
(0.0193405 -0.0790904 4.77961e-22)
(0.0196018 -0.0733079 8.14671e-19)
(0.0200429 -0.0672309 1.88675e-18)
(0.020699 -0.0606581 -9.28785e-19)
(0.0216665 -0.053536 2.51585e-21)
(0.0230469 -0.045845 0)
(0.0249685 -0.0375469 0)
(0.0275923 -0.0285559 1.58404e-18)
(0.0311297 -0.0187339 -1.53927e-18)
(0.0358289 -0.00788019 -7.41871e-18)
(0.0419955 0.00425095 -1.45081e-17)
(0.0500548 0.0178955 7.07594e-18)
(0.0603046 0.0331241 -1.90056e-17)
(0.0726665 0.0496535 -1.39229e-17)
(0.0866295 0.0668011 -4.44731e-18)
(0.101116 0.0836655 5.09792e-18)
(0.114574 0.0993893 -4.54662e-18)
(0.125338 0.11301 5.34569e-18)
(0.13027 0.122267 -5.21065e-18)
(0.128836 0.125962 6.81373e-18)
(0.122648 0.126194 2.24552e-17)
(0.112809 0.123069 -8.58554e-18)
(0.100441 0.117097 4.47974e-17)
(0.0870798 0.109571 0)
(0.0739501 0.101355 0)
(0.061752 0.0915015 0)
(0.0511713 0.0789136 -4.27694e-19)
(0.0425943 0.0638638 2.15268e-17)
(0.036012 0.0465157 4.634e-17)
(0.0318103 0.0263498 2.47678e-17)
(0.0300644 0.00310703 -2.46319e-17)
(0.0306292 -0.0230541 -2.47473e-17)
(0.0332671 -0.0516902 2.95725e-17)
(0.0376824 -0.0822076 -5.79727e-18)
(0.0435638 -0.113977 -2.83048e-17)
(0.0506107 -0.146395 2.16207e-17)
(0.0585417 -0.178912 2.1157e-17)
(0.0670976 -0.211044 -1.76094e-17)
(0.0760433 -0.242378 -1.72138e-17)
(0.0851667 -0.272569 1.87881e-17)
(0.0942829 -0.301337 -1.60162e-17)
(0.103234 -0.328472 3.6199e-17)
(0.111897 -0.35382 -1.75029e-17)
(0.451046 -0.535548 -6.43205e-24)
(-0.0220835 -0.257766 0)
(0.0722312 -0.152676 -1.25108e-19)
(0.0247657 -0.117555 -8.87878e-19)
(0.0232008 -0.100911 1.46542e-18)
(0.0210569 -0.0927975 3.69851e-19)
(0.0201477 -0.0866166 -4.37468e-19)
(0.019864 -0.0809595 7.38335e-19)
(0.0198555 -0.0753463 -7.09216e-19)
(0.020008 -0.0694972 -8.40629e-19)
(0.020355 -0.0632332 1.9271e-18)
(0.020991 -0.0564724 1.09886e-18)
(0.0220022 -0.0492043 -1.20197e-18)
(0.023492 -0.041409 2.27879e-18)
(0.0255939 -0.0330238 3.98901e-18)
(0.0284923 -0.0239386 -6.10472e-18)
(0.032392 -0.0139919 6.91e-18)
(0.0375191 -0.00294942 9.90757e-18)
(0.0441782 0.00941883 -1.08388e-17)
(0.0526708 0.023206 -1.89927e-17)
(0.0630043 0.0383831 3.3655e-17)
(0.0748469 0.0546187 2.4131e-17)
(0.087369 0.0712446 -1.96926e-17)
(0.0991951 0.0875397 0)
(0.108793 0.102753 4.08811e-17)
(0.113642 0.114689 0)
(0.112497 0.121372 0)
(0.106795 0.124569 -6.76132e-17)
(0.0975515 0.124237 8.02195e-18)
(0.0861348 0.120985 -3.62971e-17)
(0.0736314 0.115387 1.86684e-17)
(0.0613309 0.108447 1.95741e-17)
(0.0501415 0.0996796 0)
(0.0406597 0.088079 0)
(0.0329543 0.0737205 0)
(0.0272925 0.0566302 -2.37998e-17)
(0.0240169 0.036448 0)
(0.0231816 0.0130126 -1.30306e-17)
(0.0246499 -0.0134754 2.61564e-17)
(0.0281843 -0.0425536 -3.12939e-17)
(0.0334981 -0.0736253 0)
(0.0402855 -0.106059 -2.40903e-17)
(0.0482496 -0.139244 2.87328e-17)
(0.057108 -0.172613 0)
(0.0665993 -0.205664 -2.43915e-17)
(0.0764802 -0.237959 2.07625e-17)
(0.086529 -0.269122 2.03049e-17)
(0.0965461 -0.298846 -2.27684e-18)
(0.106362 -0.32689 -1.8821e-17)
(0.115839 -0.353076 0)
(0.455489 -0.520802 -7.33282e-23)
(-0.0219147 -0.251101 -6.2104e-20)
(0.073122 -0.148529 0)
(0.0255087 -0.116484 0)
(0.0241812 -0.101156 -3.86273e-19)
(0.0218469 -0.0937288 -1.17089e-18)
(0.0206884 -0.087952 2.80034e-19)
(0.0201074 -0.0825832 1.52181e-18)
(0.0197921 -0.0772017 -6.9779e-19)
(0.0196524 -0.0715793 0)
(0.019717 -0.06559 0)
(0.020046 -0.0591639 0)