/*--------------------------------*- C++ -*----------------------------------*\
  =========                 |
  \\      /  F ield         | OpenFOAM: The Open Source CFD Toolbox
   \\    /   O peration     | Website:  https://openfoam.org
    \\  /    A nd           | Version:  10
     \\/     M anipulation  |
\*---------------------------------------------------------------------------*/
FoamFile
{
    format      ascii;
    class       volScalarField;
    location    "40000";
    object      yPlus;
}
// * * * * * * * * * * * * * * * * * * * * * * * * * * * * * * * * * * * * * //

dimensions      [0 0 0 0 0 0 0];

internalField   uniform 0;

boundaryField
{
    right
    {
        type            cyclic;
    }
    left
    {
        type            cyclic;
    }
    outerWall
    {
        type            calculated;
        value           nonuniform List<scalar> 
175
(
58.0289
57.9194
57.8267
57.753
57.6994
57.6663
57.6541
57.6635
57.6952
57.7502
57.8276
57.9258
58.0458
58.1886
58.355
58.5455
58.7607
59.0009
59.2663
59.5571
59.8733
60.2143
60.5796
60.9685
61.38
61.8127
62.2661
62.7376
63.2179
63.6842
64.0902
64.3587
64.3525
63.8828
63.0744
62.4362
61.9239
61.4079
60.85
60.2855
59.7471
59.2562
58.8362
58.5026
58.2665
58.1431
58.1453
58.256
58.4577
58.7296
59.0632
59.4491
59.8751
60.329
60.8137
61.3375
61.8868
62.4504
63.019
63.5854
64.1434
64.6888
65.2145
65.6819
66.0084
66.0816
65.81
65.1575
64.1706
62.9073
61.5874
59.778
58.6966
58.4407
58.6864
60.4404
60.2937
60.3601
60.5403
60.7175
60.8121
60.836
60.8006
60.7184
60.5997
60.4535
60.2868
60.1058
59.916
59.7217
59.5264
59.3331
59.147
58.9769
58.8218
58.6812
58.5531
58.4372
58.3328
58.1631
59.138
59.6697
60.1888
60.6274
60.9756
61.2538
61.4866
61.6794
61.8299
61.9399
62.0249
62.0856
62.118
62.129
62.1241
62.1061
62.0764
62.0376
61.9994
61.9687
61.9426
61.9195
61.9006
61.8831
61.8664
61.8503
61.8365
61.8264
61.8216
61.8189
61.8158
61.8107
61.8035
61.8082
61.8389
61.883
61.9331
61.9849
62.0354
62.0749
62.1069
62.1322
62.1525
62.1676
62.1791
62.1861
62.19
62.1898
62.187
62.1803
62.1706
62.1573
62.141
62.1216
62.0995
62.0746
62.0473
62.0174
61.9854
61.951
61.9149
61.8765
61.8368
61.7951
61.7523
61.7079
61.663
61.6168
61.5711
61.5243
61.4804
61.4354
61.3953
61.3487
60.8141
)
;
    }
    stirrerWall
    {
        type            calculated;
        value           nonuniform List<scalar> 
275
(
25.0958
25.1861
25.2754
25.3652
25.4562
25.5499
25.6528
25.7955
25.9118
26.0241
26.138
26.2598
26.3804
26.5007
26.623
26.7486
26.8782
27.0125
27.1518
27.2958
27.4445
27.5977
27.7551
27.9158
28.0784
28.2423
28.4074
28.5745
28.7442
28.9157
29.0883
29.2614
29.4341
29.6068
29.7781
29.9491
30.1188
30.2869
30.4549
30.6211
30.7882
30.953
31.1179
31.282
31.445
31.6054
31.758
31.9066
32.0494
32.1853
32.3225
32.4658
32.6039
32.7356
32.8622
32.9909
33.1228
33.2469
33.3604
33.4606
33.5492
33.6202
33.6736
33.7046
33.71
33.6807
33.6004
33.4418
33.1629
32.6937
31.9052
30.4165
27.1015
18.1689
1.7036
1.7036
0.783985
0.0923249
0.145364
0.0389404
0.0481731
0.0303173
0.029824
0.0313791
0.0399681
0.0572453
0.0779257
0.0999106
0.114324
0.0967343
0.0785735
0.076488
0.0932989
0.127339
0.164121
0.205273
0.260255
0.33041
0.420967
0.534799
0.673476
0.818511
0.957255
1.07747
1.17891
1.26735
1.34979
1.41952
1.4727
1.51442
1.5428
1.5504
1.52872
1.49299
1.44599
1.39721
1.35352
1.32959
1.32409
1.3513
1.44563
1.59603
1.95974
2.90976
12.3325
55.3559
67.8508
76.5863
80.3048
80.6131
80.1937
79.5759
78.9722
78.4478
77.9939
77.5776
77.1859
76.8095
76.4425
76.0825
75.7315
75.3944
75.0654
74.7488
74.4664
74.2536
74.169
74.1666
74.2377
74.1839
7.62362
6.25317
4.62136
3.28066
2.36626
1.92318
1.6462
1.47486
1.36173
1.31184
1.38204
1.17117
0.366422
0.0713653
0.15074
0.317772
0.625284
0.985633
0.454366
0.228905
0.211377
0.343919
0.565689
1.89874
6.52884
9.55209
8.38071
7.60843
7.32708
7.27647
7.41539
7.70454
8.10933
8.61057
9.20242
9.88644
10.5496
11.1134
11.5031
11.5903
12.0683
12.5809
13.1234
13.7052
14.3799
15.282
16.202
17.5152
19.0629
21.059
7.62362
27.0006
30.8129
29.5331
28.6932
28.1092
27.6299
27.24
26.9142
26.6382
26.4007
26.1925
26.0071
25.8371
25.6797
25.5542
25.4431
25.3462
25.2681
25.1999
25.1349
25.0763
25.0246
24.9802
24.9431
24.9135
24.8917
24.878
24.8734
24.8798
24.9019
24.942
24.9876
25.0373
25.0934
25.1556
25.225
25.3017
25.3845
25.4729
25.566
25.6629
25.7612
25.8589
25.9535
26.0423
26.1227
26.1923
26.2489
26.292
26.3256
26.3516
26.3683
26.373
26.3582
26.3216
26.262
26.1774
26.0665
25.9339
25.7816
25.6162
25.4421
25.2635
25.0894
24.9315
24.8073
24.7389
24.7208
24.729
24.7524
24.7893
24.843
24.9161
25.0037
)
;
    }
    top
    {
        type            empty;
    }
    bottom
    {
        type            empty;
    }
}


// ************************************************************************* //
