/*--------------------------------*- C++ -*----------------------------------*\
  =========                 |
  \\      /  F ield         | OpenFOAM: The Open Source CFD Toolbox
   \\    /   O peration     | Website:  https://openfoam.org
    \\  /    A nd           | Version:  10
     \\/     M anipulation  |
\*---------------------------------------------------------------------------*/
FoamFile
{
    format      ascii;
    class       volVectorField;
    location    "13000";
    object      Urel;
}
// * * * * * * * * * * * * * * * * * * * * * * * * * * * * * * * * * * * * * //

dimensions      [0 1 -1 0 0 0 0];

internalField   nonuniform List<vector> 
17969
(
(0.151971 -0.130255 0)
(-0.0273007 -0.0475028 0)
(-0.00213644 -0.0284334 -2.10224e-17)
(0.0023038 -0.0138141 3.67807e-17)
(0.00315045 0.0027552 -1.4146e-17)
(0.00442714 0.020625 -1.03739e-17)
(0.00650372 0.0397682 7.78273e-18)
(0.00914778 0.0592984 0)
(0.0119054 0.0774638 3.15584e-19)
(0.014383 0.0924756 0)
(0.0163685 0.103556 0)
(0.0179425 0.111343 0)
(0.019172 0.116669 0)
(0.0200937 0.120147 -2.0673e-18)
(0.0207757 0.122325 1.87645e-18)
(0.0212853 0.123632 0)
(0.0216747 0.124364 -1.29931e-18)
(0.0219811 0.124712 1.13412e-18)
(0.0222298 0.124796 -9.93764e-19)
(0.0224381 0.124692 8.85317e-19)
(0.0226172 0.124448 0)
(0.0227747 0.124095 0)
(0.0229158 0.123654 -8.17431e-20)
(0.0230438 0.123138 0)
(0.0231611 0.122558 0)
(0.0232693 0.121918 5.15632e-19)
(0.0233693 0.121225 -9.66184e-19)
(0.0234618 0.120479 4.54735e-19)
(0.0235471 0.119683 4.26854e-19)
(0.0236254 0.118839 -5.25705e-20)
(0.0236965 0.117947 -4.81384e-19)
(0.0237604 0.117007 0)
(0.0238169 0.116019 3.48082e-19)
(0.0238656 0.114983 -7.5087e-19)
(0.0239062 0.113899 1.86649e-21)
(0.0239384 0.112767 6.13369e-19)
(0.0239617 0.111585 -2.95583e-19)
(0.0239757 0.110354 -3.53381e-19)
(0.0239802 0.109073 2.05618e-19)
(0.0239745 0.107741 0)
(0.0239584 0.106358 6.34528e-20)
(0.0239315 0.104923 6.1246e-20)
(0.0238933 0.103435 4.71145e-19)
(0.0238436 0.101895 -4.59006e-19)
(0.023782 0.1003 -4.39855e-19)
(0.0237082 0.0986516 -1.0289e-19)
(0.0236218 0.0969475 4.15124e-19)
(0.0235226 0.0951873 3.97619e-19)
(0.0234104 0.0933703 -4.07502e-21)
(0.0232848 0.0914954 -3.76132e-19)
(0.0231456 0.0895616 -4.50355e-19)
(0.0229926 0.0875678 4.39897e-19)
(0.0228256 0.0855129 0)
(0.0226443 0.0833953 0)
(0.0224484 0.0812137 7.92995e-20)
(0.0222377 0.0789663 4.57819e-19)
(0.022012 0.0766513 -2.98879e-19)
(0.021771 0.0742666 0)
(0.0215143 0.0718099 0)
(0.0212415 0.0692787 1.31399e-19)
(0.0209523 0.0666701 -2.61169e-19)
(0.0206462 0.063981 0)
(0.0203226 0.0612076 0)
(0.0199809 0.0583462 -1.16326e-19)
(0.0196202 0.0553921 -2.21482e-19)
(0.0192398 0.0523402 1.1371e-19)
(0.0188386 0.0491848 2.10947e-19)
(0.0184154 0.0459193 0)
(0.0179689 0.0425363 0)
(0.0174974 0.0390272 0)
(0.0169993 0.0353819 1.7405e-19)
(0.0164721 0.0315891 -1.02394e-20)
(0.0159141 0.027635 -3.32112e-19)
(0.0153271 0.0235039 0)
(0.0147172 0.0192396 1.45471e-19)
(0.0140933 0.0149526 1.35753e-19)
(0.0134651 0.0106974 -1.25957e-19)
(0.0128379 0.00646646 0)
(0.0122137 0.00225249 0)
(0.0115943 -0.00195105 0)
(0.0109817 -0.00614967 0)
(0.0103789 -0.0103481 0)
(0.00978899 -0.0145491 1.48968e-19)
(0.00921473 -0.0187529 -2.45992e-19)
(0.00865878 -0.0229569 1.642e-19)
(0.00812346 -0.0271566 -2.87782e-20)
(0.00761092 -0.0313469 0)
(0.00712313 -0.0355218 0)
(0.00666191 -0.0396753 0)
(0.00622883 -0.0438009 -4.96417e-20)
(0.00582516 -0.047892 6.51824e-20)
(0.00545187 -0.0519423 4.96883e-20)
(0.00510961 -0.0559454 -4.79232e-20)
(0.0047987 -0.0598952 3.44333e-20)
(0.00451914 -0.0637862 -6.46512e-20)
(0.00427057 -0.0676132 2.36282e-20)
(0.00405234 -0.0713715 0)
(0.0038643 -0.075057 -1.07574e-20)
(0.00370765 -0.0786663 1.0329e-20)
(0.00357666 -0.0821975 4.88456e-22)
(0.154205 -0.12642 0)
(-0.0265732 -0.04935 -4.11122e-17)
(-0.00120038 -0.032616 4.20113e-17)
(0.00223521 -0.0202722 1.12538e-18)
(0.00236912 -0.00657641 5.71263e-17)
(0.00292131 0.00770821 -8.62125e-17)
(0.00419342 0.0232551 3.39445e-17)
(0.00611477 0.0403101 2.78556e-17)
(0.00849873 0.058073 -2.35757e-17)
(0.0110445 0.0750077 -1.98066e-17)
(0.013434 0.0894631 3.69619e-20)
(0.0154149 0.100437 1.30337e-17)
(0.0170347 0.108385 0)
(0.0183649 0.114038 0)
(0.0194028 0.117886 -8.46988e-18)
(0.0202024 0.120391 7.44069e-18)
(0.0208196 0.121949 0)
(0.0213023 0.122862 -5.39865e-18)
(0.0216885 0.123336 4.88308e-18)
(0.022006 0.123505 0)
(0.0222742 0.123458 -3.69949e-18)
(0.0225065 0.123252 3.12198e-18)
(0.0227121 0.122924 9.39128e-20)
(0.0228971 0.122498 0)
(0.0230661 0.121991 2.50872e-18)
(0.0232219 0.121413 -1.5475e-19)
(0.0233667 0.120774 -4.31277e-18)
(0.0235018 0.120077 2.01766e-18)
(0.0236282 0.119326 -1.1803e-19)
(0.0237463 0.118524 1.82905e-18)
(0.0238566 0.117672 -1.57917e-18)
(0.0239592 0.11677 0)
(0.024054 0.11582 1.32047e-18)
(0.024141 0.114822 -1.1761e-18)
(0.0242198 0.113775 0)
(0.0242904 0.112679 1.64804e-19)
(0.0243523 0.111533 -1.57943e-19)
(0.0244052 0.110338 -1.13262e-18)
(0.0244488 0.109093 2.40285e-18)
(0.0244827 0.107796 -1.48129e-19)
(0.0245065 0.106449 -1.15066e-18)
(0.0245199 0.105049 -1.23104e-18)
(0.0245225 0.103596 2.00597e-18)
(0.024514 0.10209 -2.17766e-18)
(0.0244939 0.10053 1.86869e-18)
(0.0244621 0.0989145 -7.93779e-19)
(0.0244181 0.0972436 8.67633e-19)
(0.0243617 0.0955162 -1.89573e-18)
(0.0242927 0.0937313 1.62871e-18)
(0.0242107 0.091888 -1.57449e-18)
(0.0241155 0.0899853 6.70275e-19)
(0.0240069 0.088022 -9.19572e-20)
(0.0238846 0.085997 0)
(0.0237485 0.083909 0)
(0.0235983 0.0817563 -8.30947e-20)
(0.0234338 0.0795375 -1.60638e-19)
(0.0232547 0.0772507 6.16355e-19)
(0.0230608 0.074894 -9.05364e-19)
(0.0228518 0.0724651 -1.14963e-18)
(0.0226274 0.0699616 1.60391e-19)
(0.0223871 0.0673807 1.09167e-18)
(0.0221307 0.0647195 1.2938e-18)
(0.0218576 0.0619746 -1.2693e-18)
(0.0215671 0.059142 1.21287e-19)
(0.0212588 0.0562175 0)
(0.0209316 0.0531964 1.12758e-19)
(0.0205847 0.050073 8.55065e-19)
(0.020217 0.0468411 -8.46358e-19)
(0.0198272 0.0434936 -4.00893e-19)
(0.0194138 0.0400223 -3.71301e-19)
(0.0189749 0.0364176 7.51369e-19)
(0.0185084 0.0326683 5.30099e-19)
(0.0180125 0.0287613 6.6126e-19)
(0.0174887 0.0246811 -6.57157e-19)
(0.0169421 0.0204711 -1.5113e-19)
(0.0163794 0.0162398 -1.41192e-19)
(0.0158092 0.0120405 1.31178e-19)
(0.0152364 0.00786469 2.43826e-19)
(0.0146629 0.00370414 6.65246e-19)
(0.0140908 -0.000449058 -2.48864e-20)
(0.0135219 -0.00460195 -3.97521e-19)
(0.012959 -0.00876072 -8.87288e-20)
(0.0124054 -0.0129292 0)
(0.0118641 -0.0171079 3.71873e-20)
(0.0113376 -0.0212945 -3.36913e-20)
(0.0108285 -0.0254854 3.04181e-20)
(0.0103393 -0.0296756 0)
(0.00987216 -0.0338599 0)
(0.00942941 -0.0380323 -3.27744e-19)
(0.00901299 -0.0421864 1.2322e-20)
(0.00862461 -0.0463156 2.76823e-19)
(0.00826562 -0.050413 0)
(0.00793704 -0.0544719 0)
(0.00763951 -0.0584855 1.46416e-19)
(0.00737332 -0.0624474 -2.54725e-19)
(0.00713839 -0.0663517 1.22924e-19)
(0.00693435 -0.0701929 0)
(0.00676058 -0.0739662 0)
(0.00661627 -0.0776674 -2.38724e-20)
(0.00650019 -0.0812948 1.51975e-20)
(0.156385 -0.122456 4.08158e-17)
(-0.0257902 -0.0502136 -8.19519e-17)
(-0.000223427 -0.0348469 1.71195e-16)
(0.00256922 -0.0242941 -7.50402e-17)
(0.00219338 -0.0127997 1.71762e-18)
(0.00218861 -0.00135423 0)
(0.00279478 0.0107078 1.09071e-18)
(0.00395593 0.0242475 0)
(0.0056729 0.0394599 0)
(0.00783543 0.0556798 1.36675e-18)
(0.0102186 0.0715643 5.7923e-19)
(0.0125325 0.0855633 0)
(0.0145564 0.0966436 0)
(0.0162447 0.104896 6.89122e-19)
(0.0176643 0.110919 -9.61755e-18)
(0.018824 0.115193 7.6593e-18)
(0.0197497 0.118095 -6.89734e-18)
(0.0204827 0.119977 6.44128e-18)
(0.0210663 0.121134 -1.75783e-19)
(0.0215384 0.121785 -5.24558e-18)
(0.0219287 0.122081 4.10714e-18)
(0.0222591 0.122124 4.86891e-19)
(0.0225453 0.121982 2.18518e-19)
(0.0227984 0.121698 0)
(0.0230262 0.121303 0)
(0.0232341 0.120817 2.79704e-18)
(0.0234259 0.120253 -2.1337e-18)
(0.0236045 0.119622 -2.82081e-19)
(0.0237715 0.118929 -1.70369e-18)
(0.0239284 0.11818 1.97369e-18)
(0.0240759 0.117376 0)
(0.0242147 0.116521 0)
(0.0243451 0.115614 2.06577e-19)
(0.0244671 0.114658 2.93323e-18)
(0.0245809 0.113651 -5.97229e-18)
(0.0246862 0.112595 2.67852e-18)
(0.0247829 0.111489 1.70032e-19)
(0.0248707 0.110333 -3.25683e-19)
(0.0249495 0.109126 3.12204e-19)
(0.0250188 0.107867 1.4975e-19)
(0.0250785 0.106557 0)
(0.025128 0.105195 1.38418e-19)
(0.0251672 0.103779 2.66675e-19)
(0.0251956 0.102309 -1.78926e-18)
(0.025213 0.100785 1.74344e-20)
(0.0252191 0.0992051 2.15808e-18)
(0.0252135 0.0975693 0)
(0.025196 0.0958763 -1.45547e-22)
(0.0251662 0.0941255 -4.29655e-19)
(0.0251241 0.0923156 0)
(0.0250692 0.0904458 2.00251e-19)
(0.0250015 0.088515 -1.53861e-18)
(0.0249206 0.0865218 1.50488e-18)
(0.0248264 0.084465 0)
(0.0247187 0.0823432 3.48989e-19)
(0.0245973 0.0801547 0)
(0.024462 0.0778979 -3.25547e-19)
(0.0243125 0.0755709 -1.24681e-18)
(0.0241487 0.0731715 1.22383e-18)
(0.0239702 0.0706974 2.92889e-19)
(0.0237768 0.0681459 0)
(0.0235681 0.0655143 -1.35096e-18)
(0.0233437 0.0627993 2.88939e-18)
(0.0231031 0.0599972 -2.32749e-20)
(0.0228456 0.0571041 -5.11653e-19)
(0.0225707 0.0541152 -2.5902e-19)
(0.0222773 0.0510255 -1.8059e-18)
(0.0219645 0.0478289 2.5791e-20)
(0.0216311 0.0445188 1.6805e-18)
(0.0212757 0.0410873 3.85227e-22)
(0.0208964 0.0375252 0)
(0.0204912 0.0338221 1.07181e-18)
(0.0200581 0.0299651 2.90493e-19)
(0.0195987 0.0259395 -1.36412e-18)
(0.0191168 0.0217881 0)
(0.0186171 0.0176178 0)
(0.0181067 0.0134804 -2.7341e-19)
(0.0175904 0.00936704 7.34258e-19)
(0.0170699 0.00526841 -2.1243e-18)
(0.0165472 0.00117527 1.75258e-18)
(0.0160242 -0.00292113 -1.0371e-18)
(0.0155034 -0.00702836 -6.2878e-19)
(0.0149881 -0.0111513 7.08516e-19)
(0.0144814 -0.0152909 -6.82634e-19)
(0.0139857 -0.0194457 1.13944e-18)
(0.013504 -0.0236129 -5.35266e-19)
(0.0130388 -0.0277884 4.43144e-19)
(0.0125929 -0.0319676 -8.25026e-19)
(0.012169 -0.0361451 3.49207e-20)
(0.0117695 -0.0403147 3.30791e-20)
(0.0113965 -0.0444697 3.28993e-19)
(0.0110519 -0.0486032 0)
(0.0107372 -0.0527079 1.88884e-19)
(0.0104534 -0.0567763 -3.37995e-19)
(0.0102011 -0.0608013 7.38785e-21)
(0.00998066 -0.064776 1.63213e-20)
(0.00979191 -0.0686939 1.13127e-20)
(0.0096344 -0.072549 1.29339e-20)
(0.00950729 -0.0763361 3.99113e-20)
(0.00940954 -0.0800517 1.11044e-21)
(0.158392 -0.118407 -1.29373e-18)
(-0.0250511 -0.0505103 -1.61295e-16)
(0.000678384 -0.0360842 2.63428e-19)
(0.0030287 -0.0269994 4.75948e-18)
(0.00232257 -0.0172116 1.07121e-16)
(0.00197473 -0.00779115 8.23459e-17)
(0.00214388 0.00170058 -1.20673e-18)
(0.0027163 0.0120474 -5.92264e-17)
(0.00374414 0.0239393 0)
(0.00527427 0.0375585 4.65206e-17)
(0.00724189 0.0523899 -4.11031e-17)
(0.0094722 0.0673133 0)
(0.0117244 0.0809549 0)
(0.013796 0.0922509 -8.0402e-19)
(0.0155577 0.100879 6.85111e-19)
(0.0170644 0.107314 6.01278e-19)
(0.0183473 0.112057 1.65086e-17)
(0.0193996 0.115414 -1.51006e-17)
(0.0202533 0.117687 0)
(0.0209448 0.119151 3.66015e-19)
(0.0215093 0.120032 1.13066e-17)
(0.0219773 0.120497 -1.86681e-17)
(0.0223732 0.120663 7.96235e-18)
(0.0227152 0.120609 4.60642e-19)
(0.0230164 0.12039 6.64839e-18)
(0.0232865 0.120042 -6.0742e-18)
(0.0235322 0.11959 -5.88506e-18)
(0.0237583 0.11905 5.76182e-18)
(0.0239683 0.118436 1.53033e-22)
(0.0241647 0.117755 -4.3937e-18)
(0.0243493 0.117012 4.12697e-18)
(0.0245233 0.116212 0)
(0.0246874 0.115358 0)
(0.0248422 0.11445 -3.42916e-18)
(0.0249881 0.11349 3.67584e-18)
(0.0251252 0.112479 -3.08696e-18)
(0.0252534 0.111416 2.95784e-18)
(0.0253727 0.110302 -2.45267e-18)
(0.025483 0.109137 -3.17709e-19)
(0.0255841 0.107919 1.83162e-20)
(0.0256757 0.106649 4.93644e-18)
(0.0257575 0.105326 -4.73797e-18)
(0.0258293 0.10395 2.00083e-18)
(0.0258907 0.102519 0)
(0.0259416 0.101033 0)
(0.0259816 0.0994907 -2.53473e-19)
(0.0260104 0.097892 -1.94503e-18)
(0.0260278 0.0962356 1.65768e-18)
(0.0260336 0.0945206 -1.35315e-18)
(0.0260274 0.0927461 2.20032e-18)
(0.0260092 0.0909111 2.10385e-18)
(0.0259786 0.0890144 -2.04943e-18)
(0.0259356 0.0870548 0)
(0.0258799 0.0850311 -1.12943e-18)
(0.0258113 0.0829418 1.47718e-18)
(0.0257298 0.0807854 0)
(0.0256351 0.0785602 3.41335e-19)
(0.0255271 0.0762644 3.29334e-19)
(0.0254056 0.073896 -6.35919e-19)
(0.0252704 0.0714528 -3.06397e-19)
(0.0251213 0.0689322 5.91339e-19)
(0.0249579 0.0663316 2.2555e-18)
(0.0247799 0.0636478 -2.76791e-18)
(0.024587 0.0608775 2.09006e-18)
(0.0243785 0.0580169 -3.05268e-18)
(0.0241539 0.0550615 1.98327e-18)
(0.0239125 0.0520066 -2.3268e-18)
(0.0236532 0.0488466 2.28719e-18)
(0.023375 0.0455751 -4.33679e-19)
(0.0230765 0.0421847 -2.05166e-18)
(0.022756 0.0386669 1.62359e-18)
(0.0224114 0.0350116 0)
(0.0220408 0.0312069 -3.64228e-19)
(0.0216457 0.0272386 0)
(0.0212288 0.0231495 0)
(0.0207926 0.0190447 0)
(0.020343 0.014975 1.39188e-18)
(0.0198847 0.0109311 -1.08868e-18)
(0.019419 0.00690272 -4.93397e-19)
(0.0189476 0.00287951 -4.58857e-19)
(0.0184724 -0.00114902 2.12279e-19)
(0.0179958 -0.00519188 -1.9631e-19)
(0.0175208 -0.00925499 -6.97492e-19)
(0.0170502 -0.0133402 6.84366e-19)
(0.0165869 -0.0174471 5.79323e-19)
(0.0161336 -0.0215739 -4.29339e-20)
(0.0156932 -0.0257179 -1.44889e-18)
(0.0152689 -0.0298754 7.79833e-20)
(0.0148637 -0.0340417 8.12353e-19)
(0.0144804 -0.0382114 -8.52484e-20)
(0.0141218 -0.042378 3.71622e-20)
(0.0137902 -0.0465346 -4.78295e-19)
(0.0134875 -0.0506736 4.62003e-19)
(0.0132153 -0.0547873 -2.25686e-20)
(0.0129747 -0.0588676 1.83667e-20)
(0.0127663 -0.0629069 1.93937e-19)
(0.0125905 -0.0668977 -3.43602e-19)
(0.0124471 -0.0708331 1.55977e-19)
(0.0123354 -0.0747068 5.9883e-20)
(0.0122548 -0.0785131 -7.69503e-20)
(0.0122038 -0.0822471 1.82932e-21)
(0.0121812 -0.0859048 1.81186e-20)
(0.0121853 -0.0894827 -7.80816e-20)
(0.0122149 -0.0929793 7.47378e-20)
(0.160316 -0.114319 8.66565e-17)
(-0.0243758 -0.0503262 0)
(0.00152475 -0.0365359 1.7254e-16)
(0.00356196 -0.0286682 2.07125e-18)
(0.00262617 -0.0202353 -2.20499e-16)
(0.00206219 -0.0123717 1.66236e-16)
(0.00195195 -0.00468769 -6.52041e-17)
(0.00215707 0.00336452 0)
(0.00267207 0.0123479 5.34945e-17)
(0.00357472 0.0228135 -9.61922e-17)
(0.00493428 0.0349873 4.30611e-17)
(0.00672034 0.0485214 -1.25344e-18)
(0.0088046 0.062531 3.53623e-17)
(0.0109956 0.0758274 -6.1206e-17)
(0.0131003 0.0873217 2.51568e-17)
(0.0149519 0.0963957 -1.3789e-18)
(0.0165495 0.103307 1.93012e-17)
(0.0179466 0.108533 -1.62038e-17)
(0.0191251 0.112382 0)
(0.0201047 0.115099 1.36929e-17)
(0.0209119 0.116931 -1.3732e-17)
(0.0215768 0.118098 -6.77462e-19)
(0.0221297 0.118778 0)
(0.0225965 0.119104 -1.08069e-18)
(0.0229978 0.119168 0)
(0.0233491 0.119035 6.57803e-18)
(0.023662 0.11875 3.72528e-19)
(0.023945 0.118345 -6.59493e-18)
(0.0242041 0.11784 -3.36231e-19)
(0.0244439 0.117251 0)
(0.0246674 0.116588 0)
(0.0248771 0.115858 0)
(0.0250746 0.115066 -3.52368e-18)
(0.025261 0.114215 3.80878e-18)
(0.0254372 0.113309 -4.47731e-19)
(0.0256037 0.112348 3.37943e-18)
(0.0257608 0.111333 -2.82336e-18)
(0.0259086 0.110265 3.047e-18)
(0.0260473 0.109144 -2.92245e-18)
(0.0261767 0.107971 0)
(0.0262967 0.106743 3.31245e-18)
(0.0264072 0.105462 -2.55416e-18)
(0.0265079 0.104126 1.8191e-18)
(0.0265987 0.102736 -1.76483e-18)
(0.0266792 0.101289 5.62147e-19)
(0.0267494 0.0997861 -5.40361e-19)
(0.0268089 0.0982257 0)
(0.0268575 0.0966071 -3.64457e-22)
(0.0268949 0.0949293 0)
(0.0269211 0.0931913 3.22666e-18)
(0.0269358 0.0913921 -4.04305e-18)
(0.0269389 0.0895307 4.30633e-19)
(0.0269301 0.0876057 -3.30117e-18)
(0.0269094 0.0856161 2.8241e-18)
(0.0268767 0.0835603 -3.8588e-19)
(0.0268317 0.0814368 0)
(0.0267745 0.0792442 0)
(0.0267048 0.0769805 -2.74477e-18)
(0.0266227 0.074644 7.12571e-19)
(0.0265278 0.0722324 2.59389e-18)
(0.0264201 0.0697434 1.83375e-18)
(0.0262993 0.0671744 -2.40945e-18)
(0.0261652 0.0645226 0)
(0.0260175 0.0617847 0)
(0.0258557 0.0589571 -5.3118e-19)
(0.0256792 0.0560358 0)
(0.0254876 0.0530162 -4.91587e-19)
(0.0252798 0.0498932 1.38578e-18)
(0.0250549 0.0466608 -1.8366e-18)
(0.0248116 0.0433121 8.66815e-19)
(0.0245483 0.0398392 8.29859e-19)
(0.024263 0.0362327 7.93557e-19)
(0.0239538 0.0324813 0)
(0.023622 0.0285719 6.84523e-19)
(0.0232696 0.0245473 -7.10853e-19)
(0.0228968 0.0205111 1.23762e-18)
(0.0225084 0.0165131 -6.23333e-19)
(0.0221087 0.0125438 2.14822e-18)
(0.0216988 0.00859235 -1.18363e-19)
(0.02128 0.00464715 3.65317e-19)
(0.0208542 0.000696266 -1.83771e-18)
(0.0204234 -0.00327084 1.38923e-18)
(0.0199902 -0.00726121 -1.19084e-18)
(0.0195575 -0.0112778 0)
(0.0191279 -0.0153214 1.59021e-19)
(0.0187043 -0.0193916 1.10659e-18)
(0.0182898 -0.0234872 -2.16521e-19)
(0.0178879 -0.0276058 -8.26477e-20)
(0.0175017 -0.0317439 -8.62948e-19)
(0.0171347 -0.0358968 -2.00858e-22)
(0.0167901 -0.0400589 4.38096e-19)
(0.0164705 -0.0442233 -5.77105e-19)
(0.0161787 -0.0483826 4.30042e-19)
(0.0159165 -0.0525287 -4.39342e-19)
(0.0156856 -0.0566531 2.86706e-19)
(0.0154871 -0.0607472 -2.60434e-19)
(0.0153215 -0.0648028 0)
(0.0151891 -0.0688118 0)
(0.0150896 -0.0727667 6.99479e-20)
(0.0150222 -0.0766608 -5.92877e-20)
(0.0149862 -0.0804879 8.05029e-23)
(0.0149801 -0.0842427 -3.22857e-23)
(0.0150025 -0.087921 -8.28012e-20)
(0.0150522 -0.0915201 7.92137e-20)
(0.162113 -0.110235 -3.92518e-18)
(-0.023785 -0.0498405 3.43236e-16)
(0.00231269 -0.0364604 -3.55325e-16)
(0.00411604 -0.029631 1.46364e-16)
(0.00301847 -0.0222899 0)
(0.00232129 -0.0156116 0)
(0.00202183 -0.00929077 -4.11251e-18)
(0.0019917 -0.00283922 -5.65107e-17)
(0.00219615 0.00412128 9.931e-17)
(0.00265661 0.0119805 -4.66331e-17)
(0.00344958 0.0211952 0)
(0.00465365 0.0320491 -1.25335e-22)
(0.00626915 0.0443547 -1.21182e-18)
(0.008212 0.0574507 0)
(0.010334 0.0703291 1.91643e-18)
(0.0124451 0.0819246 1.64958e-18)
(0.0143974 0.0915033 -1.40698e-18)
(0.0160965 0.0989498 -1.22023e-18)
(0.0175907 0.104666 0)
(0.0188975 0.109021 0)
(0.020005 0.112221 8.82698e-19)
(0.0209336 0.114472 -3.70819e-22)
(0.0217078 0.115979 7.08047e-19)
(0.0223542 0.116923 -3.18342e-22)
(0.0228991 0.117447 0)
(0.0233653 0.11766 -5.1335e-19)
(0.0237705 0.117638 -1.39285e-18)
(0.0241286 0.117436 -4.22558e-19)
(0.02445 0.117091 0)
(0.0247423 0.116632 0)
(0.0250111 0.116076 -6.54772e-19)
(0.0252606 0.115437 6.07247e-19)
(0.0254938 0.114724 3.38038e-18)
(0.0257128 0.113943 -5.52472e-19)
(0.0259193 0.1131 -5.19387e-19)
(0.0261144 0.112197 -4.21651e-18)
(0.0262989 0.111236 -3.51864e-18)
(0.0264733 0.11022 4.18948e-18)
(0.026638 0.109147 -3.16193e-18)
(0.0267931 0.10802 3.02859e-18)
(0.0269387 0.106838 -7.18771e-19)
(0.0270748 0.105601 0)
(0.0272013 0.104308 5.88386e-18)
(0.027318 0.102959 -5.04512e-18)
(0.0274249 0.101554 -6.01656e-19)
(0.0275218 0.100091 5.7712e-19)
(0.0276084 0.0985704 5.54465e-19)
(0.0276846 0.0969905 -3.17349e-18)
(0.0277502 0.0953508 4.11647e-18)
(0.0278052 0.0936503 0)
(0.0278493 0.0918878 -9.47828e-19)
(0.0278824 0.0900624 0)
(0.0279045 0.0881729 0)
(0.0279154 0.086218 -8.45835e-19)
(0.027915 0.0841963 0)
(0.0279033 0.0821065 -7.84589e-19)
(0.0278802 0.0799469 7.55676e-19)
(0.0278457 0.0777159 -2.88599e-18)
(0.0277997 0.0754117 3.52701e-18)
(0.0277422 0.0730322 2.67331e-18)
(0.0276729 0.0705751 -3.27152e-18)
(0.0275919 0.0680381 1.25024e-18)
(0.0274988 0.0654184 1.17549e-18)
(0.0273935 0.0627131 -2.33843e-18)
(0.0272756 0.0599187 2.19503e-18)
(0.0271447 0.0570316 -2.16237e-18)
(0.0270003 0.0540474 1.02417e-18)
(0.0268415 0.0509614 1.93686e-18)
(0.0266675 0.047768 -1.91446e-18)
(0.0264772 0.0444609 -9.01927e-19)
(0.026269 0.0410328 -1.72676e-18)
(0.0260409 0.037475 7.92653e-19)
(0.0257912 0.0337771 2.2609e-18)
(0.0255212 0.0299271 -8.16033e-19)
(0.0252318 0.0259677 2.04317e-18)
(0.0249215 0.0220015 -2.7102e-18)
(0.0245938 0.0180775 9.0548e-22)
(0.0242526 0.0141861 -1.66305e-18)
(0.0238989 0.0103161 2.74688e-18)
(0.0235333 0.00645504 0)
(0.0231579 0.00258982 0)
(0.0227741 -0.00129175 4.32616e-19)
(0.0223842 -0.0051979 -1.94417e-18)
(0.0219907 -0.00913279 1.5204e-18)
(0.0215963 -0.0130986 1.12378e-18)
(0.0212038 -0.0170966 -9.6094e-19)
(0.0208164 -0.0211271 9.15108e-19)
(0.0204376 -0.0251894 -9.05066e-19)
(0.0200712 -0.0292814 -1.09558e-19)
(0.0197207 -0.0333998 9.63304e-20)
(0.0193898 -0.0375397 8.40487e-20)
(0.0190818 -0.0416952 0)
(0.0187998 -0.0458589 0)
(0.0185464 -0.0500228 5.14965e-20)
(0.0183236 -0.054178 4.22561e-20)
(0.0181331 -0.0583155 2.3973e-19)
(0.0179759 -0.062426 -5.28985e-20)
(0.0178527 -0.0665005 -1.8903e-19)
(0.0177633 -0.0705303 6.98373e-20)
(0.0177076 -0.0745074 -6.97595e-20)
(0.0176846 -0.0784244 1.79771e-20)
(0.0176934 -0.0822748 -1.94827e-20)
(0.0177324 -0.086053 -8.35708e-20)
(0.0178003 -0.0897554 -3.28929e-20)
(0.163777 -0.106184 -8.65957e-17)
(-0.0232825 -0.0491546 1.76178e-16)
(0.00302001 -0.036014 -3.67428e-16)
(0.00466531 -0.0300739 1.55602e-16)
(0.0034539 -0.0236392 3.63306e-18)
(0.00266335 -0.0178858 -8.46648e-17)
(0.00224711 -0.0126002 1.33427e-16)
(0.00205413 -0.00734978 -5.5087e-17)
(0.002057 -0.00180627 5.05864e-17)
(0.00225487 0.0042897 -4.50568e-17)
(0.00266877 0.0112021 0)
(0.00336534 0.0193147 1.28586e-18)
(0.00443006 0.0289635 -4.10312e-17)
(0.00588719 0.0400969 3.76335e-17)
(0.00768973 0.0522523 -2.15296e-18)
(0.00972334 0.0646122 -3.07416e-17)
(0.0118282 0.0762096 2.86383e-17)
(0.0138549 0.0862327 2.45137e-17)
(0.0156666 0.0942534 -6.19096e-20)
(0.0172612 0.1005 -1.77159e-17)
(0.0186872 0.105357 -1.00072e-18)
(0.0199215 0.109057 9.06509e-19)
(0.020976 0.111768 -2.457e-18)
(0.0218671 0.113664 -7.38494e-19)
(0.0226165 0.11492 -1.19396e-17)
(0.0232489 0.115686 1.07983e-17)
(0.0237876 0.116082 -5.98417e-22)
(0.0242529 0.116198 9.80073e-19)
(0.0246606 0.116099 -8.92149e-19)
(0.0250234 0.115831 8.15168e-19)
(0.0253505 0.115429 6.71651e-18)
(0.0256492 0.114916 -6.22008e-18)
(0.0259246 0.114307 6.38322e-19)
(0.0261806 0.113617 -3.75418e-22)
(0.0264201 0.112852 5.53986e-19)
(0.0266452 0.112018 5.18951e-19)
(0.0268575 0.111121 -8.26943e-18)
(0.0270582 0.110162 4.86442e-20)
(0.0272478 0.109144 7.84877e-18)
(0.0274271 0.108068 0)
(0.0275964 0.106935 0)
(0.0277558 0.105744 0)
(0.0279055 0.104497 -6.36145e-18)
(0.0280455 0.103192 5.43979e-18)
(0.0281757 0.101829 0)
(0.0282962 0.100408 0)
(0.0284068 0.0989277 -5.31592e-18)
(0.0285074 0.0973876 4.00414e-18)
(0.028598 0.0957868 4.34268e-18)
(0.0286783 0.0941243 -4.21435e-18)
(0.0287485 0.0923992 1.00619e-18)
(0.0288084 0.0906104 0)
(0.0288579 0.0887567 0)
(0.028897 0.0868369 1.78878e-18)
(0.0289256 0.0848497 3.41698e-18)
(0.0289439 0.0827937 -2.50732e-18)
(0.0289517 0.0806675 -7.95806e-19)
(0.0289492 0.0784694 0)
(0.0289362 0.0761975 -3.65845e-18)
(0.0289128 0.0738501 5.15274e-20)
(0.0288789 0.071425 3.4339e-18)
(0.0288345 0.0689199 -2.62148e-18)
(0.0287795 0.0663323 1.25921e-18)
(0.0287137 0.0636594 0)
(0.0286369 0.060898 0)
(0.0285487 0.0580446 1.0862e-18)
(0.0284487 0.0550954 -5.92883e-20)
(0.0283362 0.0520459 -6.0775e-20)
(0.0282104 0.048891 -1.0134e-18)
(0.0280703 0.045625 0)
(0.0279146 0.0422411 1.79853e-18)
(0.0277412 0.0387313 1.71855e-18)
(0.0275485 0.0350862 -2.45739e-18)
(0.027338 0.0312949 -1.55159e-18)
(0.0271097 0.0274004 0)
(0.0268602 0.0235043 -4.05381e-18)
(0.026592 0.0196548 3.28008e-18)
(0.0263086 0.0158428 9.67705e-22)
(0.0260107 0.0120569 -5.6094e-19)
(0.0256987 0.00828426 5.24025e-19)
(0.025374 0.00451074 4.89341e-19)
(0.025038 0.000722615 0)
(0.0246923 -0.00308961 0)
(0.0243394 -0.00693144 0)
(0.0239815 -0.0108065 -1.36192e-18)
(0.0236214 -0.0147177 -2.20245e-19)
(0.0232624 -0.0186672 2.61698e-18)
(0.022908 -0.0226559 -1.22111e-18)
(0.0225621 -0.0266838 -7.69883e-19)
(0.0222287 -0.0307489 8.63789e-19)
(0.0219118 -0.0348479 0)
(0.0216151 -0.0389758 5.82391e-19)
(0.0213423 -0.043126 -5.64512e-19)
(0.0210965 -0.0472908 0)
(0.0208804 -0.0514614 -9.05762e-20)
(0.0206962 -0.0556282 -2.57861e-19)
(0.0205454 -0.0597814 2.48191e-19)
(0.020429 -0.063911 -1.30973e-19)
(0.0203476 -0.0680072 1.25577e-19)
(0.0203011 -0.0720607 0)
(0.0202889 -0.0760629 1.80322e-20)
(0.0203101 -0.080006 -1.77001e-20)
(0.0203637 -0.083883 8.423e-20)
(0.0204479 -0.0876879 -2.07405e-19)
(0.0205609 -0.0914168 1.2754e-19)
(0.165302 -0.102185 2.7473e-18)
(-0.0228662 -0.048339 0)
(0.00364516 -0.0353154 -1.8029e-16)
(0.00518715 -0.0301504 1.61232e-16)
(0.00390189 -0.0244753 -7.1404e-23)
(0.00305063 -0.0194574 -2.72306e-18)
(0.00255663 -0.0149669 0)
(0.00226177 -0.0106249 -5.27079e-17)
(0.00212607 -0.00614378 4.91913e-17)
(0.00214847 -0.0013051 0)
(0.00233869 0.00408027 2.55618e-18)
(0.00271244 0.0101883 0)
(0.00332487 0.0173391 -1.52782e-22)
(0.0042649 0.0258955 -3.78384e-17)
(0.00557114 0.0359133 7.29118e-17)
(0.00722887 0.0471064 -3.40813e-17)
(0.00916017 0.0588513 3.08714e-17)
(0.0112375 0.0703053 -5.83109e-17)
(0.0133014 0.0806273 2.39208e-17)
(0.0152343 0.0892507 1.28657e-18)
(0.0169416 0.096074 -1.12707e-18)
(0.0184655 0.101431 -1.42075e-17)
(0.0198291 0.105628 1.6734e-17)
(0.02101 0.108816 1.68918e-18)
(0.0220234 0.11114 1.53276e-18)
(0.022885 0.112753 -1.38888e-18)
(0.0236148 0.113805 1.25648e-18)
(0.0242356 0.114422 0)
(0.0247687 0.114706 -6.0966e-22)
(0.0252323 0.114734 5.67611e-22)
(0.0256411 0.114562 -8.60301e-19)
(0.0260065 0.114231 0)
(0.0263371 0.11377 0)
(0.0266397 0.113201 1.13905e-17)
(0.026919 0.112538 -8.75922e-18)
(0.027179 0.111793 0)
(0.0274222 0.110972 -8.66624e-18)
(0.0276508 0.110083 1.42717e-17)
(0.0278662 0.109127 -8.65819e-18)
(0.0280697 0.108109 0)
(0.0282619 0.10703 -7.67819e-18)
(0.0284434 0.10589 6.51551e-18)
(0.0286147 0.104691 1.54122e-18)
(0.028776 0.103432 -6.57412e-18)
(0.0289274 0.102114 4.91544e-18)
(0.029069 0.100736 0)
(0.0292009 0.0992977 5.07296e-18)
(0.0293231 0.0977984 -6.11951e-18)
(0.0294356 0.0962373 4.64362e-18)
(0.0295384 0.0946136 -3.37861e-18)
(0.0296316 0.0929263 -5.33667e-18)
(0.029715 0.0911744 4.13921e-18)
(0.0297887 0.0893569 -9.87756e-19)
(0.0298529 0.0874725 2.81923e-18)
(0.0299074 0.0855199 -5.082e-20)
(0.0299524 0.0834979 -3.5247e-18)
(0.029988 0.0814049 0)
(0.0300141 0.0792395 -4.82034e-18)
(0.030031 0.0769999 4.65557e-18)
(0.0300386 0.0746844 -3.0098e-18)
(0.030037 0.072291 0)
(0.0300262 0.0698175 1.37557e-18)
(0.0300062 0.0672615 3.93696e-18)
(0.0299769 0.0646205 1.21131e-18)
(0.0299381 0.0618915 -5.92485e-20)
(0.0298897 0.0590714 -1.19834e-18)
(0.0298311 0.0561564 4.41417e-18)
(0.029762 0.0531426 -4.35082e-18)
(0.0296815 0.0500254 -2.05186e-18)
(0.0295887 0.0467994 3.85703e-18)
(0.0294825 0.0434585 -2.87805e-18)
(0.0293609 0.0399955 -3.57678e-18)
(0.0292225 0.0364019 5.03801e-18)
(0.0290687 0.0326678 -1.68841e-18)
(0.0288989 0.0288368 0)
(0.028708 0.0250094 -1.35766e-18)
(0.0284973 0.0212338 1.40883e-18)
(0.0282704 0.0175009 -4.30748e-18)
(0.0280274 0.0137998 2.98816e-18)
(0.0277684 0.0101176 -1.09304e-18)
(0.0274943 0.00643954 -2.49107e-18)
(0.0272063 0.00275061 1.22484e-19)
(0.0269056 -0.000960166 1.18706e-19)
(0.026594 -0.00469969 1.68324e-18)
(0.0262738 -0.00847296 1.80824e-18)
(0.0259475 -0.0122845 -1.0664e-19)
(0.0256182 -0.0161382 -9.73848e-19)
(0.0252894 -0.0200372 2.77228e-19)
(0.0249652 -0.0239832 -9.41629e-19)
(0.0246497 -0.0279764 1.13895e-18)
(0.0243473 -0.0320151 0)
(0.0240622 -0.0360958 6.2293e-19)
(0.0237983 -0.0402132 -1.06164e-18)
(0.0235596 -0.0443602 5.11337e-19)
(0.0233492 -0.0485283 4.03701e-19)
(0.02317 -0.0527081 -3.42696e-19)
(0.023024 -0.0568892 2.97529e-20)
(0.0229128 -0.0610609 -1.2046e-19)
(0.0228374 -0.0652124 1.22284e-19)
(0.022798 -0.0693333 6.83463e-21)
(0.0227946 -0.0734136 4.98242e-22)
(0.0228264 -0.0774439 0)
(0.0228924 -0.0814161 4.98227e-21)
(0.0229911 -0.0853226 -7.15526e-21)
(0.023121 -0.0891572 -9.06165e-21)
(0.0232798 -0.0929146 3.53945e-19)
(0.0234655 -0.0965916 -3.70331e-19)
(0.166691 -0.0982476 -8.92468e-17)
(-0.0225317 -0.0474384 0)
(0.00419061 -0.0344434 1.98106e-16)
(0.00567275 -0.0299777 -1.67844e-16)
(0.00434645 -0.0249516 -3.94782e-18)
(0.00346078 -0.0205286 5.64661e-18)
(0.00291716 -0.016656 6.78696e-17)
(0.00255818 -0.0130047 -5.64712e-17)
(0.002337 -0.0093228 -2.92937e-18)
(0.00224136 -0.00542425 -4.49422e-17)
(0.00227702 -0.00115453 3.97397e-17)
(0.00245635 0.00363152 2.35931e-18)
(0.00279588 0.00906564 -9.67303e-23)
(0.00333705 0.0154018 2.25764e-18)
(0.00416254 0.0229793 2.25433e-18)
(0.00532514 0.0319466 3.52739e-17)
(0.00683623 0.0421695 -9.21327e-20)
(0.00865101 0.0532047 -2.91081e-17)
(0.0106682 0.0643539 0)
(0.0127512 0.0748245 -1.54036e-18)
(0.0147666 0.0839544 -1.86797e-17)
(0.0166002 0.0913899 1.63107e-17)
(0.0182311 0.0972856 1.65817e-17)
(0.0197086 0.10196 -1.51846e-17)
(0.0210153 0.105627 0)
(0.0221536 0.108401 1.58563e-18)
(0.0231333 0.110408 0)
(0.0239695 0.111786 1.31483e-18)
(0.0246821 0.112663 2.3903e-18)
(0.0252923 0.113148 -1.08728e-18)
(0.0258197 0.113329 9.91315e-19)
(0.0262809 0.113273 -1.8136e-18)
(0.0266893 0.11303 1.66321e-18)
(0.0270555 0.112634 -1.37373e-17)
(0.0273876 0.112113 1.1339e-17)
(0.0276919 0.111485 0)
(0.0279731 0.110764 9.71829e-18)
(0.0282346 0.109961 -6.85416e-18)
(0.0284793 0.109081 0)
(0.0287089 0.108131 0)
(0.0289252 0.107113 9.41639e-19)
(0.0291291 0.106031 0)
(0.0293216 0.104885 -8.41148e-19)
(0.0295031 0.103676 0)
(0.0296743 0.102406 -5.27859e-18)
(0.0298353 0.101074 5.79442e-18)
(0.0299865 0.0996789 -1.37455e-18)
(0.030128 0.0982218 1.31025e-18)
(0.0302599 0.0967016 0)
(0.0303825 0.0951174 -1.19633e-18)
(0.0304958 0.0934686 1.14466e-18)
(0.0305999 0.0917541 1.09698e-18)
(0.030695 0.089973 -9.53698e-22)
(0.0307812 0.088124 0)
(0.0308585 0.0862061 2.86952e-18)
(0.0309272 0.0842178 -5.43261e-20)
(0.0309874 0.082158 -3.5825e-18)
(0.0310393 0.0800251 1.70498e-18)
(0.0310829 0.0778174 -1.6097e-18)
(0.0311185 0.0755334 1.59869e-18)
(0.0311461 0.0731712 -2.98641e-18)
(0.0311659 0.0707287 4.33897e-18)
(0.0311779 0.0682037 -4.19231e-18)
(0.031182 0.0655939 -3.96135e-18)
(0.0311783 0.0628966 2.58257e-18)
(0.0311666 0.0601088 -1.22323e-18)
(0.0311465 0.0572272 -4.61803e-18)
(0.0311176 0.054248 2.30543e-18)
(0.0310794 0.0511672 -1.00265e-18)
(0.0310309 0.0479799 6.21316e-18)
(0.030971 0.0446806 2.65374e-21)
(0.0308982 0.0412628 -2.6141e-21)
(0.0308108 0.0377188 -3.47168e-18)
(0.0307106 0.0340399 3.35806e-18)
(0.0305964 0.0302702 -4.83004e-18)
(0.0304613 0.0265093 -2.90003e-18)
(0.0303059 0.0228053 4.25177e-18)
(0.0301333 0.0191499 -2.53587e-18)
(0.0299437 0.0155325 6.09386e-18)