/*--------------------------------*- C++ -*----------------------------------*\
  =========                 |
  \\      /  F ield         | OpenFOAM: The Open Source CFD Toolbox
   \\    /   O peration     | Website:  https://openfoam.org
    \\  /    A nd           | Version:  10
     \\/     M anipulation  |
\*---------------------------------------------------------------------------*/
FoamFile
{
    format      ascii;
    class       volVectorField;
    location    "62000";
    object      U;
}
// * * * * * * * * * * * * * * * * * * * * * * * * * * * * * * * * * * * * * //

dimensions      [0 1 -1 0 0 0 0];

internalField   nonuniform List<vector> 
17981
(
(0.119972 3.24757 9.13531e-22)
(0.116026 3.25434 -9.17678e-22)
(0.112149 3.26083 0)
(0.108338 3.26702 -5.81957e-21)
(0.104594 3.2729 1.2834e-20)
(0.100919 3.27845 -6.96253e-21)
(0.0973162 3.28365 0)
(0.0937877 3.2885 6.03788e-22)
(0.0903365 3.29299 0)
(0.0869651 3.29712 0)
(0.0836762 3.3009 -7.41163e-22)
(0.080472 3.30432 1.36803e-20)
(0.0773544 3.30739 -1.23873e-20)
(0.074325 3.31013 0)
(0.0713851 3.31254 0)
(0.0685354 3.31464 0)
(0.0657763 3.31644 0)
(0.0631076 3.31797 -1.39687e-20)
(0.0605291 3.31922 1.33783e-20)
(0.05804 3.32023 2.77669e-20)
(0.0556391 3.32101 -2.61803e-20)
(0.0533253 3.32157 -4.19417e-22)
(0.0510969 3.32192 0)
(0.0489522 3.32209 0)
(0.0468893 3.32208 2.63703e-20)
(0.0449062 3.32192 -2.49096e-20)
(0.0430007 3.32161 2.55848e-20)
(0.0411705 3.32117 -2.45771e-20)
(0.0394135 3.32061 -3.81959e-22)
(0.0377271 3.31994 0)
(0.0361092 3.31916 1.84309e-22)
(0.0345573 3.3183 -1.80885e-22)
(0.0330691 3.31736 -1.77423e-22)
(0.0316423 3.31635 2.22848e-20)
(0.0302746 3.31527 -2.14655e-20)
(0.0289636 3.31414 -1.66944e-22)
(0.0277073 3.31296 0)
(0.0265034 3.31173 0)
(0.0253498 3.31047 1.56523e-22)
(0.0242444 3.30918 -1.98729e-20)
(0.0231854 3.30786 -9.16878e-23)
(0.0221706 3.30652 1.84656e-20)
(0.0211984 3.30516 7.15117e-23)
(0.0202667 3.30379 0)
(0.019374 3.30241 0)
(0.0185186 3.30102 0)
(0.0176988 3.29963 0)
(0.016913 3.29823 -1.65107e-20)
(0.0566593 3.2646 -5.544e-21)
(0.0520651 3.27168 0)
(0.0475555 3.27847 -1.6078e-20)
(0.0431319 3.28495 3.96347e-20)
(0.0387965 3.29111 -2.25579e-20)
(0.0345519 3.29692 3.40873e-20)
(0.0304011 3.30236 -3.2985e-20)
(0.0263472 3.30743 6.02365e-22)
(0.0223933 3.31212 1.34622e-21)
(0.0185423 3.31642 -4.88394e-20)
(0.0147969 3.32033 9.73814e-20)
(0.0111593 3.32386 -4.99438e-20)
(0.00763148 3.32701 0)
(0.00421455 3.3298 1.68178e-21)
(0.00090932 3.33224 -5.66097e-20)
(-0.00228399 3.33434 5.41858e-20)
(-0.00536565 3.33612 5.74444e-20)
(-0.0083364 3.3376 -5.49766e-20)
(-0.0111974 3.33878 8.76752e-22)
(-0.0139502 3.3397 0)
(-0.0165968 3.34037 -4.36482e-22)
(-0.0191391 3.3408 5.67244e-20)
(-0.0215797 3.34102 -5.30903e-20)
(-0.0239211 3.34103 5.58823e-20)
(-0.026166 3.34086 -1.07095e-19)
(-0.0283174 3.34052 5.16994e-20)
(-0.0303781 3.34003 -5.26983e-20)
(-0.0323511 3.33939 5.06169e-20)
(-0.0342395 3.33863 3.93831e-22)
(-0.0360464 3.33776 0)
(-0.0377746 3.33678 1.89815e-22)
(-0.0394273 3.3357 1.86491e-22)
(-0.0410074 3.33455 -4.70687e-20)
(-0.0425178 3.33332 4.56843e-20)
(-0.0439613 3.33202 -5.27259e-22)
(-0.0453407 3.33067 4.45941e-20)
(-0.0466588 3.32927 -4.28283e-20)
(-0.0479182 3.32783 0)
(-0.0491214 3.32635 4.14632e-20)
(-0.0502709 3.32484 -8.04046e-20)
(-0.0513691 3.32331 3.88343e-20)
(-0.0524183 3.32176 -3.87513e-20)
(-0.0534206 3.32019 -6.61473e-22)
(-0.0543783 3.31861 3.65861e-20)
(-0.0552933 3.31703 0)
(-0.0561677 3.31544 0)
(-0.0570032 3.31385 1.34576e-22)
(-0.0578018 3.31226 -6.65798e-23)
(-0.00582386 3.28189 0)
(-0.0111115 3.28926 8.83271e-21)
(-0.0162939 3.29633 -9.43851e-21)
(-0.0213689 3.30309 2.29893e-20)
(-0.0263335 3.30951 -2.38803e-20)
(-0.0311844 3.31556 -1.91998e-21)
(-0.0359177 3.32123 0)
(-0.0405295 3.32649 -1.28759e-21)
(-0.0450161 3.33135 -4.15292e-21)
(-0.0493741 3.33579 0)
(-0.0536006 3.33981 1.58286e-21)
(-0.0576932 3.34341 3.25677e-21)
(-0.0616503 3.34661 0)
(-0.0654708 3.34942 -1.65526e-23)
(-0.0691547 3.35184 1.75766e-21)
(-0.0727022 3.3539 0)
(-0.0761144 3.35561 1.18046e-19)
(-0.0793928 3.357 -1.11099e-19)
(-0.0825397 3.35807 -1.18929e-19)
(-0.0855575 3.35885 1.12934e-19)
(-0.0884491 3.35937 -1.78728e-21)
(-0.0912175 3.35963 0)
(-0.0938663 3.35966 8.76699e-22)
(-0.096399 3.35948 -8.71877e-22)
(-0.0988194 3.35911 8.59305e-22)
(-0.101131 3.35855 -1.09245e-19)
(-0.103338 3.35783 1.05687e-19)
(-0.105444 3.35697 -8.22956e-22)
(-0.107453 3.35597 0)
(-0.109369 3.35485 1.0223e-19)
(-0.111196 3.35363 2.44587e-21)
(-0.112937 3.3523 -9.81053e-20)
(-0.114596 3.3509 0)
(-0.116177 3.34942 0)
(-0.117683 3.34787 -9.38628e-20)
(-0.119117 3.34627 9.08347e-20)
(-0.120483 3.34462 -3.47694e-22)
(-0.121784 3.34293 0)
(-0.123023 3.34121 3.33258e-22)
(-0.124202 3.33946 -3.25859e-22)
(-0.125326 3.33768 -8.21549e-20)
(-0.126395 3.33589 7.93459e-20)
(-0.127414 3.33409 1.52376e-22)
(-0.128383 3.33228 -1.49268e-22)
(-0.129307 3.33047 -2.91439e-22)
(-0.130187 3.32866 0)
(-0.131024 3.32685 -1.38912e-22)
(-0.131822 3.32504 -7.0854e-20)
(-0.0909129 3.32822 -1.45223e-21)
(-0.0964078 3.33449 2.00884e-21)
(-0.101759 3.34036 7.98346e-20)
(-0.106962 3.3458 -1.65461e-19)
(-0.112012 3.35079 8.80025e-20)
(-0.116904 3.35533 -3.01084e-21)
(-0.121636 3.35943 1.04356e-19)
(-0.126204 3.36307 -1.06306e-19)
(-0.130608 3.36628 0)
(-0.134846 3.36905 -1.78493e-21)
(-0.138919 3.37142 1.17399e-19)
(-0.142829 3.37339 -1.13916e-19)
(-0.146577 3.37498 -1.1735e-19)
(-0.150165 3.37623 -9.24694e-21)
(-0.153598 3.37714 1.15902e-19)
(-0.156878 3.37774 -1.20532e-19)
(-0.160011 3.37805 1.15343e-19)
(-0.162999 3.3781 0)
(-0.165848 3.3779 1.1573e-19)
(-0.168563 3.37748 -2.28825e-19)
(-0.171149 3.37685 1.08755e-19)
(-0.173609 3.37603 1.12209e-19)
(-0.17595 3.37505 -1.06837e-19)
(-0.178176 3.37391 -8.44716e-22)
(-0.180292 3.37263 -1.07809e-19)
(-0.182303 3.37123 -6.52206e-22)
(-0.184213 3.36972 -3.74363e-21)
(-0.186027 3.36812 1.01721e-19)
(-0.18775 3.36642 1.00196e-19)
(-0.189385 3.36466 -1.94769e-19)
(-0.190937 3.36283 9.54296e-20)
(-0.19241 3.36094 -9.43558e-20)
(-0.193807 3.35901 9.13589e-20)
(-0.195133 3.35704 -9.04831e-20)
(-0.196391 3.35504 -2.2678e-21)
(-0.197585 3.35302 8.55027e-20)
(-0.198717 3.35098 9.87309e-22)
(-0.199791 3.34892 -8.2586e-20)
(-0.200809 3.34686 7.97978e-20)
(-0.201775 3.34479 3.07632e-22)
(-0.202692 3.34273 3.00713e-22)
(-0.203561 3.34067 7.53778e-20)
(-0.204386 3.33862 -7.31923e-20)
(-0.205169 3.33658 0)
(-0.155101 3.34731 -3.93483e-20)
(-0.161283 3.35379 -3.83499e-21)
(-0.167294 3.35983 0)
(-0.173125 3.36541 8.99515e-20)
(-0.178771 3.37051 -8.62743e-20)
(-0.184227 3.37512 6.18643e-21)
(-0.189488 3.37924 6.54798e-21)
(-0.194553 3.38288 0)
(-0.199418 3.38604 0)
(-0.204086 3.38873 -3.60897e-21)
(-0.208556 3.39098 0)
(-0.212832 3.39281 0)
(-0.216916 3.39423 -3.78527e-21)
(-0.220813 3.39528 1.89914e-21)
(-0.224526 3.39597 -1.23915e-19)
(-0.228062 3.39633 1.1848e-19)
(-0.231426 3.39639 -1.20785e-19)
(-0.234624 3.39617 1.17419e-19)
(-0.237661 3.39569 1.84894e-21)
(-0.240544 3.39497 0)
(-0.243278 3.39404 -1.17637e-19)
(-0.245872 3.39292 -4.95315e-21)
(-0.248329 3.39162 -4.70999e-21)
(-0.250657 3.39016 1.11582e-19)
(-0.252861 3.38856 -1.1076e-19)
(-0.254947 3.38684 -3.21949e-21)
(-0.256921 3.385 1.07248e-19)
(-0.258788 3.38307 -1.05864e-19)
(-0.260554 3.38105 1.01172e-19)
(-0.262223 3.37896 0)
(-0.263801 3.37681 9.91721e-20)
(-0.265292 3.37461 -9.71392e-20)
(-0.266701 3.37236 0)
(-0.268032 3.37008 7.23698e-22)
(-0.269289 3.36778 7.08291e-22)
(-0.270477 3.36545 6.94148e-22)
(-0.271598 3.36311 8.68145e-20)
(-0.272657 3.36076 -1.71136e-19)
(-0.273657 3.35841 8.37079e-20)
(-0.2746 3.35607 0)
(-0.275491 3.35373 0)
(-0.276333 3.3514 7.85321e-20)
(-0.277127 3.34908 -7.56835e-20)
(-0.277876 3.34678 0)
(-0.219067 3.36692 -4.09157e-20)
(-0.225987 3.37358 -6.59864e-20)
(-0.232701 3.37977 1.48504e-19)
(-0.239201 3.38545 -7.79218e-20)
(-0.245477 3.39061 -9.91884e-20)
(-0.251524 3.39524 9.16565e-20)
(-0.257336 3.39933 -3.35666e-21)
(-0.262913 3.4029 0)
(-0.268252 3.40595 -1.1974e-19)
(-0.273354 3.40849 2.40369e-19)
(-0.278223 3.41057 7.5901e-21)
(-0.282863 3.41218 -1.18673e-19)
(-0.287277 3.41337 -3.83581e-21)
(-0.291472 3.41416 -1.26746e-19)
(-0.295455 3.41457 1.21087e-19)
(-0.299232 3.41463 -1.26204e-19)
(-0.302811 3.41437 -4.76688e-21)
(-0.306199 3.41382 1.20101e-19)
(-0.309404 3.413 -5.68346e-21)
(-0.312434 3.41194 0)
(-0.315297 3.41065 4.03923e-24)
(-0.318 3.40916 1.83509e-21)
(-0.320551 3.4075 1.17305e-19)
(-0.322957 3.40567 2.84538e-21)
(-0.325225 3.4037 -2.24819e-19)
(-0.327362 3.40161 1.07671e-19)
(-0.329376 3.39941 -3.40048e-21)
(-0.331271 3.39711 0)
(-0.333056 3.39473 -2.12147e-19)
(-0.334735 3.39228 2.04466e-19)
(-0.336314 3.38977 0)
(-0.3378 3.38721 7.7583e-22)
(-0.339196 3.38462 1.9633e-19)
(-0.340508 3.382 -1.9027e-19)
(-0.341742 3.37935 0)
(-0.3429 3.37669 -7.15649e-22)
(-0.343988 3.37403 7.01552e-22)
(-0.345009 3.37136 6.86021e-22)
(-0.345968 3.3687 -1.73678e-19)
(-0.346868 3.36604 1.67311e-19)
(-0.347713 3.3634 -6.43496e-22)
(-0.348505 3.36078 -1.62464e-19)
(-0.349249 3.35817 1.56614e-19)
(-0.349946 3.35559 0)
(-0.290769 3.39396 -3.7324e-21)
(-0.298234 3.40024 -4.52245e-21)
(-0.30544 3.40598 0)
(-0.312376 3.41114 -5.78357e-21)
(-0.319036 3.41572 -6.27077e-21)
(-0.325414 3.41971 0)
(-0.33151 3.42313 -1.18009e-19)
(-0.337323 3.426 1.12459e-19)
(-0.342856 3.42833 0)
(-0.348115 3.43014 -2.53251e-19)
(-0.353104 3.43147 2.45356e-19)
(-0.357832 3.43235 3.93742e-21)
(-0.362307 3.4328 0)
(-0.366536 3.43285 0)
(-0.37053 3.43255 -3.93382e-21)
(-0.374298 3.43191 0)
(-0.37785 3.43097 2.5462e-19)
(-0.381195 3.42974 -4.96273e-19)
(-0.384344 3.42827 4.91764e-19)
(-0.387304 3.42657 -2.37735e-19)
(-0.390087 3.42467 0)
(-0.392701 3.42259 2.38738e-19)
(-0.395154 3.42034 -2.31226e-19)
(-0.397456 3.41796 0)
(-0.399614 3.41545 2.31622e-19)
(-0.401636 3.41284 -4.45592e-19)
(-0.40353 3.41013 2.1603e-19)
(-0.405304 3.40734 -2.18308e-19)
(-0.406963 3.4045 2.08821e-19)
(-0.408515 3.40159 -2.10408e-19)
(-0.409966 3.39865 2.03037e-19)
(-0.411321 3.39567 0)
(-0.412587 3.39267 1.96941e-19)
(-0.413769 3.38966 -1.91737e-19)
(-0.414872 3.38664 0)
(-0.4159 3.38362 -1.87376e-19)
(-0.416859 3.38061 1.81184e-19)
(-0.417752 3.3776 -6.95118e-22)
(-0.418583 3.37462 -1.75075e-19)
(-0.419358 3.37165 3.40698e-19)
(-0.420078 3.36871 -1.65133e-19)
(-0.420747 3.3658 1.64489e-19)
(-0.42137 3.36292 1.57646e-21)
(-0.37215 3.42705 -5.18883e-21)
(-0.37976 3.43213 1.77191e-22)
(-0.387038 3.43657 6.46773e-21)
(-0.393978 3.44037 0)
(-0.400582 3.44356 -2.46112e-19)
(-0.406853 3.44615 4.67058e-19)
(-0.412796 3.44816 1.78013e-20)
(-0.418418 3.44963 1.64275e-20)
(-0.423729 3.45059 -2.57069e-19)
(-0.428739 3.45107 -3.97324e-21)
(-0.433458 3.4511 0)
(-0.437899 3.45073 -2.63489e-19)
(-0.442073 3.44998 -7.05656e-21)
(-0.445993 3.44889 2.55518e-19)
(-0.44967 3.44749 0)
(-0.453116 3.4458 1.32166e-23)
(-0.456343 3.44386 3.92449e-21)
(-0.459363 3.44169 -3.88727e-21)
(-0.462187 3.43932 0)
(-0.464824 3.43677 2.44811e-19)
(-0.467287 3.43406 -2.37196e-19)
(-0.469585 3.43121 0)
(-0.471726 3.42824 1.82368e-21)
(-0.473721 3.42517 2.32437e-19)
(-0.475578 3.42201 -2.20451e-19)
(-0.477304 3.41879 0)
(-0.47891 3.4155 2.20832e-19)
(-0.4804 3.41217 -2.131e-19)
(-0.481783 3.4088 1.65002e-21)
(-0.483066 3.40541 0)
(-0.484254 3.40201 1.58833e-21)
(-0.485354 3.3986 0)
(-0.486371 3.39519 -1.96973e-19)
(-0.487311 3.39179 3.83495e-19)
(-0.488178 3.3884 -3.75786e-19)
(-0.488977 3.38504 1.84384e-19)
(-0.489714 3.3817 0)
(-0.490391 3.37838 6.88878e-22)
(-0.491014 3.37511 -1.73659e-19)
(-0.491585 3.37187 3.37408e-19)
(-0.492108 3.36867 -1.66947e-19)
(-0.447946 3.45349 -1.96304e-19)
(-0.455818 3.45768 1.86063e-19)
(-0.463291 3.46119 0)
(-0.470368 3.46403 7.26962e-21)
(-0.477056 3.46624 1.18364e-22)
(-0.483365 3.46784 0)
(-0.489305 3.46887 0)
(-0.494889 3.46936 1.60306e-20)
(-0.500132 3.46936 4.07008e-21)
(-0.505046 3.4689 4.06577e-21)
(-0.509648 3.46801 0)
(-0.513952 3.46675 -2.68042e-19)
(-0.517973 3.46513 2.52359e-19)
(-0.521726 3.4632 2.6568e-19)
(-0.525224 3.46099 -2.50567e-19)
(-0.528483 3.45852 -4.02591e-21)
(-0.531514 3.45583 3.98938e-21)
(-0.534332 3.45293 0)
(-0.536949 3.44986 3.90361e-21)
(-0.539376 3.44664 2.49784e-19)
(-0.541625 3.44328 -2.40419e-19)
(-0.543707 3.43981 -2.46562e-19)
(-0.545632 3.43625 2.35825e-19)
(-0.547411 3.43261 -3.64037e-21)
(-0.549052 3.4289 0)
(-0.550564 3.42515 3.52476e-21)
(-0.551955 3.42136 2.255e-19)
(-0.553233 3.41754 -2.17828e-19)
(-0.554406 3.41371 2.15827e-19)
(-0.555481 3.40987 -4.20441e-19)
(-0.556464 3.40604 2.04816e-19)
(-0.557361 3.40221 -2.0384e-19)
(-0.558179 3.39841 1.97205e-19)
(-0.558923 3.39463 -7.59857e-22)
(-0.559598 3.39088 9.74988e-25)
(-0.560209 3.38716 7.30657e-22)
(-0.560761 3.38348 0)
(-0.561258 3.37985 -7.00895e-22)
(-0.561703 3.37626 0)
(-0.562101 3.37273 6.81368e-22)
(-0.533566 3.48194 0)
(-0.541053 3.48433 7.17286e-21)
(-0.548092 3.48605 7.6141e-21)
(-0.5547 3.48713 0)
(-0.56089 3.48762 -2.64287e-19)
(-0.56668 3.48756 2.43617e-19)
(-0.572088 3.48699 -8.18711e-21)
(-0.577132 3.48596 -4.16353e-21)
(-0.58183 3.48449 -2.73166e-19)
(-0.586201 3.48264 -1.1952e-20)
(-0.590261 3.48044 2.65619e-19)
(-0.594029 3.47792 0)
(-0.597521 3.47512 -2.69712e-19)
(-0.600752 3.47207 -8.85285e-21)
(-0.60374 3.4688 5.26445e-19)
(-0.606497 3.46534 -2.54982e-19)
(-0.609039 3.46171 -2.5973e-19)
(-0.61138 3.45793 5.02633e-19)
(-0.61353 3.45402 -2.5104e-19)
(-0.615505 3.45002 -1.92707e-21)
(-0.617313 3.44592 -1.90372e-21)
(-0.618965 3.44176 -2.38868e-19)
(-0.620474 3.43754 -4.69721e-21)
(-0.621848 3.43328 2.2882e-19)
(-0.623097 3.429 -1.78959e-21)
(-0.62423 3.42471 0)
(-0.625253 3.4204 -1.73061e-21)
(-0.626176 3.41611 0)
(-0.627006 3.41183 0)
(-0.627748 3.40757 0)
(-0.62841 3.40334 1.60913e-21)
(-0.628998 3.39915 0)
(-0.629517 3.39499 -7.73086e-22)
(-0.629971 3.39089 1.01202e-24)
(-0.630367 3.38683 -7.43722e-22)
(-0.630709 3.38283 1.8886e-19)
(-0.631 3.37888 -1.81624e-19)
(-0.631245 3.37499 1.82262e-19)
(-0.633186 3.50559 2.67347e-19)
(-0.639096 3.50489 -2.46531e-19)
(-0.644586 3.50368 8.38301e-21)
(-0.649678 3.502 0)
(-0.654393 3.49989 -2.78019e-19)
(-0.658753 3.49739 2.65971e-19)
(-0.662779 3.49454 -2.3635e-23)
(-0.666491 3.49139 4.23795e-21)
(-0.669907 3.48796 0)
(-0.673045 3.48429 -4.20345e-21)
(-0.675924 3.4804 -4.18887e-21)
(-0.67856 3.47632 -2.69536e-19)
(-0.680968 3.47209 2.59403e-19)
(-0.683164 3.46772 4.0726e-21)
(-0.685162 3.46323 5.51763e-24)
(-0.686974 3.45866 2.61432e-19)
(-0.688615 3.454 -2.48387e-19)
(-0.690096 3.44929 -1.93643e-21)
(-0.691428 3.44454 -1.90832e-21)
(-0.692621 3.43976 0)
(-0.693687 3.43497 2.39163e-19)
(-0.694633 3.43017 -2.31254e-19)
(-0.695468 3.42539 2.31328e-19)
(-0.696202 3.42062 -2.25596e-19)
(-0.696842 3.41587 -2.2335e-19)
(-0.697394 3.41116 2.17941e-19)
(-0.697866 3.40649 -1.66987e-21)
(-0.698264 3.40187 -2.09627e-19)
(-0.698594 3.3973 2.03079e-19)
(-0.698862 3.39279 -2.02428e-19)
(-0.699072 3.38834 1.98517e-19)
(-0.69923 3.38395 1.94471e-19)
(-0.699339 3.37964 -1.90032e-19)
(-0.699405 3.37539 -7.38131e-22)
(-0.706139 3.52242 0)
(-0.712072 3.52102 -1.02198e-22)
(-0.717552 3.5191 2.78861e-19)
(-0.722603 3.51672 -2.74864e-19)
(-0.727252 3.51391 0)
(-0.731522 3.51072 -8.63773e-21)
(-0.735437 3.50719 4.30404e-21)
(-0.739018 3.50336 2.83453e-19)
(-0.742288 3.49926 1.03262e-20)
(-0.745267 3.49493 -2.67086e-19)
(-0.747974 3.49039 -2.74876e-19)
(-0.750426 3.48568 2.68662e-19)
(-0.752642 3.48082 2.74499e-19)
(-0.754638 3.47584 -2.60361e-19)
(-0.756429 3.47075 2.72969e-19)
(-0.758029 3.46559 -2.63487e-19)
(-0.759452 3.46036 -4.05156e-21)
(-0.760712 3.45508 2.58919e-19)
(-0.761819 3.44978 -4.99634e-19)
(-0.762785 3.44446 -6.74704e-21)
(-0.763622 3.43914 2.43405e-19)
(-0.764338 3.43383 -2.44053e-19)
(-0.764944 3.42854 2.3807e-19)
(-0.765448 3.42328 -2.34361e-19)
(-0.765859 3.41806 4.60934e-19)
(-0.766183 3.41289 -2.24927e-19)
(-0.766429 3.40777 0)
(-0.766603 3.40271 -1.7073e-21)
(-0.766711 3.39771 1.67614e-21)
(-0.766759 3.39278 -3.29165e-21)
(-0.766753 3.38793 -2.08668e-19)
(-0.766697 3.38316 2.0318e-19)
(-0.766596 3.37846 1.55259e-21)
(-0.766455 3.37385 0)
(-0.779575 3.5378 -2.53171e-19)
(-0.785427 3.53565 2.70258e-19)
(-0.790797 3.53298 -5.57617e-19)
(-0.795714 3.52986 2.79226e-19)
(-0.800207 3.52631 -8.74553e-21)
(-0.804302 3.5224 -2.80798e-19)
(-0.808025 3.51816 2.68856e-19)
(-0.811402 3.51362 2.85736e-19)
(-0.814454 3.50883 -2.8323e-19)
(-0.817204 3.50382 2.84061e-19)
(-0.819672 3.49862 -2.82051e-19)
(-0.821879 3.49325 0)
(-0.823842 3.48775 -4.35057e-21)
(-0.82558 3.48213 2.76052e-19)
(-0.827108 3.47643 -5.48234e-19)
(-0.828442 3.47066 2.6811e-19)
(-0.829596 3.46484 5.0537e-24)
(-0.830585 3.45899 0)
(-0.83142 3.45312 -8.18995e-21)
(-0.832115 3.44725 2.63219e-19)
(-0.83268 3.44139 -5.103e-19)
(-0.833125 3.43556 2.49309e-19)
(-0.833462 3.42976 0)
(-0.833698 3.424 0)
(-0.833843 3.4183 -2.41945e-19)
(-0.833905 3.41266 4.70576e-19)
(-0.833891 3.40708 -2.30653e-19)
(-0.833809 3.40157 2.29758e-19)
(-0.833664 3.39615 -2.22832e-19)
(-0.833463 3.3908 -1.54195e-24)
(-0.833211 3.38555 -2.17401e-19)
(-0.832914 3.38038 2.0929e-19)
(-0.832576 3.3753 -8.12279e-22)
(-0.832202 3.37032 -2.08031e-19)
(-0.853235 3.5514 8.23213e-21)
(-0.858897 3.54847 0)
(-0.864056 3.54503 8.75821e-21)
(-0.868743 3.54114 0)
(-0.872991 3.53685 3.03086e-19)
(-0.876827 3.5322 -2.90915e-19)
(-0.88028 3.52723 0)
(-0.883376 3.52199 9.08003e-21)
(-0.88614 3.5165 3.01927e-19)
(-0.888594 3.5108 -2.81618e-19)
(-0.890761 3.50492 -4.53199e-21)
(-0.892662 3.49889 4.51427e-21)
(-0.894316 3.49274 2.96577e-19)
(-0.895741 3.48649 -5.71792e-19)
(-0.896955 3.48017 2.79965e-19)
(-0.897973 3.47379 2.93409e-19)
(-0.898812 3.46738 -2.70847e-19)
(-0.899485 3.46094 -2.78512e-19)
(-0.900006 3.45451 5.53235e-19)
(-0.900388 3.44809 -2.66424e-19)
(-0.900642 3.44169 0)
(-0.90078 3.43533 0)
(-0.900811 3.42902 0)
(-0.900745 3.42276 0)
(-0.900591 3.41657 1.95946e-21)
(-0.900359 3.41046 0)
(-0.900054 3.40442 -1.89807e-21)
(-0.899686 3.39847 2.42341e-19)
(-0.89926 3.39261 -2.33349e-19)
(-0.898782 3.38685 -1.22236e-24)
(-0.898259 3.38118 -2.27945e-19)
(-0.897696 3.37562 2.21281e-19)
(-0.897097 3.37016 1.70679e-21)
(-0.896468 3.36481 0)
(-0.932145 3.55923 2.66454e-19)
(-0.936997 3.55502 -2.92316e-19)
(-0.941367 3.55038 5.76689e-19)
(-0.945286 3.54534 -2.7544e-19)
(-0.948787 3.53996 9.27501e-21)
(-0.951897 3.53427 0)
(-0.954645 3.52831 -6.03238e-23)
(-0.957056 3.52213 -9.34945e-21)
(-0.959155 3.51575 3.05729e-19)
(-0.960964 3.5092 -2.85379e-19)
(-0.962504 3.50252 -1.75254e-23)
(-0.963797 3.49572 4.64547e-21)
(-0.964862 3.48885 0)
(-0.965715 3.48191 2.98136e-19)
(-0.966374 3.47492 -2.92923e-19)
(-0.966855 3.46792 2.92879e-19)
(-0.967173 3.46091 -5.7344e-19)
(-0.967342 3.45391 2.76334e-19)
(-0.967374 3.44694 4.38193e-21)
(-0.967282 3.44 0)
(-0.967077 3.43312 0)
(-0.96677 3.4263 -2.72481e-19)
(-0.966371 3.41955 2.64304e-19)
(-0.96589 3.41287 -2.05184e-21)
(-0.965334 3.40629 0)
(-0.964712 3.3998 1.98987e-21)
(-0.964031 3.3934 -1.95812e-21)
(-0.963298 3.38712 0)
(-0.96252 3.38094 2.43902e-19)
(-0.961703 3.37487 -4.74627e-19)
(-0.960851 3.36892 2.32732e-19)
(-0.959971 3.36308 2.29235e-19)
(-0.959066 3.35736 -2.2588e-19)
(-1.00478 3.56775 2.82247e-19)
(-1.00924 3.5628 -2.78347e-19)
(-1.01321 3.55742 9.13878e-21)
(-1.01673 3.55166 3.07327e-19)
(-1.01983 3.54556 -2.85821e-19)
(-1.02253 3.53917 -9.52083e-21)
(-1.02488 3.53253 3.0498e-19)
(-1.02688 3.52567 2.21134e-20)
(-1.02857 3.51863 -3.0424e-19)
(-1.02997 3.51143 -1.45264e-20)
(-1.03111 3.50411 -9.67969e-21)
(-1.032 3.49668 -3.18451e-19)
(-1.03266 3.48919 6.15297e-19)
(-1.03311 3.48164 -6.12015e-19)
(-1.03338 3.47407 2.95446e-19)
(-1.03347 3.46649 -3.05344e-19)
(-1.0334 3.45891 2.95836e-19)
(-1.03318 3.45136 4.62771e-21)
(-1.03283 3.44384 -2.9635e-19)
(-1.03236 3.43638 2.87416e-19)
(-1.03179 3.42898 4.47916e-21)
(-1.03112 3.42166 0)
(-1.03036 3.41441 0)
(-1.02952 3.40727 -2.77916e-19)
(-1.02862 3.40022 2.69851e-19)
(-1.02766 3.39328 2.6765e-19)
(-1.02664 3.38645 -2.61993e-19)
(-1.02558 3.37974 0)
(-1.02449 3.37315 3.99025e-21)
(-1.02336 3.36668 -2.5259e-19)
(-1.0222 3.36034 2.47359e-19)
(-1.02102 3.35414 2.43773e-19)
(-1.01982 3.34806 -2.4221e-19)
(-1.07637 3.57394 2.83058e-19)
(-1.08037 3.56828 0)
(-1.08389 3.56221 -9.45543e-21)
(-1.08695 3.55576 -1.01577e-22)
(-1.08959 3.54899 -9.77145e-21)
(-1.09184 3.54194 3.3235e-19)
(-1.09373 3.53464 -6.35403e-19)
(-1.09529 3.52713 3.23105e-19)
(-1.09653 3.51945 0)
(-1.09749 3.51163 3.27375e-19)
(-1.09818 3.50369 -3.01339e-19)
(-1.09864 3.49566 0)
(-1.09887 3.48757 3.30057e-19)
(-1.09889 3.47944 -6.38231e-19)
(-1.09873 3.47129 6.39841e-19)
(-1.0984 3.46315 7.60938e-21)
(-1.09791 3.45502 -6.26187e-19)
(-1.09728 3.44693 3.07142e-19)
(-1.09653 3.43888 -7.2658e-24)
(-1.09567 3.4309 3.07488e-19)
(-1.0947 3.423 -3.07927e-19)
(-1.09364 3.41518 0)
(-1.0925 3.40746 0)
(-1.0913 3.39985 -2.94919e-19)
(-1.09003 3.39235 -4.27349e-21)
(-1.08871 3.38496 2.8263e-19)
(-1.08734 3.37771 0)
(-1.08594 3.37058 0)
(-1.08451 3.36359 -2.10759e-21)
(-1.08305 3.35673 -2.0734e-21)
(-1.08157 3.35002 -4.07775e-21)
(-1.08008 3.34344 2.59911e-19)
(-1.07857 3.33702 -5.13345e-19)
(-1.15 3.57149 2.89394e-19)
(-1.15301 3.56477 3.18153e-19)
(-1.15557 3.55769 -3.15728e-19)
(-1.15772 3.55029 -3.19185e-19)
(-1.15948 3.54262 3.07017e-19)
(-1.16089 3.53471 0)
(-1.16197 3.52659 -1.03877e-20)
(-1.16274 3.51831 3.39688e-19)
(-1.16323 3.5099 2.25254e-20)
(-1.16345 3.50137 -6.8066e-19)
(-1.16345 3.49277 3.24641e-19)
(-1.16322 3.48411 3.34345e-19)
(-1.16279 3.47542 -3.29126e-19)
(-1.16219 3.46672 0)
(-1.16142 3.45803 -3.34688e-19)
(-1.1605 3.44936 6.57133e-19)
(-1.15944 3.44075 -3.27722e-19)
(-1.15827 3.43219 -5.05874e-21)
(-1.15699 3.42371 0)
(-1.15562 3.41532 4.96188e-21)
(-1.15416 3.40702 0)
(-1.15263 3.39884 0)
(-1.15104 3.39077 -3.06631e-19)
(-1.14939 3.38282 3.02768e-19)
(-1.1477 3.37501 0)
(-1.14597 3.36733 0)
(-1.14421 3.3598 -2.2659e-21)
(-1.14243 3.35241 -2.89686e-19)
(-1.14063 3.34518 2.79505e-19)
(-1.13883 3.33809 4.08694e-25)
(-1.13701 3.33116 -2.75567e-19)
(-1.13519 3.32439 2.71872e-19)
(-1.21775 3.57252 3.18703e-19)
(-1.22023 3.56522 -2.9647e-19)
(-1.22227 3.55756 3.24231e-19)
(-1.22391 3.54958 -3.42805e-19)
(-1.22516 3.54134 -3.34397e-19)
(-1.22607 3.53286 3.22444e-19)
(-1.22664 3.52418 0)
(-1.22692 3.51534 0)
(-1.22693 3.50637 -3.55218e-19)
(-1.22668 3.4973 3.44032e-19)
(-1.2262 3.48815 1.64202e-20)
(-1.2255 3.47895 5.4665e-21)
(-1.22461 3.46972 5.45942e-21)
(-1.22355 3.46049 -3.53621e-19)
(-1.22233 3.45129 -8.60254e-21)
(-1.22097 3.44211 3.4176e-19)
(-1.21948 3.43299 3.47401e-19)
(-1.21787 3.42395 -3.37569e-19)
(-1.21617 3.41498 0)
(-1.21438 3.40611 0)
(-1.21251 3.39735 -3.34716e-19)
(-1.21058 3.38871 3.3053e-19)
(-1.2086 3.3802 3.26933e-19)
(-1.20656 3.37182 -6.4322e-19)
(-1.2045 3.36359 3.1393e-19)
(-1.2024 3.35551 -3.1407e-19)
(-1.20028 3.34758 6.17429e-19)
(-1.19815 3.33981 -2.98727e-19)
(-1.196 3.3322 0)
(-1.19386 3.32476 2.97628e-19)
(-1.19172 3.31748 -5.77755e-19)
(-1.18958 3.31037 2.84385e-19)
(-1.2833 3.57151 -3.03983e-19)
(-1.28525 3.5637 -1.02676e-20)
(-1.28676 3.55553 1.05422e-20)
(-1.28787 3.54704 3.5272e-19)
(-1.28861 3.53828 -3.2961e-19)
(-1.28901 3.52928 2.21675e-20)
(-1.28909 3.52009 -3.66726e-19)
(-1.28887 3.51073 -1.45357e-20)
(-1.28839 3.50124 3.467e-19)
(-1.28765 3.49165 1.14289e-20)
(-1.28669 3.48199 -1.15191e-20)
(-1.28553 3.47229 -5.76583e-21)
(-1.28418 3.46256 -5.76332e-21)
(-1.28266 3.45283 -5.73343e-21)
(-1.28098 3.44313 0)
(-1.27918 3.43347 0)
(-1.27725 3.42387 -5.65941e-21)
(-1.27521 3.41435 0)
(-1.27308 3.40491 -3.66627e-19)
(-1.27087 3.39559 -1.22078e-20)
(-1.2686 3.38638 6.96795e-19)
(-1.26626 3.3773 -7.00594e-19)
(-1.26388 3.36836 3.41029e-19)
(-1.26146 3.35956 -5.3059e-21)
(-1.25901 3.35092 -2.62048e-21)
(-1.25654 3.34244 0)
(-1.25406 3.33412 3.28935e-19)
(-1.25157 3.32598 -6.44284e-19)
(-1.24908 3.31801 3.15479e-19)
(-1.2466 3.31021 0)
(-1.24413 3.3026 3.11652e-19)
(-1.24167 3.29516 -3.02884e-19)
(-1.3464 3.56871 -3.38092e-19)
(-1.34781 3.56045 6.64329e-19)
(-1.3488 3.55182 -3.36734e-19)
(-1.3494 3.54287 1.11945e-20)
(-1.34963 3.53364 -3.84746e-19)
(-1.34952 3.52417 -1.78104e-20)
(-1.3491 3.51451 7.62206e-19)
(-1.3484 3.50468 -3.83528e-19)
(-1.34743 3.49472 3.90055e-19)
(-1.34622 3.48466 -3.90494e-19)
(-1.34479 3.47453 0)
(-1.34316 3.46435 0)
(-1.34136 3.45415 -6.04932e-21)
(-1.33938 3.44395 3.98816e-19)
(-1.33727 3.43378 -3.81722e-19)
(-1.33502 3.42366 -6.01074e-21)
(-1.33266 3.4136 -3.87762e-19)
(-1.33019 3.40362 3.77215e-19)
(-1.32764 3.39374 -3.70673e-19)
(-1.32502 3.38397 3.78108e-19)
(-1.32234 3.37433 3.81772e-19)
(-1.3196 3.36482 6.30555e-21)
(-1.31682 3.35546 -3.62365e-19)
(-1.31402 3.34626 5.64963e-21)
(-1.31119 3.33722 -3.56925e-19)
(-1.30835 3.32835 3.47462e-19)
(-1.30551 3.31965 -2.71762e-21)
(-1.30267 3.31114 0)
(-1.29984 3.30282 -3.40429e-19)
(-1.29702 3.29468 -3.84564e-21)
(-1.29422 3.28674 -6.18153e-21)
(-1.29145 3.27898 3.25839e-19)
(-1.40682 3.56433 3.60152e-19)
(-1.40773 3.5557 -3.26289e-19)
(-1.40823 3.54667 1.12276e-20)
(-1.40833 3.53731 1.15474e-20)
(-1.40807 3.52767 1.18222e-20)
(-1.40747 3.51778 3.84629e-19)
(-1.40657 3.5077 -7.99286e-19)
(-1.40538 3.49745 4.02769e-19)
(-1.40395 3.48706 1.26136e-20)
(-1.40228 3.47657 0)
(-1.4004 3.466 -4.26888e-19)
(-1.39832 3.45538 -1.27161e-20)
(-1.39607 3.44475 4.09905e-19)
(-1.39367 3.43411 0)
(-1.39112 3.4235 -4.14289e-19)
(-1.38844 3.41293 4.09485e-19)
(-1.38566 3.40243 1.27036e-20)
(-1.38278 3.39202 4.08908e-19)
(-1.37982 3.3817 1.86657e-21)
(-1.37679 3.37151 -3.89369e-19)
(-1.37371 3.36144 0)
(-1.37058 3.35152 -3.96259e-19)
(-1.36742 3.34175 -6.36201e-21)
(-1.36423 3.33215 3.88117e-19)
(-1.36103 3.32272 -3.77676e-19)
(-1.35783 3.31347 3.76588e-19)
(-1.35463 3.30441 2.90465e-21)
(-1.35144 3.29554 0)
(-1.34827 3.28686 0)
(-1.34511 3.27839 2.78163e-21)
(-1.34199 3.27012 2.73957e-21)
(-1.3389 3.26205 0)
(-1.46447 3.55867 3.73671e-19)
(-1.46491 3.54978 -3.39937e-19)
(-1.46495 3.54043 3.79319e-19)
(-1.46458 3.53068 -3.91608e-19)
(-1.46385 3.52059 -1.14369e-22)
(-1.46278 3.51028 0)
(-1.46143 3.49982 0)
(-1.4598 3.48921 4.2791e-19)
(-1.45793 3.47846 -8.60449e-19)
(-1.45582 3.4676 4.19551e-19)
(-1.45351 3.45664 1.34736e-20)
(-1.45101 3.44563 0)
(-1.44834 3.43459 -4.39733e-19)
(-1.44552 3.42354 -1.19881e-20)
(-1.44256 3.41251 8.6773e-19)
(-1.43947 3.40153 -4.34691e-19)
(-1.43628 3.39061 4.36969e-19)
(-1.433 3.37978 -4.18943e-19)
(-1.42964 3.36904 0)
(-1.42622 3.35843 -1.32976e-20)
(-1.42274 3.34796 6.59418e-21)
(-1.41923 3.33763 4.22755e-19)
(-1.41569 3.32746 -4.05462e-19)
(-1.41213 3.31747 -6.4323e-21)
(-1.40857 3.30765 -1.27162e-20)
(-1.40501 3.29803 -4.05137e-19)
(-1.40145 3.2886 3.94728e-19)
(-1.39792 3.27938 3.94802e-19)
(-1.39441 3.27036 7.75253e-21)
(-1.39093 3.26155 -3.82215e-19)
(-1.38749 3.25296 -3.83748e-19)
(-1.38409 3.24458 -3.99197e-21)
(-1.51931 3.55183 -2.11717e-19)
(-1.51932 3.54279 1.71155e-19)
(-1.51893 3.53327 2.05136e-19)
(-1.51814 3.52327 -1.99647e-19)
(-1.51698 3.51286 4.22184e-19)
(-1.51549 3.50216 -4.21831e-19)
(-1.5137 3.49125 0)
(-1.51164 3.48023 1.38267e-20)
(-1.50936 3.46913 4.56779e-19)
(-1.50686 3.45794 -4.4338e-19)
(-1.50415 3.44665 0)
(-1.50126 3.43529 1.42745e-20)
(-1.49819 3.42388 1.43356e-20)
(-1.49497 3.41245 0)
(-1.49162 3.40104 0)
(-1.48814 3.38966 7.2156e-21)
(-1.48456 3.37834 -1.43795e-20)
(-1.48089 3.3671 4.56556e-19)
(-1.47714 3.35597 -4.44899e-19)
(-1.47334 3.34495 1.82927e-23)
(-1.46949 3.33408 -1.41046e-20)
(-1.4656 3.32335 0)
(-1.46169 3.31279 4.40977e-19)
(-1.45777 3.30241 -4.36641e-19)
(-1.45385 3.29222 6.81321e-21)
(-1.44993 3.28223 -3.36296e-21)
(-1.44604 3.27244 0)
(-1.44217 3.26287 -3.28197e-21)
(-1.43833 3.25351 -5.04118e-24)
(-1.43453 3.24438 -4.08277e-19)
(-1.43078 3.23547 4.0083e-19)
(-1.42707 3.22678 0)
(-1.57132 3.54397 -2.34511e-20)
(-1.57093 3.53485 2.05925e-19)
(-1.57015 3.52525 -2.13324e-19)
(-1.56898 3.51513 2.35977e-19)
(-1.56744 3.50454 -2.02936e-19)
(-1.56556 3.49357 -2.34685e-19)
(-1.56337 3.48234 2.27583e-19)
(-1.56093 3.47093 -2.7068e-19)
(-1.55826 3.45944 2.63062e-19)
(-1.55538 3.4479 1.49434e-20)
(-1.55231 3.43629 1.50544e-20)
(-1.54906 3.42461 -3.03922e-20)
(-1.54563 3.41286 -1.53093e-20)
(-1.54204 3.40108 -4.97437e-19)
(-1.53832 3.3893 9.90505e-19)
(-1.53447 3.37754 -4.93143e-19)
(-1.53052 3.36584 -4.89164e-19)
(-1.52648 3.35421 -1.08278e-20)
(-1.52237 3.34269 4.7546e-19)
(-1.5182 3.33128 7.60204e-21)
(-1.51398 3.32001 7.557e-21)
(-1.50973 3.3089 0)
(-1.50547 3.29796 -7.42798e-21)
(-1.50119 3.2872 0)
(-1.49692 3.27663 -7.2914e-21)
(-1.49267 3.26627 4.76306e-19)
(-1.48844 3.25613 -9.13748e-19)
(-1.48424 3.24621 4.48353e-19)
(-1.48008 3.23651 4.44672e-19)
(-1.47597 3.22705 -4.40116e-19)
(-1.47191 3.21783 3.38471e-21)
(-1.46791 3.20884 -3.37591e-21)
(-1.62048 3.53537 2.13551e-19)
(-1.61972 3.52617 0)
(-1.61858 3.51653 -2.24149e-19)
(-1.61708 3.5064 2.04567e-19)
(-1.61521 3.49575 -2.70256e-19)
(-1.61299 3.48463 -1.25579e-20)
(-1.61047 3.47317 2.56397e-19)
(-1.60767 3.46148 -2.56225e-19)
(-1.60465 3.44966 2.32369e-19)
(-1.60143 3.43777 -2.91925e-19)
(-1.59803 3.42585 2.3629e-19)
(-1.59445 3.41386 -2.30627e-19)
(-1.59069 3.40178 2.72643e-19)
(-1.58677 3.38967 -1.63138e-20)
(-1.5827 3.37753 2.57581e-19)
(-1.57851 3.36541 -2.51075e-19)
(-1.57422 3.35334 8.19083e-21)
(-1.56983 3.34134 0)
(-1.56537 3.32943 0)
(-1.56086 3.31764 0)
(-1.55629 3.30599 0)
(-1.5517 3.29449 5.1905e-19)
(-1.5471 3.28316 -4.98355e-19)
(-1.54249 3.27203 0)
(-1.53789 3.26109 -4.97546e-19)
(-1.5333 3.25037 -1.49251e-20)
(-1.52875 3.23987 4.91328e-19)
(-1.52423 3.2296 3.79223e-21)
(-1.51976 3.21957 -3.73685e-21)
(-1.51535 3.20978 4.75022e-19)
(-1.511 3.20024 -9.3089e-19)
(-1.50671 3.19094 4.69727e-19)
(-1.66683 3.52626 2.56471e-20)
(-1.66575 3.51704 -2.53244e-19)
(-1.6643 3.50734 2.33694e-19)
(-1.66251 3.4972 -2.44129e-19)
(-1.66036 3.48658 2.54038e-19)
(-1.65787 3.47545 0)
(-1.65505 3.46388 -3.26382e-20)
(-1.65196 3.452 2.88793e-19)
(-1.64863 3.43993 -5.71154e-21)
(-1.64511 3.42776 -5.26799e-19)
(-1.64141 3.41554 -9.7096e-21)
(-1.63754 3.40325 2.71295e-19)
(-1.63348 3.39087 -1.74083e-20)
(-1.62925 3.37843 2.83528e-19)
(-1.62488 3.36596 -2.76655e-19)