/*--------------------------------*- C++ -*----------------------------------*\
  =========                 |
  \\      /  F ield         | OpenFOAM: The Open Source CFD Toolbox
   \\    /   O peration     | Website:  https://openfoam.org
    \\  /    A nd           | Version:  10
     \\/     M anipulation  |
\*---------------------------------------------------------------------------*/
FoamFile
{
    format      ascii;
    class       volScalarField;
    location    "62000";
    object      yPlus;
}
// * * * * * * * * * * * * * * * * * * * * * * * * * * * * * * * * * * * * * //

dimensions      [0 0 0 0 0 0 0];

internalField   uniform 0;

boundaryField
{
    right
    {
        type            cyclic;
    }
    left
    {
        type            cyclic;
    }
    outerWall
    {
        type            calculated;
        value           nonuniform List<scalar> 0();
    }
    stirrerWall
    {
        type            calculated;
        value           nonuniform List<scalar> 
98
(
2.74528
2.5747
2.4146
2.26867
2.13927
2.02731
1.93291
1.85587
1.796
1.7533
1.72931
1.76663
1.84981
1.96318
2.11328
2.30843
2.59471
3.11178
4.75562
10.1831
18.8376
11.4626
11.4053
11.8901
12.4572
12.6736
12.7022
12.6459
12.5137
12.3295
12.1155
11.8491
11.5889
11.5426
11.7625
11.6783
11.5741
11.1988
11.1227
11.0784
11.0418
11.0143
10.9977
10.9923
10.9974
11.0137
11.5354
10.9387
11.8778
12.1428
12.2339
12.2782
11.3493
11.7451
11.7282
11.6817
11.6531
11.6454
11.6427
11.6097
20.5591
20.8168
21.0765
21.3398
21.6085
21.8825
22.1622
22.4483
22.741
23.0408
23.3484
23.6648
23.99
24.3242
24.6691
25.0271
25.3981
25.7815
26.1797
26.6003
27.0484
27.5073
27.9806
28.4578
28.9906
29.5734
30.2082
30.899
31.6255
32.3472
33.1161
33.9931
35.0246
36.2387
37.604
39.0017
40.5873
42.6512
)
;
    }
    top
    {
        type            empty;
    }
    bottom
    {
        type            empty;
    }
    procBoundary0to1
    {
        type            processor;
        value           uniform 0;
    }
    procBoundary0to3
    {
        type            processor;
        value           uniform 0;
    }
}


// ************************************************************************* //
