/*--------------------------------*- C++ -*----------------------------------*\
  =========                 |
  \\      /  F ield         | OpenFOAM: The Open Source CFD Toolbox
   \\    /   O peration     | Website:  https://openfoam.org
    \\  /    A nd           | Version:  10
     \\/     M anipulation  |
\*---------------------------------------------------------------------------*/
FoamFile
{
    format      ascii;
    class       surfaceScalarField;
    location    "77000";
    object      phi;
}
// * * * * * * * * * * * * * * * * * * * * * * * * * * * * * * * * * * * * * //

dimensions      [0 3 -1 0 0 0 0];

internalField   nonuniform List<scalar> 
35585
(
6.97908e-06
-4.35237e-06
6.84619e-06
-4.34262e-06
6.71331e-06
-4.32743e-06
6.58059e-06
-4.30751e-06
6.44821e-06
-4.28351e-06
6.31639e-06
-4.256e-06
6.18533e-06
-4.2255e-06
6.05526e-06
-4.19245e-06
5.92641e-06
-4.15721e-06
5.79902e-06
-4.12011e-06
5.67331e-06
-4.0814e-06
5.5495e-06
-4.04129e-06
5.42778e-06
-3.99995e-06
5.30833e-06
-3.95752e-06
5.19132e-06
-3.91409e-06
5.07688e-06
-3.86976e-06
4.96514e-06
-3.8246e-06
4.85619e-06
-3.77866e-06
4.7501e-06
-3.732e-06
4.64694e-06
-3.68467e-06
4.54674e-06
-3.6367e-06
4.44951e-06
-3.58815e-06
4.35528e-06
-3.53904e-06
4.26402e-06
-3.48943e-06
4.17573e-06
-3.43935e-06
4.09037e-06
-3.38886e-06
4.0079e-06
-3.33799e-06
3.92828e-06
-3.2868e-06
3.85145e-06
-3.23534e-06
3.77735e-06
-3.18364e-06
3.70593e-06
-3.13177e-06
3.63711e-06
-3.07976e-06
3.57084e-06
-3.02768e-06
3.50702e-06
-2.97555e-06
3.4456e-06
-2.92345e-06
3.3865e-06
-2.8714e-06
3.32964e-06
-2.81947e-06
3.27496e-06
-2.76768e-06
3.22237e-06
-2.71609e-06
3.17181e-06
-2.66473e-06
3.12321e-06
-2.61365e-06
3.07649e-06
-2.56289e-06
3.03158e-06
-2.51247e-06
2.98842e-06
-2.46243e-06
2.94694e-06
-2.41281e-06
2.90708e-06
-2.36363e-06
2.86877e-06
-2.31493e-06
-2.26673e-06
2.83195e-06
7.33575e-06
-4.20525e-06
7.18876e-06
-4.19563e-06
7.04203e-06
-4.18071e-06
6.89575e-06
-4.16122e-06
6.75009e-06
-4.13785e-06
6.60528e-06
-4.11119e-06
6.46155e-06
-4.08177e-06
6.31914e-06
-4.05004e-06
6.17831e-06
-4.01638e-06
6.03931e-06
-3.98111e-06
5.90237e-06
-3.94446e-06
5.76772e-06
-3.90665e-06
5.63558e-06
-3.86781e-06
5.50612e-06
-3.82806e-06
5.37952e-06
-3.78749e-06
5.25592e-06
-3.74616e-06
5.13543e-06
-3.7041e-06
5.01814e-06
-3.66137e-06
4.90411e-06
-3.61798e-06
4.79341e-06
-3.57397e-06
4.68606e-06
-3.52935e-06
4.58206e-06
-3.48414e-06
4.4814e-06
-3.43839e-06
4.38408e-06
-3.3921e-06
4.29005e-06
-3.34532e-06
4.19928e-06
-3.29808e-06
4.1117e-06
-3.25042e-06
4.02727e-06
-3.20237e-06
3.9459e-06
-3.15397e-06
3.86754e-06
-3.10528e-06
3.7921e-06
-3.05633e-06
3.71951e-06
-3.00717e-06
3.64968e-06
-2.95785e-06
3.58254e-06
-2.90841e-06
3.51799e-06
-2.8589e-06
3.45595e-06
-2.80937e-06
3.39634e-06
-2.75986e-06
3.33907e-06
-2.71042e-06
3.28406e-06
-2.66108e-06
3.23124e-06
-2.61191e-06
3.18051e-06
-2.56293e-06
3.1318e-06
-2.51418e-06
3.08503e-06
-2.4657e-06
3.04013e-06
-2.41753e-06
2.99703e-06
-2.3697e-06
2.95565e-06
-2.32225e-06
2.91592e-06
-2.2752e-06
-2.22859e-06
2.87778e-06
7.64431e-06
7.4828e-06
7.32182e-06
7.16153e-06
7.00216e-06
-3.97848e-06
6.84394e-06
-3.95297e-06
6.68712e-06
-3.92495e-06
6.53198e-06
-3.8949e-06
6.37879e-06
-3.86319e-06
6.22783e-06
-3.83014e-06
6.07935e-06
-3.79599e-06
5.93361e-06
-3.7609e-06
5.79081e-06
-3.72502e-06
5.65117e-06
-3.68842e-06
5.51485e-06
-3.65117e-06
5.38198e-06
-3.61329e-06
5.25268e-06
-3.57481e-06
5.12704e-06
-3.53573e-06
5.00511e-06
-3.49605e-06
4.88692e-06
-3.45579e-06
4.77251e-06
-3.41493e-06
4.66185e-06
-3.37348e-06
4.55492e-06
-3.33146e-06
4.4517e-06
-3.28888e-06
4.35213e-06
-3.24575e-06
4.25615e-06
-3.2021e-06
4.1637e-06
-3.15796e-06
4.07469e-06
-3.11336e-06
3.98904e-06
-3.06833e-06
3.90667e-06
-3.02291e-06
3.82749e-06
-2.97715e-06
3.7514e-06
-2.93108e-06
3.67831e-06
-2.88475e-06
3.60811e-06
-2.83822e-06
3.54072e-06
-2.79151e-06
3.47604e-06
-2.74469e-06
3.41398e-06
-2.69779e-06
3.35442e-06
-2.65086e-06
3.29729e-06
-2.60396e-06
3.2425e-06
-2.55711e-06
3.18994e-06
-2.51037e-06
3.13954e-06
-2.46377e-06
3.0912e-06
-2.41737e-06
3.04485e-06
-2.37118e-06
3.00041e-06
-2.32526e-06
2.95779e-06
-2.27963e-06
2.91692e-06
-2.23433e-06
-2.18939e-06
2.87773e-06
7.20733e-06
-3.80493e-06
7.03522e-06
-3.78086e-06
6.86485e-06
-3.75459e-06
6.69654e-06
-3.72658e-06
6.53058e-06
-3.69724e-06
6.36729e-06
-3.66685e-06
6.20695e-06
-3.63565e-06
6.04983e-06
-3.60378e-06
5.89617e-06
-3.57136e-06
5.74618e-06
-3.53842e-06
5.60001e-06
-3.505e-06
5.45782e-06
-3.4711e-06
5.31971e-06
-3.43669e-06
5.18575e-06
-3.40177e-06
5.05598e-06
-3.36629e-06
4.93043e-06
-3.33024e-06
4.8091e-06
-3.29359e-06
4.69195e-06
-3.25634e-06
4.57896e-06
-3.21847e-06
4.47006e-06
-3.17998e-06
4.36518e-06
-3.14088e-06
4.26426e-06
-3.10118e-06
4.16719e-06
-3.0609e-06
4.07389e-06
-3.02006e-06
3.98425e-06
-2.97869e-06
3.89818e-06
-2.93684e-06
3.81556e-06
-2.89452e-06
3.73628e-06
-2.8518e-06
3.66023e-06
-2.80871e-06
3.58731e-06
-2.76529e-06
3.5174e-06
-2.7216e-06
3.4504e-06
-2.67768e-06
3.38618e-06
-2.63358e-06
3.32466e-06
-2.58934e-06
3.26572e-06
-2.54501e-06
3.20926e-06
-2.50065e-06
3.15518e-06
-2.45629e-06
3.10339e-06
-2.41198e-06
3.05378e-06
-2.36776e-06
3.00627e-06
-2.32367e-06
2.96078e-06
-2.27976e-06
2.9172e-06
-2.23606e-06
2.87547e-06
-2.1926e-06
-2.14942e-06
2.8355e-06
7.36663e-06
-3.61648e-06
7.17994e-06
-3.59417e-06
6.99535e-06
-3.57e-06
6.81324e-06
-3.54446e-06
6.63395e-06
-3.51795e-06
6.45784e-06
-3.49074e-06
6.28523e-06
-3.46304e-06
6.11642e-06
-3.43497e-06
5.95165e-06
-3.40659e-06
5.79113e-06
-3.37791e-06
5.63504e-06
-3.34891e-06
5.4835e-06
-3.31956e-06
5.33661e-06
-3.2898e-06
5.19442e-06
-3.25957e-06
5.05695e-06
-3.22883e-06
4.92422e-06
-3.1975e-06
4.79619e-06
-3.16556e-06
4.67281e-06
-3.13296e-06
4.55403e-06
-3.09969e-06
4.43976e-06
-3.06571e-06
4.32991e-06
-3.03103e-06
4.22438e-06
-2.99565e-06
4.12307e-06
-2.95958e-06
4.02584e-06
-2.92283e-06
3.93259e-06
-2.88544e-06
3.8432e-06
-2.84744e-06
3.75752e-06
-2.80885e-06
3.67545e-06
-2.76973e-06
3.59685e-06
-2.73011e-06
3.52159e-06
-2.69004e-06
3.44955e-06
-2.64956e-06
3.38061e-06
-2.60874e-06
3.31464e-06
-2.56761e-06
3.25153e-06
-2.52623e-06
3.19115e-06
-2.48464e-06
3.1334e-06
-2.4429e-06
3.07817e-06
-2.40106e-06
3.02535e-06
-2.35915e-06
2.97483e-06
-2.31724e-06
2.92651e-06
-2.27536e-06
2.88031e-06
-2.23356e-06
2.83612e-06
-2.19187e-06
2.79385e-06
-2.15034e-06
-2.109e-06
2.75343e-06
7.48088e-06
7.27867e-06
-3.39197e-06
7.07902e-06
-3.37035e-06
6.88237e-06
-3.34781e-06
6.68913e-06
-3.32471e-06
6.49971e-06
-3.30132e-06
6.31445e-06
-3.27779e-06
6.13368e-06
-3.25419e-06
5.95764e-06
-3.23055e-06
5.78654e-06
-3.20681e-06
5.62055e-06
-3.18292e-06
5.45977e-06
-3.15878e-06
5.30427e-06
-3.1343e-06
5.15408e-06
-3.10939e-06
5.00921e-06
-3.08395e-06
4.86962e-06
-3.05791e-06
4.73526e-06
-3.0312e-06
4.60605e-06
-3.00375e-06
4.48189e-06
-2.97553e-06
4.36269e-06
-2.94651e-06
4.24831e-06
-2.91666e-06
4.13864e-06
-2.88598e-06
4.03354e-06
-2.85448e-06
3.93287e-06
-2.82216e-06
3.83648e-06
-2.78906e-06
3.74423e-06
-2.75519e-06
3.65598e-06
-2.7206e-06
3.57159e-06
-2.68533e-06
3.49089e-06
-2.64941e-06
3.41376e-06
-2.6129e-06
3.34004e-06
-2.57585e-06
3.26961e-06
-2.53831e-06
3.20233e-06
-2.50032e-06
3.13806e-06
-2.46196e-06
3.07668e-06
-2.42326e-06
3.01806e-06
-2.38428e-06
2.96208e-06
-2.34508e-06
2.90862e-06
-2.3057e-06
2.85758e-06
-2.2662e-06
2.80884e-06
-2.22662e-06
2.7623e-06
-2.18701e-06
2.71785e-06
-2.14742e-06
2.67541e-06
-2.1079e-06
-2.06847e-06
2.63488e-06
7.32918e-06
7.11356e-06
6.90164e-06
-3.13589e-06
6.6939e-06
-3.11698e-06
6.49079e-06
-3.0982e-06
6.29267e-06
-3.07967e-06
6.09986e-06
-3.06138e-06
5.9126e-06
-3.04329e-06
5.73109e-06
-3.0253e-06
5.55545e-06
-3.00728e-06
5.38577e-06
-2.98909e-06
5.22207e-06
-2.9706e-06
5.06435e-06
-2.95167e-06
4.91257e-06
-2.93218e-06
4.76666e-06
-2.91201e-06
4.62653e-06
-2.89107e-06
4.49207e-06
-2.86929e-06
4.36314e-06
-2.8466e-06
4.23961e-06
-2.82297e-06
4.12132e-06
-2.79837e-06
4.00813e-06
-2.77278e-06
3.89985e-06
-2.7462e-06
3.79634e-06
-2.71865e-06
3.69742e-06
-2.69014e-06
3.60292e-06
-2.6607e-06
3.51269e-06
-2.63037e-06
3.42654e-06
-2.59918e-06
3.34432e-06
-2.5672e-06
3.26587e-06
-2.53445e-06
3.19104e-06
-2.50101e-06
3.11965e-06
-2.46692e-06
3.05158e-06
-2.43225e-06
2.98667e-06
-2.39704e-06
2.92478e-06
-2.36137e-06
2.86577e-06
-2.32528e-06
2.80952e-06
-2.28883e-06
2.7559e-06
-2.25208e-06
2.70478e-06
-2.21508e-06
2.65605e-06
-2.17789e-06
2.6096e-06
-2.14056e-06
2.56531e-06
-2.10314e-06
2.52309e-06
-2.06568e-06
-2.02822e-06
2.48284e-06
6.86726e-06
6.64488e-06
-2.8946e-06
6.42812e-06
-2.88145e-06
6.21735e-06
-2.8689e-06
6.01286e-06
-2.85689e-06
5.81486e-06
-2.8453e-06
5.62351e-06
-2.83394e-06
5.43888e-06
-2.82265e-06
5.261e-06
-2.81122e-06
5.08986e-06
-2.79946e-06
4.92539e-06
-2.78721e-06
4.76752e-06
-2.7743e-06
4.61613e-06
-2.76061e-06
4.47107e-06
-2.74601e-06
4.33219e-06
-2.73041e-06
4.19932e-06
-2.71374e-06
4.07229e-06
-2.69594e-06
3.95091e-06
-2.67699e-06
3.83499e-06
-2.65686e-06
3.72434e-06
-2.63555e-06
3.61876e-06
-2.61307e-06
3.51806e-06
-2.58944e-06
3.42205e-06
-2.56469e-06
3.33053e-06
-2.53885e-06
3.24333e-06
-2.51198e-06
3.16026e-06
-2.48412e-06
3.08114e-06
-2.45533e-06
3.0058e-06
-2.42567e-06
2.93407e-06
-2.39519e-06
2.86579e-06
-2.36397e-06
2.8008e-06
-2.33206e-06
2.73895e-06
-2.29952e-06
2.68009e-06
-2.26642e-06
2.62408e-06
-2.23282e-06
2.57079e-06
-2.19878e-06
2.52008e-06
-2.16437e-06
2.47183e-06
-2.12964e-06
2.42592e-06
-2.09465e-06
2.38224e-06
-2.05946e-06
2.34067e-06
-2.02411e-06
-1.98866e-06
2.30111e-06
6.53773e-06
6.30805e-06
6.08549e-06
-2.64634e-06
5.87028e-06
-2.64168e-06
5.66258e-06
-2.6376e-06
5.46248e-06
-2.63384e-06
5.26998e-06
-2.63015e-06
5.08505e-06
-2.62629e-06
4.90762e-06
-2.62203e-06
4.73756e-06
-2.61715e-06
4.57472e-06
-2.61147e-06
4.41895e-06
-2.60484e-06
4.27005e-06
-2.59711e-06
4.12782e-06
-2.58818e-06
3.99205e-06
-2.57797e-06
3.86253e-06
-2.56642e-06
3.73903e-06
-2.55349e-06
3.62133e-06
-2.53916e-06
3.50922e-06
-2.52343e-06
3.40246e-06
-2.50631e-06
3.30084e-06
-2.48782e-06
3.20414e-06
-2.46799e-06
3.11216e-06
-2.44687e-06
3.02468e-06
-2.42451e-06
2.94152e-06
-2.40096e-06
2.86247e-06
-2.37628e-06
2.78734e-06
-2.35055e-06
2.71597e-06
-2.32382e-06
2.64816e-06
-2.29616e-06
2.58375e-06
-2.26764e-06
2.52257e-06
-2.23834e-06
2.46447e-06
-2.20831e-06
2.40929e-06
-2.17764e-06
2.35689e-06
-2.14639e-06
2.30714e-06
-2.11462e-06
2.25989e-06
-2.0824e-06
2.21503e-06
-2.04979e-06
2.17243e-06
-2.01686e-06
2.13197e-06
-1.98365e-06
-1.95024e-06
2.09356e-06
5.89526e-06
5.67097e-06
5.45523e-06
5.24802e-06
5.04929e-06
-2.43141e-06
4.85891e-06
-2.43592e-06
4.67675e-06
-2.43986e-06
4.50262e-06
-2.44301e-06
4.3363e-06
-2.44516e-06
4.17758e-06
-2.44611e-06
4.02621e-06
-2.44574e-06
3.88195e-06
-2.44392e-06
3.74454e-06
-2.44057e-06
3.61374e-06
-2.43562e-06
3.48929e-06
-2.42904e-06
3.37093e-06
-2.42081e-06
3.25842e-06
-2.41092e-06
3.1515e-06
-2.3994e-06
3.04995e-06
-2.38627e-06
2.95353e-06
-2.37156e-06
2.862e-06
-2.35534e-06
2.77514e-06
-2.33765e-06
2.69273e-06
-2.31855e-06
2.61456e-06
-2.29812e-06
2.54043e-06
-2.27642e-06
2.47014e-06
-2.25353e-06
2.4035e-06
-2.22952e-06
2.34034e-06
-2.20448e-06
2.28047e-06
-2.17847e-06
2.22373e-06
-2.15158e-06
2.16997e-06
-2.12388e-06
2.11903e-06
-2.09545e-06
2.07076e-06
-2.06635e-06
2.02503e-06
-2.03667e-06
1.9817e-06
-2.00646e-06
1.94066e-06
-1.97581e-06
1.90177e-06
-1.94476e-06
-1.91339e-06
1.86493e-06
4.77977e-06
-2.22856e-06
4.58599e-06
-2.24214e-06
4.40107e-06
-2.25494e-06
4.22474e-06
-2.26668e-06
4.05673e-06
-2.27715e-06
3.89677e-06
-2.28616e-06
3.74458e-06
-2.29354e-06
3.59985e-06
-2.29919e-06
3.4623e-06
-2.30301e-06
3.33163e-06
-2.30496e-06
3.20757e-06
-2.30498e-06
3.08982e-06
-2.30306e-06
2.97812e-06
-2.29922e-06
2.8722e-06
-2.29347e-06
2.77178e-06
-2.28585e-06
2.67661e-06
-2.2764e-06
2.58646e-06
-2.26518e-06
2.50107e-06
-2.25226e-06
2.42022e-06
-2.2377e-06
2.34368e-06
-2.22158e-06
2.27126e-06
-2.20399e-06
2.20273e-06
-2.185e-06
2.13791e-06
-2.1647e-06
2.0766e-06
-2.14317e-06
2.01863e-06
-2.1205e-06
1.96382e-06
-2.09677e-06
1.91201e-06
-2.07207e-06
1.86303e-06
-2.04647e-06
1.81675e-06
-2.02006e-06
1.77301e-06
-1.99293e-06
1.73167e-06
-1.96513e-06
1.69261e-06
-1.93675e-06
1.65571e-06
-1.90786e-06
-1.87852e-06
1.62084e-06
4.46539e-06
-2.02391e-06
4.2704e-06
-2.04715e-06
4.08477e-06
-2.06931e-06
3.90819e-06
-2.0901e-06
3.74033e-06
-2.10929e-06
3.58086e-06
-2.12668e-06
3.42944e-06
-2.14213e-06
3.28576e-06
-2.15551e-06
3.14948e-06
-2.16674e-06
3.02029e-06
-2.17576e-06
2.89787e-06
-2.18256e-06
2.78192e-06
-2.18711e-06
2.67214e-06
-2.18944e-06
2.56825e-06
-2.18958e-06
2.46997e-06
-2.18756e-06
2.37702e-06
-2.18345e-06
2.28915e-06
-2.17731e-06
2.20612e-06
-2.16922e-06
2.12768e-06
-2.15926e-06
2.0536e-06
-2.1475e-06
1.98365e-06
-2.13405e-06
1.91764e-06
-2.11898e-06
1.85534e-06
-2.1024e-06
1.79657e-06
-2.0844e-06
1.74114e-06
-2.06507e-06
1.68887e-06
-2.0445e-06
1.63959e-06
-2.02279e-06
1.59314e-06
-2.00002e-06
1.54936e-06
-1.97629e-06
1.5081e-06
-1.95167e-06
1.46923e-06
-1.92626e-06
1.43262e-06
-1.90013e-06
1.39813e-06
-1.87337e-06
-1.84604e-06
1.36564e-06
4.11333e-06
-1.82001e-06
3.91951e-06
-1.85333e-06
3.7354e-06
-1.8852e-06
3.56063e-06
-1.91533e-06
3.39483e-06
-1.94349e-06
3.23763e-06
-1.96948e-06
3.08867e-06
-1.99317e-06
2.94759e-06
-2.01442e-06
2.81404e-06
-2.03319e-06
2.68768e-06
-2.0494e-06
2.56818e-06
-2.06306e-06
2.45522e-06
-2.07415e-06
2.34849e-06
-2.08271e-06
2.24769e-06
-2.08878e-06
2.15254e-06
-2.09241e-06
2.06275e-06
-2.09367e-06
1.97806e-06
-2.09263e-06
1.89822e-06
-2.08938e-06
1.82296e-06
-2.084e-06
1.75207e-06
-2.07661e-06
1.6853e-06
-2.06728e-06
1.62244e-06
-2.05612e-06
1.56328e-06
-2.04324e-06
1.50762e-06
-2.02874e-06
1.45528e-06
-2.01272e-06
1.40606e-06
-1.99528e-06
1.35979e-06
-1.97652e-06
1.31632e-06
-1.95655e-06
1.27548e-06
-1.93545e-06
1.23712e-06
-1.91332e-06
1.20111e-06
-1.89025e-06
1.1673e-06
-1.86632e-06
1.13557e-06
-1.84164e-06
-1.81626e-06
1.10579e-06
3.73219e-06
3.54191e-06
-1.66306e-06
3.36153e-06
-1.70481e-06
3.19062e-06
-1.74442e-06
3.02877e-06
-1.78165e-06
2.8756e-06
-1.81631e-06
2.73071e-06
-1.84828e-06
2.59374e-06
-1.87745e-06
2.4643e-06
-1.90375e-06
2.34206e-06
-1.92716e-06
2.22667e-06
-1.94767e-06
2.1178e-06
-1.96529e-06
2.01514e-06
-1.98005e-06
1.91839e-06
-1.99202e-06
1.82724e-06
-2.00126e-06
1.74142e-06
-2.00785e-06
1.66066e-06
-2.01187e-06
1.58469e-06
-2.01341e-06
1.51327e-06
-2.01258e-06
1.44616e-06
-2.00949e-06
1.38312e-06
-2.00424e-06
1.32394e-06
-1.99694e-06
1.2684e-06
-1.98771e-06
1.21631e-06
-1.97665e-06
1.16748e-06
-1.96388e-06
1.12171e-06
-1.94951e-06
1.07884e-06
-1.93365e-06
1.0387e-06
-1.91641e-06
1.00114e-06
-1.89788e-06
9.6599e-07
-1.87817e-06
9.33122e-07
-1.85738e-06
9.02399e-07
-1.8356e-06
8.7369e-07
-1.81293e-06
-1.78945e-06
8.46874e-07
3.14743e-06
-1.47856e-06
2.97279e-06
-1.53018e-06
2.80758e-06
-1.57921e-06
2.65138e-06
-1.62545e-06
2.50378e-06
-1.66871e-06
2.36438e-06
-1.70888e-06
2.23279e-06
-1.74586e-06
2.10866e-06
-1.77962e-06
1.99162e-06
-1.81012e-06
1.88133e-06
-1.83738e-06
1.77747e-06
-1.86143e-06
1.67973e-06
-1.88231e-06
1.58779e-06
-1.90009e-06
1.50136e-06
-1.91484e-06
1.42017e-06
-1.92666e-06
1.34395e-06
-1.93564e-06
1.27243e-06
-1.94189e-06
1.20537e-06
-1.94552e-06
1.14252e-06
-1.94665e-06
1.08366e-06
-1.94538e-06
1.02858e-06
-1.94186e-06
9.77056e-07
-1.93618e-06
9.28894e-07
-1.92849e-06
8.83903e-07
-1.91889e-06
8.419e-07
-1.90751e-06
8.02712e-07
-1.89447e-06
7.66173e-07
-1.87987e-06
7.32126e-07
-1.86383e-06
7.00422e-07
-1.84646e-06
6.70918e-07
-1.82787e-06
6.43479e-07
-1.80816e-06
6.17977e-07
-1.78742e-06
-1.76576e-06
5.94292e-07
2.74666e-06
-1.30176e-06
2.57952e-06
-1.36304e-06
2.4216e-06
-1.42129e-06
2.27246e-06
-1.47632e-06
2.13172e-06
-1.52796e-06
1.99896e-06
-1.57612e-06
1.87382e-06
-1.62072e-06
1.75594e-06
-1.66173e-06
1.64497e-06
-1.69915e-06
1.54057e-06
-1.73298e-06
1.44243e-06
-1.76329e-06
1.35023e-06
-1.79011e-06
1.26369e-06
-1.81354e-06
1.18252e-06
-1.83366e-06
1.10643e-06
-1.85058e-06
1.03518e-06
-1.86439e-06
9.68497e-07
-1.87521e-06
9.06146e-07
-1.88317e-06
8.47893e-07
-1.88839e-06
7.93512e-07
-1.891e-06
7.42788e-07
-1.89113e-06
6.95518e-07
-1.88891e-06
6.51502e-07
-1.88447e-06
6.10553e-07
-1.87794e-06
5.72493e-07
-1.86945e-06
5.37147e-07
-1.85912e-06
5.04355e-07
-1.84707e-06
4.7396e-07
-1.83344e-06
4.45815e-07
-1.81832e-06
4.19779e-07
-1.80184e-06
3.9572e-07
-1.7841e-06
3.7351e-07
-1.76522e-06
-1.74528e-06
3.5303e-07
2.35021e-06
2.19194e-06
-1.20477e-06
2.04252e-06
-1.27187e-06
1.90154e-06
-1.33534e-06
1.76861e-06
-1.39503e-06
1.64336e-06
-1.45087e-06
1.52542e-06
-1.50279e-06
1.41446e-06
-1.55077e-06
1.31015e-06
-1.59483e-06
1.21217e-06
-1.635e-06
1.12021e-06
-1.67133e-06
1.03398e-06
-1.70389e-06
9.532e-07
-1.73276e-06
8.77591e-07
-1.75806e-06
8.06894e-07
-1.77988e-06
7.40851e-07
-1.79834e-06
6.79221e-07
-1.81358e-06
6.21768e-07
-1.82572e-06
5.68265e-07
-1.83489e-06
5.18495e-07
-1.84123e-06
4.7225e-07
-1.84489e-06
4.29328e-07
-1.84599e-06
3.89539e-07
-1.84468e-06
3.52699e-07
-1.8411e-06
3.18632e-07
-1.83538e-06
2.87171e-07
-1.82766e-06
2.58156e-07
-1.81806e-06
2.31433e-07
-1.80671e-06
2.06859e-07
-1.79374e-06
1.84295e-07
-1.77927e-06
1.63611e-07
-1.76342e-06
1.44683e-07
-1.74629e-06
-1.72799e-06
1.27392e-07
1.81968e-06
-1.05631e-06
1.67958e-06
-1.13177e-06
1.54746e-06
-1.20322e-06
1.42296e-06
-1.27053e-06
1.30574e-06
-1.33365e-06
1.19546e-06
-1.39251e-06
1.09181e-06
-1.44712e-06
9.94482e-07
-1.49751e-06
9.03183e-07
-1.5437e-06
8.17629e-07
-1.58577e-06
7.37545e-07
-1.6238e-06
6.62665e-07
-1.65788e-06
5.92733e-07
-1.68812e-06
5.27499e-07
-1.71464e-06
4.66725e-07
-1.73757e-06
4.10177e-07
-1.75703e-06
3.57631e-07
-1.77317e-06
3.08872e-07
-1.78613e-06
2.6369e-07
-1.79605e-06
2.21887e-07
-1.80308e-06
1.83268e-07
-1.80737e-06
1.47649e-07
-1.80907e-06
1.14851e-07
-1.80831e-06
8.4704e-08
-1.80524e-06
5.70461e-08
-1.8e-06
3.17205e-08
-1.79273e-06
8.57908e-09
-1.78357e-06
-1.25194e-08
-1.77265e-06
-3.17101e-08
-1.76008e-06
-4.91204e-08
-1.74601e-06
-6.48725e-08
-1.73053e-06
-1.71378e-06
-7.90799e-08
1.47105e-06
-9.18182e-07
1.3407e-06
-1.00142e-06
1.2178e-06
-1.08031e-06
1.10201e-06
-1.15475e-06
9.93033e-07
-1.22467e-06
8.9057e-07
-1.29005e-06
7.94336e-07
-1.35089e-06
7.04058e-07
-1.40723e-06
6.1947e-07
-1.45911e-06
5.40312e-07
-1.50661e-06
4.66335e-07
-1.54982e-06
3.97293e-07
-1.58884e-06
3.32951e-07
-1.62378e-06
2.73076e-07
-1.65477e-06
2.17447e-07
-1.68194e-06
1.65844e-07
-1.70543e-06
1.18059e-07
-1.72539e-06
7.3885e-08
-1.74196e-06
3.3127e-08
-1.75529e-06
-4.40691e-09
-1.76555e-06
-3.89016e-08
-1.77288e-06
-7.05339e-08
-1.77743e-06
-9.94746e-08
-1.77936e-06
-1.25889e-07
-1.77882e-06
-1.49933e-07
-1.77596e-06
-1.71759e-07
-1.77091e-06
-1.9151e-07
-1.76382e-06
-2.09324e-07
-1.75483e-06
-2.25331e-07
-1.74408e-06
-2.39657e-07
-1.73168e-06
-2.52419e-07
-1.71777e-06
-1.70247e-06
-2.6373e-07
1.15279e-06
-7.90556e-07
1.03229e-06
-8.80927e-07
9.18637e-07
-9.66657e-07
8.11548e-07
-1.04766e-06
7.10758e-07
-1.12388e-06
6.16013e-07
-1.1953e-06
5.27065e-07
-1.26194e-06
4.43675e-07
-1.32384e-06
3.6561e-07
-1.38105e-06
2.92641e-07
-1.43365e-06
2.24542e-07
-1.48173e-06
1.61095e-07
-1.52539e-06
1.02085e-07
-1.56477e-06
4.73023e-08
-1.59999e-06
-3.45787e-09
-1.63118e-06
-5.03969e-08
-1.65849e-06
-9.37096e-08
-1.68207e-06
-1.33587e-07
-1.70208e-06
-1.70215e-07
-1.71867e-06
-2.03773e-07
-1.73199e-06
-2.34436e-07
-1.74222e-06
-2.62373e-07
-1.7495e-06
-2.87747e-07
-1.75399e-06
-3.10717e-07
-1.75585e-06
-3.31432e-07
-1.75524e-06
-3.50039e-07
-1.7523e-06
-3.66677e-07
-1.74718e-06
-3.81479e-07
-1.74003e-06
-3.94572e-07
-1.73098e-06
-4.06077e-07
-1.72018e-06
-4.16109e-07
-1.70774e-06
-1.6938e-06
-4.24779e-07
8.69927e-07
-6.73274e-07
7.59088e-07
-7.70088e-07
6.54457e-07
-8.62026e-07
5.55805e-07
-9.49006e-07
4.62915e-07
-1.03099e-06
3.75575e-07
-1.10796e-06
2.93582e-07
-1.17995e-06
2.16731e-07
-1.24699e-06
1.44825e-07
-1.30914e-06
7.76663e-08
-1.36649e-06
1.506e-08
-1.41912e-06
-4.31859e-08
-1.46715e-06
-9.72614e-08
-1.5107e-06
-1.47354e-07
-1.54989e-06
-1.93649e-07
-1.58488e-06
-2.36328e-07
-1.61581e-06
-2.75571e-07
-1.64283e-06
-3.11553e-07
-1.6661e-06
-3.44447e-07
-1.68577e-06
-3.74422e-07
-1.70202e-06
-4.01641e-07
-1.715e-06
-4.26265e-07
-1.72487e-06
-4.48448e-07
-1.73181e-06
-4.68341e-07
-1.73596e-06
-4.86089e-07
-1.73749e-06
-5.01832e-07
-1.73656e-06
-5.15703e-07
-1.73331e-06
-5.27833e-07
-1.7279e-06
-5.38343e-07
-1.72047e-06
-5.47352e-07
-1.71117e-06
-5.54971e-07
-1.70012e-06
-1.68747e-06
-5.61307e-07
6.25801e-07
-5.65935e-07
5.24198e-07
-6.68486e-07
4.2815e-07
-7.65977e-07
3.37482e-07
-8.58338e-07
2.52024e-07
-9.45531e-07
1.71612e-07
-1.02755e-06
9.60832e-08
-1.10442e-06
2.5275e-08
-1.17618e-06
-4.09752e-08
-1.24289e-06
-1.0283e-07
-1.30463e-06
-1.60454e-07
-1.3615e-06
-2.14009e-07
-1.41359e-06
-2.63659e-07
-1.46105e-06
-3.09569e-07
-1.50398e-06
-3.51902e-07
-1.54255e-06
-3.90819e-07
-1.57689e-06
-4.26484e-07
-1.60716e-06
-4.59057e-07
-1.63352e-06
-4.88696e-07
-1.65613e-06
-5.15556e-07
-1.67516e-06
-5.39791e-07
-1.69076e-06
-5.61552e-07
-1.70311e-06
-5.80986e-07
-1.71237e-06
-5.98233e-07
-1.71871e-06
-6.13434e-07
-1.72229e-06
-6.26723e-07
-1.72327e-06
-6.38228e-07
-1.72181e-06
-6.48073e-07
-1.71806e-06
-6.56379e-07
-1.71217e-06
-6.6326e-07
-1.70429e-06
-6.68824e-07
-1.69456e-06
-1.68311e-06
-6.73176e-07
4.22089e-07
-4.6796e-07
3.29139e-07
-5.75535e-07
2.41087e-07
-6.77925e-07
1.5781e-07
-7.75061e-07
7.9189e-08
-8.6691e-07
5.10572e-09
-9.53468e-07
-6.45589e-08
-1.03476e-06
-1.29926e-07
-1.11081e-06
-1.91122e-07
-1.1817e-06
-2.48274e-07
-1.24748e-06
-3.01511e-07
-1.30826e-06
-3.50968e-07
-1.36414e-06
-3.96781e-07
-1.41523e-06
-4.39089e-07
-1.46168e-06
-4.78033e-07
-1.50361e-06
-5.13755e-07
-1.54117e-06
-5.46398e-07
-1.57452e-06
-5.76105e-07
-1.60382e-06
-6.03022e-07
-1.62922e-06
-6.27292e-07
-1.65089e-06
-6.49054e-07
-1.669e-06
-6.68451e-07
-1.68371e-06
-6.85619e-07
-1.69521e-06
-7.00694e-07
-1.70364e-06
-7.13809e-07
-1.70918e-06
-7.25089e-07
-1.71199e-06
-7.34661e-07
-1.71224e-06
-7.42645e-07
-1.71007e-06
-7.49156e-07
-1.70566e-06
-7.54304e-07
-1.69914e-06
-7.58197e-07
-1.69066e-06
-1.68038e-06
-7.60935e-07
2.58961e-07
-3.7866e-07
1.7398e-07
-4.90555e-07
9.32457e-08
-5.9719e-07
1.6686e-08
-6.98501e-07
-5.57695e-08
-7.94454e-07
-1.24193e-07
-8.85044e-07
-1.8866e-07
-9.70288e-07
-2.49252e-07
-1.05022e-06
-3.06053e-07
-1.12489e-06
-3.59156e-07
-1.19438e-06
-4.08656e-07
-1.25876e-06
-4.54658e-07
-1.31813e-06
-4.97269e-07
-1.37262e-06
-5.36601e-07
-1.42234e-06
-5.72771e-07
-1.46744e-06
-6.05901e-07
-1.50804e-06
-6.36115e-07
-1.54431e-06
-6.63538e-07
-1.57639e-06
-6.88301e-07
-1.60445e-06
-7.10532e-07
-1.62866e-06
-7.30361e-07
-1.64917e-06
-7.47919e-07
-1.66616e-06
-7.63333e-07
-1.67979e-06
-7.76731e-07
-1.69024e-06
-7.88239e-07
-1.69767e-06
-7.97978e-07
-1.70225e-06
-8.0607e-07
-1.70414e-06
-8.12627e-07
-1.70351e-06
-8.17766e-07
-1.70052e-06
-8.21591e-07
-1.69531e-06
-8.24207e-07
-1.68805e-06
-1.67887e-06
-8.25714e-07
1.35271e-07
-2.97298e-07
5.75337e-08
-4.12818e-07
-1.65994e-08
-5.23057e-07
-8.71505e-08
-6.2795e-07
-1.54143e-07
-7.27461e-07
-2.17605e-07
-8.21582e-07
-2.77567e-07
-9.10326e-07
-3.3407e-07
-9.93719e-07
-3.87158e-07
-1.07181e-06
-4.36888e-07
-1.14465e-06
-4.83322e-07
-1.21232e-06
-5.26529e-07
-1.27493e-06
-5.66589e-07
-1.33256e-06
-6.03587e-07
-1.38535e-06
-6.37615e-07
-1.43341e-06
-6.68773e-07
-1.47688e-06
-6.97163e-07
-1.51592e-06
-7.22896e-07
-1.55066e-06
-7.46082e-07
-1.58127e-06
-7.66839e-07
-1.6079e-06
-7.85283e-07
-1.63073e-06
-8.01534e-07
-1.64991e-06
-8.1571e-07
-1.66561e-06
-8.27933e-07
-1.67802e-06
-8.38319e-07
-1.68728e-06
-8.46985e-07
-1.69358e-06
-8.54048e-07
-1.69708e-06
-8.59618e-07
-1.69794e-06
-8.63804e-07
-1.69633e-06
-8.66713e-07
-1.6924e-06
-8.68445e-07
-1.68632e-06
-1.67822e-06
-8.69098e-07
4.87985e-08
-2.23137e-07
-2.2417e-08
-3.41602e-07
-9.06595e-08
-4.54815e-07
-1.55904e-07
-5.62706e-07
-2.18128e-07
-6.65237e-07
-2.77316e-07
-7.62394e-07
-3.33458e-07
-8.54185e-07
-3.86549e-07
-9.40627e-07
-4.36599e-07
-1.02176e-06
-4.83623e-07
-1.09762e-06
-5.2765e-07
-1.1683e-06
-5.68716e-07
-1.23386e-06
-6.06869e-07
-1.29441e-06
-6.42168e-07
-1.35005e-06
-6.74677e-07
-1.4009e-06
-7.04474e-07
-1.44709e-06
-7.3164e-07
-1.48875e-06
-7.56266e-07
-1.52603e-06
-7.78447e-07
-1.55909e-06
-7.98285e-07
-1.58806e-06
-8.15883e-07
-1.61313e-06
-8.3135e-07
-1.63444e-06
-8.44796e-07
-1.65217e-06
-8.56332e-07
-1.66648e-06
-8.6607e-07
-1.67755e-06
-8.74121e-07
-1.68553e-06
-8.80595e-07
-1.69061e-06
-8.856e-07
-1.69294e-06
-8.89243e-07
-1.69269e-06
-8.91627e-07
-1.69002e-06
-8.92852e-07
-1.68509e-06
-1.67805e-06
-8.93013e-07
-3.50896e-09
-1.55475e-07
-6.88884e-08
-2.76223e-07
-1.31913e-07
-3.9179e-07
-1.92514e-07
-5.02105e-07
-2.50626e-07
-6.07125e-07
-3.06191e-07
-7.0683e-07
-3.59156e-07
-8.01219e-07
-4.0948e-07
-8.90303e-07
-4.57129e-07
-9.74107e-07
-5.02082e-07
-1.05267e-06
-5.44329e-07
-1.12605e-06
-5.83876e-07
-1.19431e-06
-6.20738e-07
-1.25755e-06
-6.54942e-07
-1.31584e-06
-6.8653e-07
-1.36931e-06
-7.15551e-07
-1.41807e-06
-7.42066e-07
-1.46224e-06
-7.66145e-07
-1.50195e-06
-7.87867e-07
-1.53736e-06
-8.07315e-07
-1.56862e-06
-8.24583e-07
-1.59586e-06
-8.39766e-07
-1.61926e-06
-8.52964e-07
-1.63897e-06
-8.6428e-07
-1.65516e-06
-8.73818e-07
-1.66801e-06
-8.81686e-07
-1.67766e-06
-8.87988e-07
-1.68431e-06
-8.92828e-07
-1.6881e-06
-8.96311e-07
-1.68921e-06
-8.98538e-07
-1.68779e-06
-8.99606e-07
-1.68402e-06
-1.67805e-06
-8.99612e-07
-2.52936e-08
-9.36729e-08
-8.54621e-08
-2.16054e-07
-1.43882e-07
-3.3337e-07
-2.00442e-07
-4.45545e-07
-2.55038e-07
-5.5253e-07
-3.07569e-07
-6.54298e-07
-3.57947e-07
-7.50841e-07
-4.06088e-07
-8.42162e-07
-4.51918e-07
-9.28276e-07
-4.95379e-07
-1.00921e-06
-5.36426e-07
-1.085e-06
-5.75026e-07
-1.15571e-06
-6.11164e-07
-1.22141e-06
-6.44836e-07
-1.28217e-06
-6.76054e-07
-1.33809e-06
-7.04843e-07
-1.38928e-06
-7.31239e-07
-1.43584e-06
-7.55293e-07
-1.4779e-06
-7.77062e-07
-1.5156e-06
-7.96617e-07
-1.54906e-06
-8.14033e-07
-1.57844e-06
-8.29396e-07
-1.60389e-06
-8.42795e-07
-1.62557e-06
-8.54322e-07
-1.64364e-06
-8.64078e-07
-1.65825e-06
-8.72161e-07
-1.66958e-06
-8.78672e-07
-1.67779e-06
-8.83714e-07
-1.68306e-06
-8.87387e-07
-1.68553e-06
-8.8979e-07
-1.68539e-06
-8.91022e-07
-1.68279e-06
-1.67789e-06
-8.91177e-07
-2.05684e-08
-7.60753e-08
-1.60547e-07
-1.30428e-07
-2.79017e-07
-1.83477e-07
-3.92496e-07
-2.35077e-07
-5.00929e-07
-2.85093e-07
-6.04282e-07
-3.33396e-07
-7.02538e-07
-3.79866e-07
-7.95692e-07
-4.24392e-07
-8.8375e-07
-4.66875e-07
-9.66726e-07
-5.07233e-07
-1.04465e-06
-5.45398e-07
-1.11755e-06
-5.81319e-07
-1.18549e-06
-6.14962e-07
-1.24853e-06
-6.46308e-07
-1.30675e-06
-6.75355e-07
-1.36023e-06
-7.02114e-07
-1.40908e-06
-7.26613e-07
-1.4534e-06
-7.48891e-07
-1.49332e-06
-7.68999e-07
-1.52895e-06
-7.86998e-07
-1.56044e-06
-8.02959e-07
-1.58793e-06
-8.16962e-07
-1.61157e-06
-8.29092e-07
-1.63151e-06
-8.39438e-07
-1.64791e-06
-8.48095e-07
-1.66093e-06
-8.55158e-07
-1.67073e-06
-8.60728e-07
-1.67749e-06
-8.64902e-07
-1.68136e-06
-8.67779e-07
-1.68251e-06
-8.69455e-07
-1.68111e-06
-1.67732e-06
-8.70028e-07
-4.48385e-08
-1.09236e-07
-9.55788e-08
-2.28277e-07
-1.45563e-07
-3.42512e-07
-1.9461e-07
-4.51882e-07
-2.42547e-07
-5.56345e-07
-2.89209e-07
-6.55876e-07
-3.3444e-07
-7.50461e-07
-3.78094e-07
-8.40096e-07
-4.20036e-07
-9.24785e-07
-4.60142e-07
-1.00454e-06
-4.9831e-07
-1.07938e-06
-5.34453e-07
-1.14935e-06
-5.68503e-07
-1.21448e-06
-6.00411e-07
-1.27484e-06
-6.30143e-07
-1.3305e-06
-6.57688e-07
-1.38153e-06
-6.83046e-07
-1.42804e-06
-7.06236e-07
-1.47013e-06
-7.2729e-07
-1.5079e-06
-7.46254e-07
-1.54148e-06
-7.63184e-07
-1.571e-06
-7.78146e-07
-1.59661e-06
-7.91218e-07
-1.61844e-06
-8.0248e-07
-1.63664e-06
-8.12023e-07
-1.65138e-06
-8.19936e-07
-1.66282e-06
-8.26317e-07
-1.67111e-06
-8.3126e-07
-1.67642e-06
-8.34864e-07
-1.67891e-06
-8.37227e-07
-1.67875e-06
-1.67611e-06
-8.38442e-07
4.11513e-09
-6.17376e-08
-4.33824e-08
-1.80779e-07
-9.06633e-08
-2.95231e-07
-1.37514e-07
-4.05031e-07
-1.83725e-07
-5.10134e-07
-2.29096e-07
-6.10505e-07
-2.73438e-07
-7.06119e-07
-3.1657e-07
-7.96964e-07
-3.58321e-07
-8.83034e-07
-3.98533e-07
-9.64327e-07
-4.37064e-07
-1.04085e-06
-4.73792e-07
-1.11262e-06
-5.08614e-07
-1.17966e-06
-5.41446e-07
-1.24201e-06
-5.72226e-07
-1.29972e-06
-6.00912e-07
-1.35285e-06
-6.27481e-07
-1.40148e-06
-6.51927e-07
-1.44568e-06
-6.74262e-07
-1.48556e-06
-6.94515e-07
-1.52123e-06
-7.12725e-07
-1.55279e-06
-7.28951e-07
-1.58038e-06
-7.43254e-07
-1.60413e-06
-7.55709e-07
-1.62419e-06
-7.664e-07
-1.64069e-06
-7.75412e-07
-1.6538e-06
-7.82838e-07
-1.66368e-06
-7.88774e-07
-1.67048e-06
-7.93316e-07
-1.67437e-06
-7.96561e-07
-1.67551e-06
-1.67406e-06
-7.98606e-07
6.67599e-08
-1.77563e-08
2.22222e-08
-1.36242e-07
-2.26298e-08
-2.50379e-07
-6.75535e-08
-3.60108e-07
-1.12308e-07
-4.65379e-07
-1.56659e-07
-5.66154e-07
-2.0038e-07
-6.62398e-07
-2.43257e-07
-7.54088e-07
-2.85086e-07
-8.41205e-07
-3.25677e-07
-9.23736e-07
-3.64851e-07
-1.00168e-06
-4.02448e-07
-1.07502e-06
-4.38329e-07
-1.14378e-06
-4.72377e-07
-1.20796e-06
-5.04496e-07
-1.2676e-06
-5.34614e-07
-1.32273e-06
-5.6268e-07
-1.37341e-06
-5.88664e-07
-1.4197e-06
-6.12555e-07
-1.46167e-06
-6.34364e-07
-1.49942e-06
-6.54115e-07
-1.53304e-06
-6.71848e-07
-1.56265e-06
-6.87619e-07
-1.58836e-06
-7.01494e-07
-1.61031e-06
-7.13545e-07
-1.62864e-06
-7.23857e-07
-1.64349e-06
-7.32519e-07
-1.65502e-06
-7.39623e-07
-1.66338e-06
-7.45267e-07
-1.66872e-06
-7.49548e-07
-1.67123e-06
-1.67104e-06
-7.52564e-07
1.39269e-07
9.74907e-08
5.48776e-08
1.16967e-08
-3.16927e-07
-3.17844e-08
-4.21898e-07
-7.53003e-08
-5.22638e-07
-1.18591e-07
-6.19107e-07
-1.61406e-07
-7.11273e-07
-2.03506e-07
-7.99104e-07
-2.44668e-07
-8.82574e-07
-2.84683e-07
-9.61661e-07
-3.23354e-07
-1.03635e-06
-3.60507e-07
-1.10662e-06
-3.95988e-07
-1.17248e-06
-4.29668e-07
-1.23392e-06
-4.6144e-07
-1.29096e-06
-4.91224e-07
-1.34362e-06
-5.18965e-07
-1.39196e-06
-5.44629e-07
-1.43601e-06
-5.68204e-07
-1.47584e-06
-5.89697e-07
-1.51155e-06
-6.09134e-07
-1.54321e-06
-6.26558e-07
-1.57094e-06
-6.42024e-07
-1.59485e-06
-6.55603e-07
-1.61506e-06
-6.67368e-07
-1.63173e-06
-6.77408e-07