/*--------------------------------*- C++ -*----------------------------------*\
  =========                 |
  \\      /  F ield         | OpenFOAM: The Open Source CFD Toolbox
   \\    /   O peration     | Website:  https://openfoam.org
    \\  /    A nd           | Version:  10
     \\/     M anipulation  |
\*---------------------------------------------------------------------------*/
FoamFile
{
    format      ascii;
    class       volScalarField;
    location    "77000";
    object      yPlus;
}
// * * * * * * * * * * * * * * * * * * * * * * * * * * * * * * * * * * * * * //

dimensions      [0 0 0 0 0 0 0];

internalField   uniform 0;

boundaryField
{
    right
    {
        type            cyclic;
    }
    left
    {
        type            cyclic;
    }
    outerWall
    {
        type            calculated;
        value           nonuniform List<scalar> 0();
    }
    stirrerWall
    {
        type            calculated;
        value           nonuniform List<scalar> 
98
(
3.30902
3.10228
2.90185
2.71212
2.53801
2.38358
2.25101
2.14113
2.05401
1.98947
1.94809
1.95294
2.03313
2.15382
2.31546
2.52842
2.83953
3.41556
5.34915
12.6197
19.7819
11.5628
11.8346
12.4426
12.9789
13.2313
13.3712
13.3766
13.2812
13.1053
12.9025
12.6726
12.4079
12.1523
11.9128
11.7108
12.1361
12.1364
12.0693
11.5844
11.258
11.3349
11.9301
12.0311
12.0477
12.0545
12.0653
12.0821
12.1057
12.1368
12.1699
11.4924
11.3443
11.3242
11.339
11.3669
11.3963
11.423
11.4408
11.4356
21.8083
22.0809
22.3572
22.6348
22.9189
23.2083
23.5039
23.8063
24.1158
24.433
24.7587
25.0935
25.4375
25.7916
26.1579
26.5376
26.9296
27.3336
27.7542
28.2016
28.6787
29.1645
29.6594
30.1553
30.7185
31.344
32.0241
32.7585
33.5211
34.2744
35.0847
36.0145
37.1083
38.3904
39.8046
41.2712
42.9442
45.1114
)
;
    }
    top
    {
        type            empty;
    }
    bottom
    {
        type            empty;
    }
    procBoundary0to1
    {
        type            processor;
        value           uniform 0;
    }
    procBoundary0to3
    {
        type            processor;
        value           uniform 0;
    }
}


// ************************************************************************* //
