/*--------------------------------*- C++ -*----------------------------------*\
  =========                 |
  \\      /  F ield         | OpenFOAM: The Open Source CFD Toolbox
   \\    /   O peration     | Website:  https://openfoam.org
    \\  /    A nd           | Version:  10
     \\/     M anipulation  |
\*---------------------------------------------------------------------------*/
FoamFile
{
    format      ascii;
    class       volScalarField;
    location    "59000";
    object      Co;
}
// * * * * * * * * * * * * * * * * * * * * * * * * * * * * * * * * * * * * * //

dimensions      [0 0 0 0 0 0 0];

internalField   nonuniform List<scalar> 
17922
(
4331.42
4320.32
4309.15
4297.92
4286.6
4275.2
4263.71
4252.12
4240.42
4228.6
4216.66
4204.59
4192.37
4179.99
4167.45
4154.73
4141.82
4128.71
4115.38
4101.81
4087.99
4073.9
4059.53
4044.84
4029.82
4014.44
3998.68
3982.51
3966.04
3949.55
3933.15
3916.84
3900.6
3884.42
3868.3
3852.22
3836.17
3820.15
3804.15
3788.17
3772.18
3756.19
3740.19
3724.18
3708.14
3692.07
3675.96
3659.81
3643.61
3627.43
3611.26
3595.03
3578.74
3562.38
3545.94
3529.42
3512.82
3496.13
3479.35
3462.48
3445.52
3428.47
3411.32
3394.09
3376.77
3359.36
3341.88
3324.32
3306.7
3289.03
3271.31
3253.56
3235.8
3218.03
3200.27
3182.53
3164.83
3147.18
3129.59
3112.08
3094.66
3077.34
3060.13
3043.04
3026.08
3009.25
2992.56
2976.02
2959.63
2943.39
2927.3
2911.37
2895.58
4207
4196.22
4185.37
4174.46
4163.47
4152.4
4141.23
4129.97
4118.61
4107.13
4095.53
4083.8
4071.93
4059.91
4047.73
4035.38
4022.84
4010.1
3997.15
3983.97
3970.55
3956.87
3942.91
3928.64
3914.05
3899.12
3883.81
3868.1
3852.11
3836.09
3820.17
3804.33
3788.56
3772.85
3757.19
3741.57
3725.99
3710.43
3694.89
3679.37
3663.84
3648.32
3632.78
3617.23
3601.66
3586.05
3570.41
3554.72
3539.01
3523.31
3507.61
3491.85
3476.03
3460.14
3444.18
3428.14
3412.02
3395.81
3379.52
3363.14
3346.67
3330.12
3313.47
3296.73
3279.91
3263.01
3246.03
3228.99
3211.88
3194.72
3177.52
3160.29
3143.04
3125.79
3108.55
3091.33
3074.14
3057
3039.93
3022.92
3006.01
2989.18
2972.46
2955.86
2939.38
2923.02
2906.8
2890.72
2874.78
2858.99
2843.34
2827.83
2812.46
4086.16
4075.68
4065.15
4054.55
4043.87
4033.11
4022.27
4011.33
4000.3
3989.15
3977.88
3966.49
3954.96
3943.28
3931.45
3919.45
3907.27
3894.9
3882.32
3869.52
3856.49
3843.2
3829.64
3815.78
3801.61
3787.11
3772.24
3756.98
3741.45
3725.89
3710.43
3695.05
3679.73
3664.47
3649.27
3634.1
3618.97
3603.86
3588.77
3573.7
3558.62
3543.54
3528.46
3513.36
3498.23
3483.08
3467.89
3452.66
3437.41
3422.17
3406.93
3391.63
3376.27
3360.84
3345.34
3329.76
3314.11
3298.37
3282.56
3266.65
3250.66
3234.58
3218.41
3202.16
3185.83
3169.42
3152.93
3136.38
3119.77
3103.11
3086.41
3069.68
3052.93
3036.18
3019.44
3002.72
2986.03
2969.39
2952.81
2936.3
2919.86
2903.52
2887.28
2871.14
2855.13
2839.23
2823.46
2807.83
2792.33
2776.96
2761.74
2746.65
2731.69
3968.79
3958.61
3948.38
3938.08
3927.71
3917.26
3906.73
3896.1
3885.38
3874.55
3863.61
3852.54
3841.34
3830
3818.51
3806.86
3795.03
3783.01
3770.79
3758.36
3745.7
3732.79
3719.62
3706.16
3692.4
3678.32
3663.88
3649.06
3633.97
3618.86
3603.85
3588.9
3574.03
3559.21
3544.45
3529.72
3515.02
3500.35
3485.7
3471.06
3456.42
3441.78
3427.13
3412.46
3397.77
3383.06
3368.31
3353.52
3338.72
3323.94
3309.14
3294.28
3279.36
3264.38
3249.33
3234.21
3219.01
3203.73
3188.37
3172.92
3157.39
3141.78
3126.08
3110.29
3094.43
3078.5
3062.49
3046.42
3030.29
3014.11
2997.9
2981.65
2965.39
2949.13
2932.87
2916.64
2900.43
2884.27
2868.16
2852.12
2836.16
2820.29
2804.5
2788.83
2773.26
2757.81
2742.48
2727.28
2712.2
2697.26
2682.44
2667.76
2653.2
3854.78
3844.9
3834.96
3824.96
3814.88
3804.73
3794.5
3784.18
3773.77
3763.25
3752.62
3741.87
3730.99
3719.98
3708.82
3697.49
3686
3674.33
3662.47
3650.39
3638.09
3625.56
3612.76
3599.69
3586.33
3572.65
3558.62
3544.23
3529.58
3514.91
3500.32
3485.81
3471.37
3456.98
3442.64
3428.33
3414.06
3399.82
3385.59
3371.37
3357.15
3342.93
3328.71
3314.47
3300.2
3285.91
3271.59
3257.23
3242.87
3228.53
3214.15
3199.73
3185.24
3170.69
3156.08
3141.39
3126.63
3111.79
3096.87
3081.87
3066.79
3051.63
3036.38
3021.05
3005.65
2990.17
2974.63
2959.02
2943.36
2927.65
2911.9
2896.13
2880.34
2864.55
2848.76
2833
2817.26
2801.56
2785.92
2770.34
2754.83
2739.41
2724.07
2708.84
2693.71
2678.69
2663.78
2649
2634.34
2619.8
2605.38
2591.09
2576.93
3744.06
3734.46
3724.8
3715.08
3705.3
3695.44
3685.5
3675.48
3665.36
3655.14
3644.82
3634.38
3623.81
3613.11
3602.27
3591.27
3580.11
3568.78
3557.25
3545.52
3533.58
3521.4
3508.98
3496.28
3483.3
3470.01
3456.39
3442.42
3428.19
3413.94
3399.77
3385.68
3371.65
3357.68
3343.75
3329.86
3316
3302.17
3288.35
3274.54
3260.74
3246.93
3233.11
3219.28
3205.43
3191.56
3177.65
3163.7
3149.77
3135.85
3121.9
3107.89
3093.82
3079.69
3065.5
3051.24
3036.9
3022.49
3008
2993.43
2978.79
2964.06
2949.25
2934.37
2919.41
2904.38
2889.28
2874.12
2858.91
2843.66
2828.37
2813.05
2797.72
2782.38
2767.05
2751.73
2736.45
2721.2
2706.01
2690.87
2675.81
2660.82
2645.92
2631.11
2616.4
2601.8
2587.31
2572.93
2558.67
2544.53
2530.5
2516.6
2502.81
3636.51
3627.18
3617.8
3608.36
3598.86
3589.28
3579.63
3569.89
3560.07
3550.14
3540.11
3529.97
3519.71
3509.32
3498.79
3488.11
3477.26
3466.25
3455.06
3443.67
3432.07
3420.24
3408.17
3395.84
3383.24
3370.33
3357.1
3343.52
3329.71
3315.87
3302.11
3288.42
3274.8
3261.23
3247.7
3234.22
3220.76
3207.32
3193.9
3180.49
3167.09
3153.68
3140.26
3126.83
3113.38
3099.91
3086.4
3072.87
3059.35
3045.84
3032.28
3018.68
3005.02
2991.3
2977.51
2963.66
2949.74
2935.74
2921.67
2907.52
2893.3
2878.99
2864.61
2850.16
2835.63
2821.03
2806.37
2791.64
2776.87
2762.06
2747.21
2732.33
2717.44
2702.54
2687.65
2672.78
2657.93
2643.13
2628.36
2613.66
2599.02
2584.45
2569.97
2555.58
2541.28
2527.08
2512.99
2499.01
2485.14
2471.38
2457.74
2444.21
2430.79
3532.05
3522.99
3513.88
3504.71
3495.48
3486.18
3476.8
3467.34
3457.8
3448.16
3438.42
3428.56
3418.6
3408.5
3398.27
3387.9
3377.37
3366.67
3355.8
3344.74
3333.47
3321.98
3310.26
3298.29
3286.04
3273.51
3260.66
3247.47
3234.05
3220.61
3207.25
3193.96
3180.73
3167.55
3154.42
3141.32
3128.25
3115.2
3102.17
3089.15
3076.13
3063.11
3050.08
3037.04
3023.98
3010.89
2997.78
2984.64
2971.52
2958.4
2945.24
2932.03
2918.76
2905.44
2892.05
2878.6
2865.08
2851.48
2837.82
2824.07
2810.26
2796.36
2782.39
2768.35
2754.24
2740.06
2725.82
2711.52
2697.17
2682.78
2668.36
2653.91
2639.45
2624.98
2610.52
2596.07
2581.65
2567.26
2552.92
2538.63
2524.4
2510.25
2496.17
2482.18
2468.28
2454.48
2440.78
2427.18
2413.69
2400.31
2387.03
2373.87
2360.81
3430.59
3421.79
3412.94
3404.04
3395.07
3386.03
3376.92
3367.74
3358.46
3349.1
3339.64
3330.07
3320.39
3310.58
3300.65
3290.57
3280.34
3269.96
3259.39
3248.65
3237.7
3226.55
3215.16
3203.53
3191.64
3179.47
3166.99
3154.18
3141.15
3128.09
3115.12
3102.21
3089.36
3076.56
3063.81
3051.09
3038.39
3025.72
3013.07
3000.42
2987.78
2975.14
2962.49
2949.82
2937.14
2924.43
2911.7
2898.95
2886.22
2873.48
2860.7
2847.86
2834.98
2822.04
2809.04
2795.97
2782.84
2769.63
2756.36
2743.01
2729.59
2716.09
2702.52
2688.88
2675.17
2661.4
2647.57
2633.68
2619.74
2605.77
2591.76
2577.72
2563.67
2549.62
2535.57
2521.54
2507.53
2493.55
2479.61
2465.73
2451.9
2438.15
2424.46
2410.86
2397.35
2383.93
2370.6
2357.38
2344.26
2331.24
2318.33
2305.52
2292.82
3332.05
3323.5
3314.9
3306.25
3297.54
3288.76
3279.92
3270.99
3261.99
3252.89
3243.7
3234.4
3225
3215.48
3205.83
3196.04
3186.1
3176.01
3165.76
3155.32
3144.69
3133.85
3122.8
3111.5
3099.95
3088.12
3076.01
3063.57
3050.91
3038.23
3025.63
3013.1
3000.62
2988.19
2975.8
2963.45
2951.12
2938.82
2926.53
2914.25
2901.97
2889.69
2877.41
2865.11
2852.8
2840.46
2828.09
2815.72
2803.36
2790.99
2778.57
2766.11
2753.6
2741.03
2728.4
2715.71
2702.95
2690.13
2677.23
2664.26
2651.23
2638.11
2624.93
2611.68
2598.37
2584.99
2571.55
2558.06
2544.52
2530.94
2517.34
2503.7
2490.06
2476.4
2462.75
2449.12
2435.51
2421.92
2408.38
2394.89
2381.45
2368.08
2354.78
2341.56
2328.42
2315.37
2302.41
2289.55
2276.79
2264.13
2251.57
2239.11
2226.75
3236.33
3228.03
3219.68
3211.27
3202.81
3194.29
3185.69
3177.02
3168.28
3159.44
3150.51
3141.49
3132.35
3123.1
3113.73
3104.22
3094.57
3084.77
3074.81
3064.67
3054.35
3043.82
3033.08
3022.11
3010.89
2999.41
2987.64
2975.56
2963.27
2950.95
2938.71
2926.54
2914.42
2902.35
2890.32
2878.33
2866.36
2854.41
2842.47
2830.55
2818.63
2806.7
2794.77
2782.83
2770.87
2758.89
2746.88
2734.87
2722.88
2710.87
2698.81
2686.7
2674.55
2662.34
2650.07
2637.74
2625.35
2612.89
2600.37
2587.77
2575.1
2562.37
2549.56
2536.69
2523.75
2510.75
2497.7
2484.59
2471.44
2458.25
2445.03
2431.79
2418.53
2405.26
2392
2378.76
2365.53
2352.33
2339.17
2326.06
2313
2300
2287.07
2274.22
2261.44
2248.75
2236.15
2223.65
2211.23
2198.92
2186.7
2174.58
2162.56
3143.36
3135.3
3127.19
3119.02
3110.81
3102.52
3094.18
3085.76
3077.26
3068.68
3060.01
3051.24
3042.36
3033.38
3024.27
3015.04
3005.67
2996.15
2986.47
2976.63
2966.6
2956.38
2945.94
2935.29
2924.39
2913.24
2901.81
2890.08
2878.14
2866.18
2854.29
2842.47
2830.7
2818.98
2807.3
2795.65
2784.02
2772.42
2760.83
2749.25
2737.67
2726.1
2714.51
2702.91
2691.3
2679.66
2668
2656.35
2644.71
2633.04
2621.33
2609.57
2597.76
2585.9
2573.99
2562.01
2549.97
2537.87
2525.7
2513.46
2501.16
2488.78
2476.34
2463.84
2451.27
2438.64
2425.95
2413.22
2400.44
2387.63
2374.78
2361.92
2349.04
2336.15
2323.26
2310.39
2297.53
2284.71
2271.92
2259.17
2246.48
2233.85
2221.28
2208.78
2196.36
2184.02
2171.77
2159.6
2147.53
2135.56
2123.67
2111.89
2100.2
3053.07
3045.23
3037.35
3029.42
3021.44
3013.4
3005.29
2997.11
2988.86
2980.52
2972.1
2963.58
2954.96
2946.23
2937.39
2928.42
2919.32
2910.07
2900.67
2891.11
2881.37
2871.44
2861.31
2850.96
2840.38
2829.55
2818.44
2807.05
2795.45
2783.84
2772.3
2760.82
2749.39
2738
2726.66
2715.34
2704.06
2692.79
2681.53
2670.29
2659.05
2647.8
2636.55
2625.29
2614.01
2602.71
2591.39
2580.08
2568.78
2557.44
2546.07
2534.65
2523.18
2511.66
2500.08
2488.45
2476.75
2464.99
2453.17
2441.28
2429.32
2417.3
2405.21
2393.06
2380.85
2368.58
2356.25
2343.88
2331.47
2319.02
2306.53
2294.03
2281.52
2268.99
2256.47
2243.96
2231.47
2219
2206.57
2194.18
2181.85
2169.56
2157.34
2145.19
2133.12
2121.12
2109.2
2097.38
2085.64
2073.99
2062.44
2050.97
2039.61
2965.36
2957.75
2950.1
2942.4
2934.64
2926.83
2918.95
2911.01
2902.99
2894.89
2886.71
2878.44
2870.07
2861.59
2853
2844.29
2835.45
2826.47
2817.34
2808.05
2798.59
2788.95
2779.11
2769.06
2758.78
2748.26
2737.47
2726.41
2715.15
2703.87
2692.66
2681.51
2670.41
2659.35
2648.33
2637.35
2626.38
2615.44
2604.51
2593.59
2582.68
2571.76
2560.83
2549.9
2538.94
2527.97
2516.98
2506
2495.03
2484.01
2472.96
2461.87
2450.73
2439.54
2428.29
2416.99
2405.63
2394.2
2382.71
2371.16
2359.54
2347.86
2336.11
2324.3
2312.44
2300.51
2288.54
2276.52
2264.45
2252.35
2240.23
2228.08
2215.91
2203.74
2191.58
2179.42
2167.28
2155.16
2143.08
2131.03
2119.04
2107.1
2095.22
2083.41
2071.66
2060
2048.41
2036.91
2025.5
2014.17
2002.94
1991.79
1980.74
2880.18
2872.79
2865.35
2857.87
2850.34
2842.75
2835.1
2827.38
2819.59
2811.73
2803.78
2795.74
2787.61
2779.38
2771.04
2762.58
2753.99
2745.27
2736.4
2727.38
2718.19
2708.82
2699.26
2689.5
2679.52
2669.3
2658.83
2648.08
2637.14
2626.19
2615.3
2604.47
2593.69
2582.96
2572.26
2561.59
2550.94
2540.32
2529.7
2519.1
2508.5
2497.89
2487.29
2476.67
2466.03
2455.38
2444.71
2434.05
2423.39
2412.69
2401.96
2391.18
2380.36
2369.48
2358.56
2347.57
2336.53
2325.43
2314.27
2303.04
2291.75
2280.4
2268.99
2257.51
2245.98
2234.39
2222.75
2211.07
2199.35
2187.59
2175.8
2164
2152.17
2140.35
2128.52
2116.7
2104.9
2093.12
2081.38
2069.67
2058.01
2046.4
2034.85
2023.37
2011.95
2000.61
1989.35
1978.16
1967.06
1956.05
1945.13
1934.3
1923.56
2797.44
2790.26
2783.04
2775.77
2768.45
2761.08
2753.65
2746.15
2738.59
2730.95
2723.23
2715.42
2707.53
2699.53
2691.43
2683.21
2674.87
2666.39
2657.78
2649.02
2640.09
2631
2621.71
2612.23
2602.54
2592.61
2582.44
2572.01
2561.38
2550.74
2540.17
2529.65
2519.19
2508.76
2498.37
2488.01
2477.67
2467.35
2457.04
2446.74
2436.45
2426.15
2415.85
2405.54
2395.21
2384.86
2374.51
2364.16
2353.8
2343.41
2332.98
2322.51
2312
2301.43
2290.82
2280.15
2269.42
2258.63
2247.78
2236.87
2225.9
2214.87
2203.77
2192.62
2181.41
2170.15
2158.84
2147.49
2136.09
2124.67
2113.21
2101.74
2090.25
2078.75
2067.25
2055.77
2044.3
2032.85
2021.43
2010.05
1998.71
1987.43
1976.2
1965.03
1953.93
1942.9
1931.95
1921.08
1910.29
1899.59
1888.97
1878.44
1868
2744.66
2737.8
2730.92
2724.01
2717.07
2710.1
2703.08
2696.02
2688.92
2681.76
2674.54
2667.26
2659.91
2652.49
2644.99
2637.41
2629.74
2621.97
2614.1
2606.12
2598.02
2589.79
2581.42
2572.91
2564.24
2555.41
2546.39
2537.18
2527.77
2518.13
2508.25
2498.11
2487.8
2477.47
2467.2
2456.98
2446.82
2436.69
2426.6
2416.54
2406.5
2396.48
2386.47
2376.47
2366.47
2356.47
2346.47
2336.45
2326.42
2316.38
2306.32
2296.27
2286.21
2276.12
2265.99
2255.81
2245.6
2235.33
2225.01
2214.64
2204.22
2193.73
2183.19
2172.59
2161.93
2151.2
2140.42
2129.58
2118.69
2107.74
2096.75
2085.71
2074.64
2063.53
2052.4
2041.24
2030.07
2018.9
2007.73
1996.56
1985.41
1974.28
1963.18
1952.11
1941.09
1930.12
1919.2
1908.35
1897.55
1886.83
1876.19
1865.62
1855.13
1844.73
1834.41
1824.17
1814.03
2665.81
2659.15
2652.47
2645.76
2639.01
2632.24
2625.43
2618.57
2611.67
2604.71
2597.7
2590.63
2583.49
2576.28
2569
2561.64
2554.19
2546.64
2539
2531.24
2523.37
2515.38
2507.26
2498.99
2490.57
2481.99
2473.23
2464.29
2455.14
2445.78
2436.19
2426.34
2416.32
2406.29
2396.32
2386.4
2376.52
2366.69
2356.89
2347.12
2337.37
2327.64
2317.92
2308.21
2298.5
2288.79
2279.07
2269.35
2259.61
2249.85
2240.09
2230.33
2220.56
2210.75
2200.91
2191.02
2181.09
2171.12
2161.09
2151.02
2140.88
2130.7
2120.45
2110.14
2099.78
2089.36
2078.87
2068.34
2057.75
2047.11
2036.42
2025.7
2014.93
2004.13
1993.31
1982.47
1971.61
1960.75
1949.89
1939.03
1928.19
1917.37
1906.58
1895.82
1885.11
1874.44
1863.82
1853.27
1842.78
1832.35
1822
1811.73
1801.54
1791.43
1781.4
1771.46
1761.6
2589.22
2582.75
2576.26
2569.74
2563.2
2556.62
2550
2543.34
2536.63
2529.88
2523.07
2516.2
2509.27
2502.27
2495.19
2488.04
2480.8
2473.47
2466.05
2458.52
2450.87
2443.11
2435.22
2427.19
2419.01
2410.68
2402.17
2393.49
2384.61
2375.51
2366.2
2356.64
2346.9
2337.16
2327.47
2317.84
2308.25
2298.7
2289.18
2279.69
2270.23
2260.77
2251.34
2241.91
2232.48
2223.05
2213.62
2204.17
2194.72
2185.24
2175.76
2166.28
2156.78
2147.26
2137.69
2128.09
2118.44
2108.75
2099
2089.21
2079.36
2069.46
2059.5
2049.48
2039.4
2029.27
2019.08
2008.84
1998.55
1988.2
1977.82
1967.39
1956.92
1946.43
1935.9
1925.36
1914.81
1904.25
1893.69
1883.13
1872.59
1862.07
1851.58
1841.12
1830.7
1820.33
1810.01
1799.75
1789.55
1779.42
1769.36
1759.38
1749.47
1739.64
1729.9
1720.24
1710.67
2533.56
2527.33
2521.09
2514.83
2508.55
2502.25
2495.92
2489.56
2483.16
2476.74
2470.27
2463.75
2457.19
2450.58
2443.91
2437.17
2430.37
2423.5
2416.56
2409.53
2402.41
2395.2
2387.88
2380.46
2372.92
2365.25
2357.45
2349.51
2341.42
2333.16
2324.72
2316.09
2307.26
2298.21
2288.93
2279.48
2270.01
2260.61
2251.25
2241.94
2232.66
2223.42
2214.21
2205.01
2195.83
2186.67
2177.51
2168.35
2159.2
2150.04
2140.87
2131.68
2122.48
2113.28
2104.07
2094.84
2085.58
2076.29
2066.95
2057.58
2048.16
2038.69
2029.17
2019.6
2009.97
2000.29
1990.55
1980.75
1970.9
1961
1951.04
1941.03
1930.98
1920.88
1910.74
1900.56
1890.36
1880.13
1869.88
1859.62
1849.35
1839.08
1828.82
1818.57
1808.34
1798.14
1787.97
1777.85
1767.76
1757.73
1747.75
1737.84
1727.99
1718.21
1708.51
1698.88
1689.34
1679.87
1670.49
1661.19
2460.76
2454.72
2448.66
2442.58
2436.48
2430.35
2424.21
2418.03
2411.82
2405.58
2399.29
2392.97
2386.59
2380.17
2373.69
2367.15
2360.55
2353.87
2347.13
2340.3
2333.38
2326.38
2319.27
2312.06
2304.74
2297.3
2289.72
2282.01
2274.14
2266.12
2257.93
2249.55
2240.97
2232.18
2223.17
2213.99
2204.8
2195.66
2186.57
2177.53
2168.52
2159.55
2150.6
2141.67
2132.75
2123.85
2114.96
2106.07
2097.18
2088.28
2079.38
2070.46
2061.53
2052.58
2043.63
2034.67
2025.67
2016.64
2007.57
1998.46
1989.3
1980.1
1970.84
1961.54
1952.18
1942.77
1933.3
1923.77
1914.2
1904.57
1894.89
1885.15
1875.38
1865.56
1855.7
1845.81
1835.88
1825.94
1815.97
1805.99
1796.01
1786.02
1776.05
1766.08
1756.14
1746.22
1736.33
1726.48
1716.68
1706.93
1697.23
1687.59
1678.02
1668.52
1659.09
1649.74
1640.46
1631.26
1622.15
1613.12
2390.06
2384.19
2378.3
2372.4
2366.47
2360.53
2354.56
2348.56
2342.53
2336.46
2330.36
2324.21
2318.02
2311.78
2305.49
2299.14
2292.72
2286.24
2279.69
2273.06
2266.34
2259.54
2252.64
2245.63
2238.52
2231.29
2223.93
2216.44
2208.8
2201.01
2193.05
2184.92
2176.59
2168.05
2159.29
2150.38
2141.45
2132.58
2123.75
2114.97
2106.22
2097.51
2088.81
2080.14
2071.49
2062.84
2054.21
2045.57
2036.94
2028.3
2019.65
2010.99
2002.32
1993.63
1984.93
1976.22
1967.48
1958.7
1949.89
1941.03
1932.13
1923.18
1914.18
1905.14
1896.04
1886.89
1877.68
1868.42
1859.11
1849.75
1840.33
1830.87
1821.36
1811.81
1802.22
1792.6
1782.96
1773.28
1763.59
1753.89
1744.18
1734.47
1724.77
1715.08
1705.41
1695.77
1686.16
1676.58
1667.05
1657.57
1648.14
1638.78
1629.47
1620.24
1611.08
1601.99
1592.98
1584.05
1575.19
1566.43
2321.38
2315.68
2309.96
2304.23
2298.48
2292.7
2286.9
2281.08
2275.22
2269.33
2263.4
2257.43
2251.42
2245.36
2239.25
2233.08
2226.85
2220.55
2214.19
2207.74
2201.22
2194.61
2187.91
2181.11
2174.2
2167.18
2160.03
2152.76
2145.34
2137.77
2130.04
2122.14
2114.05
2105.76
2097.25
2088.6
2079.93
2071.31
2062.74
2054.21
2045.71
2037.25
2028.81
2020.38
2011.98
2003.58
1995.2
1986.81
1978.43
1970.04
1961.64
1953.23
1944.81
1936.37
1927.92
1919.45
1910.95
1902.42
1893.85
1885.24
1876.59
1867.89
1859.15
1850.35
1841.5
1832.6
1823.65
1814.65
1805.6
1796.52
1787.4
1778.24
1769.03
1759.79
1750.51
1741.19
1731.85
1722.48
1713.09
1703.68
1694.26
1684.84
1675.41
1665.98
1656.57
1647.16
1637.78
1628.42
1619.09
1609.79
1600.52
1591.36
1582.3
1573.33
1564.43
1555.6
1546.85
1538.17
1529.58
1521.06
2254.68
2249.14
2243.59
2238.02
2232.43
2226.83
2221.19
2215.53
2209.85
2204.12
2198.37
2192.57
2186.73
2180.84
2174.91
2168.91
2162.86
2156.75
2150.56
2144.31
2137.97
2131.55
2125.04
2118.44
2111.73
2104.91
2097.97
2090.9
2083.7
2076.35
2068.84
2061.16
2053.31
2045.26
2037
2028.59
2020.17
2011.8
2003.47
1995.19
1986.94
1978.72
1970.52
1962.34
1954.18
1946.03
1937.88
1929.74
1921.6
1913.45
1905.29
1897.13
1888.95
1880.75
1872.53
1864.3
1856.04
1847.75
1839.42
1831.05
1822.64
1814.18
1805.68
1797.13
1788.55
1779.93
1771.27
1762.55
1753.79
1744.99
1736.15
1727.26
1718.33
1709.36
1700.36
1691.33
1682.27
1673.18
1664.08
1654.96
1645.83
1636.69
1627.56
1618.42
1609.3
1600.19
1591.1
1582.03
1572.99
1563.98
1555
1546.07
1537.17
1528.33
1519.52
1510.77
1502.1
1493.61
1485.26
1476.99
2189.89
2184.51
2179.12
2173.71
2168.29
2162.84
2157.37
2151.87
2146.35
2140.79
2135.2
2129.57
2123.9
2118.18
2112.41
2106.59
2100.72
2094.78
2088.77
2082.69
2076.54
2070.31
2063.98
2057.57
2051.05
2044.42
2037.68
2030.82
2023.82
2016.69
2009.39
2001.94
1994.31
1986.49
1978.47
1970.3
1962.12
1953.99
1945.91
1937.86
1929.85
1921.87
1913.91
1905.96
1898.04
1890.12
1882.21
1874.3
1866.39
1858.48
1850.56
1842.63
1834.69
1826.73
1818.75
1810.74
1802.71
1794.65
1786.55
1778.43
1770.27
1762.06
1753.82
1745.54
1737.22
1728.85
1720.44
1711.98
1703.48
1694.94
1686.36
1677.74
1669.08
1660.38
1651.65
1642.89
1634.11
1625.3
1616.47
1607.64
1598.79
1589.93
1581.08
1572.23
1563.39
1554.56
1545.75
1536.97
1528.21
1519.48
1510.79
1502.13
1493.52
1484.95
1476.42
1467.94
1459.51
1451.12
1442.79
1434.5
2126.96
2121.74
2116.5
2111.25
2105.98
2100.69
2095.38
2090.04
2084.67
2079.28
2073.84
2068.38
2062.87
2057.31
2051.71
2046.06
2040.35
2034.58
2028.75
2022.85
2016.87
2010.82
2004.68
1998.44
1992.11
1985.68
1979.13
1972.47
1965.67
1958.74
1951.66
1944.42
1937
1929.41
1921.62
1913.69
1905.74
1897.85
1890
1882.19
1874.4
1866.65
1858.92
1851.2
1843.51
1835.82
1828.14
1820.46
1812.78
1805.09
1797.4
1789.7
1781.99
1774.26
1766.51
1758.73
1750.93
1743.11
1735.25
1727.36
1719.43
1711.47
1703.47
1695.43
1687.35
1679.23
1671.06
1662.86
1654.61
1646.33
1638
1629.63
1621.23
1612.8
1604.33
1595.84
1587.33
1578.79
1570.23
1561.67
1553.09
1544.51
1535.93
1527.36
1518.79
1510.24
1501.71
1493.2
1484.72
1476.26
1467.84
1459.46
1451.12
1442.82
1434.56
1426.35
1418.18
1410.06
1401.98
1393.95
2065.83
2060.76
2055.68
2050.58
2045.46
2040.32
2035.16
2029.98
2024.77
2019.53
2014.25
2008.94
2003.59
1998.2
1992.76
1987.27
1981.72
1976.12
1970.45
1964.72
1958.92
1953.04
1947.07
1941.02
1934.87
1928.62
1922.26
1915.79
1909.19
1902.45
1895.58
1888.54
1881.35
1873.97
1866.4
1858.7
1850.99
1843.32
1835.69
1828.1
1820.55
1813.02
1805.51
1798.02
1790.54
1783.07
1775.61
1768.16
1760.7
1753.24
1745.77
1738.29
1730.8
1723.29
1715.76
1708.21
1700.64
1693.04
1685.41
1677.75
1670.06
1662.33
1654.56
1646.76
1638.91
1631.03
1623.11
1615.14
1607.14
1599.1
1591.02
1582.91
1574.76
1566.58
1558.37
1550.14
1541.88
1533.61
1525.32
1517.01
1508.7
1500.39
1492.08
1483.77
1475.48
1467.19
1458.93
1450.69
1442.47
1434.29
1426.13
1418.02
1409.94
1401.9
1393.9
1385.95
1378.04
1370.18
1362.35
1354.58
2006.46
2001.54
1996.6
1991.65
1986.68
1981.69
1976.68
1971.65
1966.58
1961.49
1956.37
1951.21
1946.01
1940.78
1935.49
1930.16
1924.77
1919.33
1913.83
1908.26
1902.63
1896.91
1891.12
1885.24
1879.27
1873.2
1867.02
1860.74
1854.33
1847.79
1841.11
1834.28
1827.29
1820.12
1812.77
1805.29
1797.8
1790.35
1782.95
1775.58
1768.24
1760.92
1753.63
1746.36
1739.09
1731.84
1724.6
1717.36
1710.11
1702.87
1695.61
1688.35
1681.08
1673.78
1666.48
1659.15
1651.79
1644.41
1637
1629.57
1622.1
1614.59
1607.05
1599.48
1591.86
1584.21
1576.52
1568.8
1561.03
1553.23
1545.39
1537.52
1529.62
1521.69
1513.73
1505.75
1497.74
1489.72
1481.68
1473.64
1465.59
1457.53
1449.48
1441.43
1433.4
1425.38
1417.37
1409.39
1401.44
1393.51
1385.62
1377.76
1369.94
1362.16
1354.41
1346.72
1339.06
1331.44
1323.87
1316.35
1948.8
1944.02
1939.22
1934.41
1929.59
1924.74
1919.87
1914.98
1910.07
1905.12
1900.15
1895.14
1890.09
1885
1879.87
1874.69
1869.46
1864.18
1858.83
1853.43
1847.95
1842.4
1836.77
1831.06
1825.27
1819.37
1813.37
1807.26
1801.04
1794.69
1788.2
1781.57
1774.78
1767.82
1760.68
1753.42
1746.14
1738.91
1731.71
1724.56
1717.43
1710.32
1703.24
1696.18
1689.12
1682.08
1675.04
1668.01
1660.98
1653.94
1646.9
1639.84
1632.78
1625.7
1618.6
1611.48
1604.34
1597.18
1589.98
1582.76
1575.51
1568.22
1560.9
1553.55
1546.16
1538.73
1531.27
1523.77
1516.24
1508.67
1501.07
1493.43
1485.77
1478.08
1470.36
1462.62
1454.86
1447.09
1439.3
1431.5
1423.7
1415.9
1408.1
1400.31
1392.52
1384.76
1377.01
1369.28
1361.58
1353.91
1346.27
1338.66
1331.09
1323.56
1316.06
1308.61
1301.2
1293.83
1286.5
1279.22
1892.79
1888.14
1883.49
1878.82
1874.13
1869.43
1864.7
1859.95
1855.18
1850.37
1845.54
1840.68
1835.77
1830.83
1825.85
1820.82
1815.74
1810.6
1805.41
1800.16
1794.84
1789.45
1783.99
1778.44
1772.81
1767.09
1761.26
1755.33
1749.28
1743.11
1736.81
1730.37
1723.78
1717.02
1710.09
1703.03
1695.96
1688.94
1681.95
1675
1668.08
1661.18
1654.3
1647.44
1640.59
1633.75
1626.91
1620.08
1613.25
1606.42
1599.58
1592.73
1585.87
1578.99
1572.1
1565.19
1558.25
1551.29
1544.31
1537.3
1530.25
1523.18
1516.08
1508.94
1501.76
1494.56
1487.32
1480.04
1472.73
1465.39
1458.01
1450.61
1443.17
1435.71
1428.23
1420.73
1413.21
1405.67
1398.12
1390.57
1383.01
1375.46
1367.9
1360.36
1352.82
1345.3
1337.8
1330.32
1322.86
1315.44
1308.04
1300.68
1293.35
1286.06
1278.81
1271.6
1264.43
1257.3
1250.21
1243.16
1838.39
1833.88
1829.36
1824.82
1820.27
1815.7
1811.11
1806.5
1801.86
1797.2
1792.5
1787.78
1783.01
1778.22
1773.37
1768.49
1763.56
1758.57
1753.53
1748.43
1743.26
1738.03
1732.72
1727.33
1721.86
1716.3
1710.64
1704.88
1699.01
1693.02
1686.9
1680.64
1674.24
1667.68
1660.94
1654.09
1647.23
1640.4
1633.62
1626.86
1620.14
1613.44
1606.76
1600.09
1593.44
1586.8
1580.16
1573.53
1566.89
1560.26
1553.61
1546.96
1540.3
1533.62
1526.93
1520.22
1513.48
1506.72
1499.94
1493.13
1486.3
1479.43
1472.53
1465.6
1458.64
1451.64
1444.62
1437.56
1430.46
1423.34
1416.18
1409
1401.79
1394.56
1387.3
1380.03
1372.74
1365.44
1358.13
1350.81
1343.49
1336.17
1328.85
1321.55
1314.25
1306.97
1299.71
1292.47
1285.25
1278.07
1270.91
1263.79
1256.7
1249.65
1242.63
1235.66
1228.72
1221.82
1214.96
1208.14
1785.55
1781.17
1776.78
1772.37
1767.95
1763.51
1759.06
1754.58
1750.07
1745.54
1740.98
1736.39
1731.77
1727.11
1722.41
1717.66
1712.87
1708.03
1703.13
1698.18
1693.16
1688.08
1682.92
1677.69
1672.38
1666.98
1661.48
1655.89
1650.18
1644.36
1638.42
1632.34
1626.12
1619.75
1613.21
1606.56
1599.89
1593.26
1586.67
1580.11
1573.58
1567.07
1560.58
1554.11
1547.65
1541.2
1534.76
1528.31
1521.87
1515.42
1508.97
1502.51
1496.04
1489.55
1483.05
1476.53
1469.99
1463.43
1456.85
1450.24
1443.6
1436.93
1430.23
1423.51
1416.75
1409.96
1403.14
1396.29
1389.4
1382.49
1375.55
1368.58
1361.59
1354.58
1347.54
1340.49
1333.43
1326.35
1319.27
1312.18
1305.09
1298
1290.92
1283.84
1276.78
1269.73
1262.71
1255.7
1248.72
1241.77
1234.84
1227.95
1221.1
1214.27
1207.49
1200.74
1194.03
1187.36
1180.73
1174.13
1734.22
1729.97
1725.71
1721.43
1717.14
1712.83
1708.5
1704.15
1699.77
1695.37
1690.95
1686.49
1682
1677.47
1672.9
1668.3
1663.64
1658.94
1654.18
1649.37
1644.5
1639.56
1634.56
1629.47
1624.31
1619.07
1613.73
1608.3
1602.76
1597.1
1591.33
1585.43
1579.39
1573.2
1566.85
1560.38
1553.91
1547.47
1541.07
1534.71
1528.37
1522.06
1515.76
1509.48
1503.21
1496.94
1490.68
1484.41
1478.15
1471.87
1465.6
1459.33
1453.04
1446.74
1440.43
1434.1
1427.75
1421.38
1414.98
1408.56
1402.12
1395.65
1389.15
1382.62
1376.06
1369.47
1362.85
1356.2
1349.52
1342.81
1336.08
1329.32
1322.54
1315.74
1308.92
1302.08
1295.23
1288.38
1281.51
1274.65
1267.78
1260.92
1254.06
1247.21
1240.38
1233.56
1226.76
1219.98
1213.23
1206.5
1199.8
1193.14
1186.51
1179.91
1173.35
1166.83
1160.34
1153.89
1147.48
1141.11
1684.37
1680.24
1676.1
1671.95
1667.78
1663.59
1659.39
1655.16
1650.92
1646.64
1642.34
1638.02
1633.65
1629.26
1624.82
1620.35
1615.83
1611.26
1606.64
1601.97
1597.23
1592.44
1587.58
1582.64
1577.63
1572.53
1567.35
1562.07
1556.69
1551.2
1545.59
1539.86
1534
1527.99
1521.83
1515.55
1509.27
1503.03
1496.82
1490.64
1484.48
1478.35
1472.23
1466.13
1460.04
1453.95
1447.86
1441.77
1435.68
1429.58
1423.48
1417.38
1411.28
1405.16
1399.03
1392.88
1386.72
1380.53
1374.32
1368.09
1361.83
1355.54
1349.23
1342.89
1336.52
1330.13
1323.7
1317.25
1310.77
1304.26
1297.73
1291.17
1284.6
1278
1271.39
1264.76
1258.12
1251.48
1244.83
1238.18
1231.54
1224.89
1218.25
1211.63
1205.01
1198.41
1191.83
1185.28
1178.74
1172.24
1165.76
1159.32
1152.91
1146.53
1140.19
1133.88
1127.61
1121.38
1115.18
1109.02
1635.96
1631.94
1627.92
1623.89
1619.84
1615.78
1611.69
1607.59
1603.46
1599.31
1595.14
1590.93
1586.7
1582.43
1578.12
1573.77
1569.38
1564.95
1560.46
1555.92
1551.32
1546.67
1541.94
1537.15
1532.28
1527.33
1522.3
1517.17
1511.95
1506.63
1501.19
1495.63
1489.94
1484.11
1478.13
1472.04
1465.94
1459.87
1453.84
1447.84
1441.86
1435.9
1429.96
1424.03
1418.1
1412.19
1406.27
1400.36
1394.44
1388.51
1382.57
1376.64
1370.71
1364.77
1358.81
1352.84
1346.85
1340.85
1334.82
1328.76
1322.69
1316.59
1310.46
1304.3
1298.12
1291.91
1285.68
1279.42
1273.13
1266.81
1260.47
1254.11
1247.73
1241.33
1234.92
1228.5
1222.07
1215.63
1209.19
1202.76
1196.32
1189.89
1183.46
1177.05
1170.65
1164.27
1157.9
1151.56
1145.24
1138.95
1132.69
1126.46
1120.26
1114.1
1107.97
1101.88
1095.82
1089.8
1083.81
1077.86
1592.82
1588.93
1585.03
1581.13
1577.21
1573.28
1569.33
1565.36
1561.38
1557.37
1553.34
1549.29
1545.2
1541.09
1536.94
1532.76
1528.53
1524.27
1519.96
1515.61
1511.2
1506.73
1502.21
1497.63
1492.98
1488.26
1483.46
1478.58
1473.61
1468.54
1463.37
1458.09
1452.69
1447.16
1441.5
1435.69
1429.77
1423.84
1417.95
1412.1
1406.26
1400.46
1394.67
1388.89
1383.13
1377.38
1371.63
1365.88
1360.13
1354.38
1348.61
1342.84
1337.07
1331.3
1325.53
1319.75
1313.95
1308.13
1302.3
1296.44
1290.56
1284.66
1278.74
1272.79
1266.82
1260.82
1254.79
1248.74
1242.66
1236.56
1230.43
1224.28
1218.11
1211.92
1205.71
1199.49
1193.26
1187.03
1180.8
1174.57
1168.33
1162.1
1155.88
1149.66
1143.45
1137.26
1131.09
1124.93
1118.8
1112.69
1106.61
1100.56
1094.53
1088.54
1082.59
1076.67
1070.78
1064.93
1059.11
1053.33
1047.58
1547.03
1543.25
1539.47
1535.67
1531.87
1528.05
1524.22
1520.37
1516.5
1512.6
1508.69
1504.75
1500.78
1496.79
1492.76
1488.7
1484.6
1480.46
1476.29
1472.06
1467.79
1463.46
1459.08
1454.63
1450.11
1445.53
1440.87
1436.13
1431.3
1426.38
1421.36
1416.23
1410.98
1405.61
1400.11
1394.47
1388.72
1382.96
1377.24
1371.55
1365.89
1360.25
1354.62
1349.01
1343.41
1337.82
1332.24
1326.65
1321.06
1315.47
1309.86
1304.25
1298.63
1293.02
1287.42
1281.8
1276.17
1270.52
1264.85
1259.16
1253.46
1247.73
1241.97
1236.2
1230.4
1224.57
1218.72
1212.85
1206.95
1201.03
1195.08
1189.12
1183.13
1177.12
1171.1
1165.07
1159.03
1152.99
1146.95
1140.92
1134.88
1128.85
1122.83
1116.81
1110.81
1104.82
1098.85
1092.89
1086.96
1081.06
1075.18
1069.33
1063.51
1057.72
1051.97
1046.25
1040.56
1034.91
1029.29
1023.71
1018.16
1502.55
1498.89
1495.21
1491.53
1487.83
1484.12
1480.4
1476.66
1472.9
1469.12
1465.33
1461.51
1457.67
1453.79
1449.89
1445.95
1441.97
1437.96
1433.9
1429.8
1425.65
1421.45
1417.19
1412.87
1408.48
1404.03
1399.5
1394.9
1390.21
1385.43
1380.55
1375.57
1370.47
1365.26
1359.92
1354.43
1348.85
1343.26
1337.7
1332.17
1326.67
1321.19
1315.73
1310.28
1304.84
1299.4
1293.98
1288.55
1283.11
1277.68
1272.23
1266.77
1261.3
1255.84
1250.39
1244.93
1239.46
1233.98
1228.47
1222.95
1217.41
1211.84
1206.26
1200.65
1195.02
1189.36
1183.68
1177.98
1172.26
1166.51
1160.74
1154.95
1149.14
1143.32
1137.47
1131.62
1125.76
1119.91
1114.06
1108.22
1102.38
1096.54
1090.71
1084.89
1079.09
1073.29
1067.51
1061.76
1056.02
1050.32
1044.63
1038.98
1033.36
1027.77
1022.21
1016.68
1011.19
1005.73
1000.31
994.924
1459.36
1455.81
1452.24
1448.67
1445.09
1441.49
1437.88
1434.26
1430.61
1426.95
1423.26
1419.56
1415.82
1412.06
1408.27
1404.44
1400.58
1396.68
1392.74
1388.76
1384.72
1380.64
1376.5
1372.31
1368.05
1363.73
1359.33
1354.86
1350.3
1345.66
1340.92
1336.08
1331.13
1326.07
1320.88
1315.55
1310.13
1304.7
1299.3
1293.93
1288.58
1283.26