/*--------------------------------*- C++ -*----------------------------------*\
  =========                 |
  \\      /  F ield         | OpenFOAM: The Open Source CFD Toolbox
   \\    /   O peration     | Website:  https://openfoam.org
    \\  /    A nd           | Version:  10
     \\/     M anipulation  |
\*---------------------------------------------------------------------------*/
FoamFile
{
    format      ascii;
    class       volScalarField;
    location    "23000";
    object      p;
}
// * * * * * * * * * * * * * * * * * * * * * * * * * * * * * * * * * * * * * //

dimensions      [0 2 -2 0 0 0 0];

internalField   nonuniform List<scalar> 
17981
(
2.26989e-05
0.062604
0.123478
0.182693
0.24029
0.296309
0.350784
0.403755
0.455258
0.505329
0.554006
0.601323
0.647316
0.692021
0.735471
0.7777
0.818741
0.858626
0.897386
0.935054
0.971659
1.00723
1.0418
1.07538
1.10802
1.13974
1.17056
1.20051
1.22961
1.25789
1.28536
1.31206
1.33801
1.36321
1.38771
1.41151
1.43464
1.45711
1.47895
1.50017
1.52079
1.54082
1.56029
1.5792
1.59758
1.61544
1.63279
1.64965
-0.00643652
0.0563584
0.117456
0.176894
0.23471
0.29094
0.345621
0.39879
0.450484
0.500741
0.549594
0.597082
0.643239
0.688099
0.731698
0.774069
0.815245
0.855258
0.894141
0.931924
0.968638
1.00431
1.03898
1.07266
1.10539
1.13719
1.16808
1.1981
1.22727
1.25562
1.28316
1.30991
1.33591
1.36117
1.38571
1.40956
1.43273
1.45524
1.47712
1.49837
1.51902
1.53909
1.55858
1.57752
1.59593
1.61381
1.63118
1.64806
-0.0133307
0.04971
0.11105
0.170725
0.228773
0.285228
0.340129
0.393512
0.445413
0.495868
0.544913
0.592585
0.638918
0.683947
0.727708
0.770233
0.811556
0.85171
0.890726
0.928636
0.965471
1.00126
1.03603
1.06982
1.10264
1.13453
1.16552
1.19562
1.22487
1.25328
1.28089
1.30771
1.33377
1.35909
1.38369
1.40758
1.4308
1.45336
1.47528
1.49657
1.51726
1.53736
1.55689
1.57586
1.59429
1.6122
1.6296
1.64651
0.22248
0.279171
0.3343
0.387905
0.44002
0.490682
0.539927
0.587791
0.634308
0.679514
0.723443
0.766129
0.807606
0.847906
0.887062
0.925104
0.962065
0.997973
1.03286
1.06675
1.09968
1.13166
1.16274
1.19293
1.22225
1.25074
1.27842
1.30531
1.33143
1.35681
1.38147
1.40542
1.42869
1.45129
1.47325
1.49459
1.51531
1.53545
1.55501
1.57401
1.59248
1.61041
1.62784
1.64477
0.215902
0.272839
0.328209
0.382046
0.434388
0.485268
0.534723
0.582789
0.629501
0.674894
0.719001
0.761858
0.803497
0.843953
0.883256
0.921439
0.958532
0.994567
1.02957
1.06358
1.09661
1.1287
1.15987
1.19015
1.21956
1.24813
1.27589
1.30285
1.32903
1.35447
1.37919
1.40319
1.42651
1.44917
1.47117
1.49255
1.51331
1.53349
1.55308
1.57212
1.59061
1.60858
1.62603
1.64298
0.209057
0.26625
0.32187
0.37595
0.428526
0.479634
0.529309
0.577586
0.624501
0.670088
0.714383
0.757418
0.799228
0.839846
0.879304
0.917634
0.954867
0.991035
1.02617
1.06029
1.09344
1.12563
1.1569
1.18728
1.21678
1.24544
1.27327
1.30031
1.32657
1.35208
1.37685
1.40092
1.4243
1.447
1.46906
1.49048
1.51129
1.53151
1.55114
1.57022
1.58874
1.60674
1.62422
1.6412
0.259455
0.315334
0.369667
0.422489
0.473835
0.52374
0.572239
0.619367
0.665159
0.709649
0.752873
0.794862
0.835652
0.875274
0.91376
0.951142
0.987451
1.02272
1.05697
1.09024
1.12255
1.15393
1.18441
1.21401
1.24276
1.27068
1.2978
1.32414
1.34972
1.37456
1.3987
1.42214
1.4449
1.46701
1.48849
1.50935
1.52961
1.54929
1.56841
1.58698
1.60501
1.62253
1.63955
0.363219
0.416296
0.467888
0.518031
0.56676
0.61411
0.660115
0.704809
0.748228
0.790405
0.831374
0.871166
0.909815
0.947352
0.983809
1.01921
1.0536
1.08699
1.11942
1.15092
1.18151
1.21121
1.24006
1.26807
1.29528
1.3217
1.34736
1.37228
1.39648
1.41998
1.44281
1.46498
1.48651
1.50743
1.52774
1.54747
1.56663
1.58524
1.60332
1.62087
1.63793
0.409981
0.46183
0.51222
0.561188
0.608768
0.654994
0.699901
0.743524
0.785896
0.827051
0.867021
0.90584
0.943539
0.980149
1.0157
1.05023
1.08375
1.11631
1.14792
1.17862
1.20843
1.23738
1.26549
1.29279
1.31929
1.34503
1.37003
1.39431
1.41788
1.44077
1.463
1.48459
1.50556
1.52593
1.5457
1.56491
1.58357
1.60168
1.61928
1.63637
0.506323
0.555538
0.603356
0.649811
0.694938
0.738771
0.781345
0.822692
0.862847
0.901841
0.939707
0.976477
1.01218
1.04685
1.08051
1.1132
1.14493
1.17575
1.20567
1.23472
1.26293
1.29032
1.31692
1.34274
1.36782
1.39217
1.41581
1.43877
1.46107
1.48272
1.50374
1.52416
1.54398
1.56324
1.58194
1.6001
1.61773
1.63486
0.689945
0.733996
0.776778
0.818325
0.85867
0.897846
0.935885
0.972819
1.00868
1.0435
1.0773
1.11012
1.14198
1.17292
1.20295
1.23211
1.26042
1.28791
1.3146
1.34051
1.36566
1.39009
1.41381
1.43683
1.45919
1.4809
1.50199
1.52246
1.54234
1.56164
1.58038
1.59859
1.61626
1.63343
0.684939
0.729215
0.772212
0.813964
0.854505
0.893868
0.932086
0.969189
1.00521
1.04018
1.07413
1.10709
1.13908
1.17014
1.20029
1.22956
1.25798
1.28556
1.31234
1.33834
1.36358
1.38809
1.41188
1.43498
1.4574
1.47918
1.50032
1.52085
1.54078
1.56013
1.57892
1.59717
1.61489
1.6321
0.679935
0.724445
0.767665
0.809629
0.850372
0.889927
0.928328
0.965606
1.00179
1.03692
1.07102
1.10412
1.13625
1.16743
1.19771
1.22709
1.25561
1.2833
1.31018
1.33627
1.3616
1.38618
1.41005
1.43322
1.45572
1.47755
1.49876
1.51934
1.53933
1.55873
1.57757
1.59586
1.61363
1.63087
0.674952
0.719694
0.763138
0.80532
0.846271
0.886024
0.924614
0.962072
0.99843
1.03372
1.06797
1.10122
1.13348
1.1648
1.1952
1.2247
1.25333
1.28112
1.3081
1.33428
1.3597
1.38437
1.40831
1.43156
1.45412
1.47603
1.49729
1.51793
1.53798
1.55743
1.57632
1.59466
1.61247
1.62975
0.714984
0.758663
0.801066
0.84223
0.882185
0.920968
0.958609
0.995141
1.0306
1.065
1.0984
1.13081
1.16226
1.19278
1.2224
1.25114
1.27904
1.30612
1.3324
1.3579
1.38265
1.40668
1.43
1.45263
1.4746
1.49593
1.51663
1.53673
1.55624
1.57518
1.59356
1.61142
1.62878
0.710312
0.754229
0.79686
0.83824
0.878403
0.917382
0.955211
0.991921
1.02754
1.06211
1.09566
1.12821
1.1598
1.19045
1.22019
1.24905
1.27706
1.30423
1.33061
1.3562
1.38104
1.40515
1.42854
1.45125
1.47328
1.49467
1.51544
1.53559
1.55515
1.57414
1.59259
1.61054
1.62802
0.705693
0.749852
0.792715
0.834316
0.87469
0.913869
0.951888
0.98878
1.02458
1.05931
1.09301
1.1257
1.15743
1.18821
1.21807
1.24705
1.27517
1.30245
1.32892
1.3546
1.37953
1.40371
1.42719
1.44996
1.47207
1.49352
1.51434
1.53455
1.55419
1.57328
1.59184
1.60989
1.62741
0.745533
0.788631
0.830457
0.871044
0.910428
0.94864
0.985715
1.02169
1.05658
1.09044
1.12328
1.15515
1.18606
1.21605
1.24514
1.27337
1.30075
1.32732
1.3531
1.37811
1.40238
1.42592
1.44877
1.47095
1.49248
1.5134
1.53371
1.55345
1.57262
1.59124
1.60931
1.62686
0.741275
0.784612
0.826665
0.86747
0.907059
0.945468
0.982729
1.01888
1.05394
1.08795
1.12095
1.15295
1.184
1.21411
1.24332
1.27166
1.29915
1.32581
1.35168
1.37678
1.40114
1.42479
1.44774
1.47003
1.49166
1.51266
1.53305
1.55283
1.57204
1.59068
1.60879
1.62636
0.737082
0.78066
0.822943
0.863967
0.903765
0.942372
0.979822
1.01615
1.05138
1.08555
1.1187
1.15085
1.18202
1.21226
1.24159
1.27004
1.29764
1.32443
1.35041
1.37563
1.40011
1.42385
1.44689
1.46925
1.49094
1.51199
1.53242
1.55225
1.5715
1.59018
1.60831
1.6259
0.732956
0.776776
0.819291
0.860535
0.900543
0.93935
0.976989
1.01349
1.04889
1.08323
1.11653
1.14882
1.18015
1.21053
1.24001
1.2686
1.29633
1.32323
1.34932
1.37463
1.39919
1.423
1.4461
1.46852
1.49027
1.51137
1.53185
1.55172
1.571
1.58971
1.60787
1.62549
0.728901
0.772963
0.815709
0.857174
0.897391
0.936395
0.974222
1.01091
1.0465
1.08101
1.11449
1.14696
1.17845
1.20898
1.23858
1.26729
1.29512
1.32211
1.34829
1.37368
1.39831
1.4222
1.44537
1.46785
1.48965
1.5108
1.53132
1.55123
1.57055
1.58929
1.60747
1.62511
0.724922
0.769227
0.812203
0.853887
0.894315
0.93353
0.971572
1.00847
1.04426
1.07896
1.1126
1.14522
1.17683
1.20748
1.2372
1.26602
1.29396
1.32105
1.34731
1.37279
1.39749
1.42145
1.44468
1.46721
1.48907
1.51027
1.53083
1.55078
1.57013
1.5889
1.60711
1.62476
0.721029
0.765574
0.808783
0.850698
0.891361
0.930806
0.969059
1.00615
1.04211
1.07697
1.11076
1.14352
1.17527
1.20605
1.23588
1.26481
1.29284
1.32003
1.34638
1.37194
1.39671
1.42074
1.44403
1.46662
1.48853
1.50978
1.53038
1.55036
1.56975
1.58854
1.60677
1.62445
0.717227
0.762017
0.805472
0.847629
0.888517
0.928165
0.966607
1.00388
1.04001
1.07503
1.10897
1.14187
1.17376
1.20466
1.23461
1.26365
1.29178
1.31906
1.3455
1.37113
1.39598
1.42007
1.44343
1.46607
1.48803
1.50932
1.52997
1.54998
1.5694
1.58822
1.60647
1.62416
0.713526
0.758565
0.802258
0.844636
0.885732
0.925579
0.964211
1.00166
1.03796
1.07314
1.10724
1.14028
1.1723
1.20333
1.2334
1.26253
1.29077
1.31814
1.34466
1.37037
1.39529
1.41945
1.44286
1.46556
1.48757
1.5089
1.52958
1.54964
1.56908
1.58792
1.60619
1.6239
0.709921
0.755197
0.799115
0.841708
0.88301
0.923054
0.961874
0.999502
1.03597
1.07131
1.10556
1.13874
1.1709
1.20205
1.23223
1.26147
1.28981
1.31726
1.34387
1.36966
1.39465
1.41887
1.44234
1.46509
1.48714
1.50852
1.52924
1.54932
1.56879
1.58766
1.60595
1.62367
0.706401
0.751906
0.796043
0.838846
0.88035
0.920587
0.959591
0.997394
1.03403
1.06953
1.10393
1.13725
1.16953
1.2008
1.2311
1.26045
1.28888
1.31643
1.34311
1.36898
1.39403
1.41831
1.44184
1.46465
1.48674
1.50816
1.52891
1.54903
1.56852
1.58741
1.60572
1.62346
0.70296
0.748686
0.793035
0.836044
0.877744
0.918169
0.957354
0.995329
1.03213
1.06778
1.10233
1.13579
1.1682
1.19959
1.23
1.25945
1.28798
1.31562
1.34239
1.36832
1.39345
1.41779
1.44138
1.46423
1.48637
1.50782
1.52861
1.54876
1.56828
1.58719
1.60551
1.62327
0.745533
0.790089
0.833295
0.875184
0.915793
0.955152
0.993297
1.03026
1.06607
1.10075
1.13435
1.16689
1.19841
1.22893
1.25848
1.28711
1.31483
1.34168
1.36769
1.39288
1.41729
1.44093
1.46383
1.48601
1.50751
1.52833
1.5485
1.56805
1.58698
1.60532
1.62309
0.742421
0.787182
0.830585
0.872661
0.913446
0.952976
0.991285
1.0284
1.06436
1.09919
1.13293
1.1656
1.19723
1.22786
1.25752
1.28624
1.31406
1.34099
1.36707
1.39233
1.4168
1.44049
1.46344
1.48567
1.5072
1.52806
1.54826
1.56783
1.58678
1.60514
1.62292
0.739344
0.784308
0.827905
0.870168
0.91113
0.950827
0.989295
1.02657
1.06267
1.09765
1.13152
1.16431
1.19607
1.22681
1.25658
1.28539
1.31329
1.3403
1.36646
1.39179
1.41631
1.44006
1.46306
1.48534
1.50691
1.5278
1.54803
1.56762
1.5866
1.60497
1.62277
0.736299
0.781457
0.825244
0.867693
0.908835
0.9487
0.987325
1.02475
1.061
1.09611
1.13011
1.16303
1.19491
1.22576
1.25563
1.28454
1.31253
1.33963
1.36586
1.39125
1.41584
1.43965
1.4627
1.48501
1.50662
1.52755
1.54781
1.56742
1.58642
1.60481
1.62262
0.865226
0.906544
0.946581
0.985367
1.02294
1.05933
1.09458
1.12871
1.16176
1.19375
1.22472
1.25469
1.2837
1.31178
1.33895
1.36526
1.39072
1.41537
1.43923
1.46233
1.4847
1.50634
1.5273
1.54759
1.56723
1.58625
1.60466
1.62248
0.862765
0.904251
0.944455
0.983407
1.02113
1.05767
1.09305
1.12731
1.16048
1.19259
1.22367
1.25374
1.28285
1.31102
1.33828
1.36466
1.3902
1.41491
1.43883
1.46198
1.48438
1.50607
1.52707
1.54739
1.56705
1.58609
1.60452
1.62236
0.860312
0.901958
0.942321
0.98143
1.01931
1.056
1.09151
1.1259
1.15919
1.19142
1.22261
1.25279
1.282
1.31026
1.3376
1.36406
1.38967
1.41444
1.43842
1.46162
1.48408
1.50581
1.52684
1.54719
1.56688
1.58595
1.60439
1.62224
0.857862
0.899664
0.940179
0.979438
1.01747
1.05431
1.08997
1.12449
1.1579
1.19024
1.22154
1.25183
1.28114
1.30949
1.33692
1.36346
1.38914
1.41398
1.43802
1.46127
1.48377
1.50555
1.52661
1.547
1.56672
1.58581
1.60427
1.62214
0.855414
0.897366
0.938029
0.977433
1.01561
1.05259
1.0884
1.12306
1.1566
1.18906
1.22047
1.25086
1.28027
1.30871
1.33623
1.36285
1.3886
1.41351
1.43761
1.46092
1.48348
1.50529
1.5264
1.54682
1.56657
1.58568
1.60417
1.62206
0.852964
0.895059
0.935866
0.975412
1.01373
1.05085
1.08679
1.12159
1.15527
1.18785
1.21938
1.24988
1.27938
1.30793
1.33554
1.36224
1.38807
1.41305
1.43721
1.46058
1.48318
1.50505
1.52619
1.54665
1.56643
1.58557
1.60408
1.62198
0.850511
0.892743
0.933687
0.973372
1.01183
1.04908
1.08516
1.12009
1.15391
1.18662
1.21826
1.24888
1.27849
1.30713
1.33483
1.36162
1.38752
1.41258
1.43681
1.46023
1.48289
1.5048
1.526
1.54649
1.56631
1.58547
1.60401
1.62193
0.848053
0.890414
0.931491
0.971309
1.0099
1.04728
1.08349
1.11856
1.15251
1.18535
1.21713
1.24785
1.27757
1.30631
1.33411
1.36099
1.38698
1.4121
1.4364
1.45989
1.48261
1.50457
1.5258
1.54634
1.56619
1.58539
1.60395
1.62189
0.845591
0.888074
0.929275
0.969222
1.00794
1.04546
1.0818
1.11699
1.15107
1.18404
1.21595
1.2468
1.27664
1.30548
1.33337
1.36034
1.38642
1.41162
1.43599
1.45955
1.48232
1.50434
1.52562
1.5462
1.56609
1.58531
1.6039
1.62187
0.843126
0.885721
0.927041
0.96711
1.00595
1.0436
1.08007
1.11539
1.14959
1.18269
1.21473
1.24571
1.27567
1.30463
1.33262
1.35969
1.38585
1.41114
1.43558
1.45921
1.48204
1.50411
1.52545
1.54607
1.56599
1.58526
1.60387
1.62186
0.840662
0.88336
0.924789
0.964974
1.00394
1.04171
1.0783
1.11375
1.14808
1.18131
1.21347
1.24458
1.27466
1.30375
1.33185
1.35901
1.38527
1.41064
1.43517
1.45886
1.48177
1.50389
1.52528
1.54594
1.56591
1.58521
1.60386
1.62187
0.838203
0.880993
0.922523
0.962815
1.00189
1.03978
1.0765
1.11207
1.14652
1.17988
1.21216
1.2434
1.27361
1.30282
1.33105
1.35832
1.38467
1.41014
1.43475
1.45852
1.48149
1.50368
1.52512
1.54583
1.56585
1.58518
1.60386
1.6219
0.835756
0.878627
0.920247
0.960638
0.999822
1.03782
1.07466
1.11035
1.14493
1.17841
1.21082
1.24217
1.27251
1.30184
1.3302
1.35759
1.38406
1.40962
1.43432
1.45817
1.48121
1.50347
1.52496
1.54573
1.56579
1.58516
1.60387
1.62194
0.833328
0.87627
0.917969
0.958448
0.99773
1.03583
1.07278
1.10859
1.14329
1.1769
1.20943
1.24091
1.27137
1.30082
1.32929
1.35681
1.3834
1.40908
1.43388
1.45782
1.48094
1.50326
1.52482
1.54563
1.56574
1.58515
1.6039
1.622
0.83093
0.873928
0.915696
0.956253
0.995623
1.03382
1.07088
1.1068
1.14162
1.17534
1.208
1.23961
1.27019
1.29976
1.32836
1.35599
1.38269
1.40848
1.43339
1.45744
1.48065
1.50305
1.52467
1.54554
1.56569
1.58515
1.60394
1.62207
0.828569
0.871614
0.913437
0.954062
0.993508
1.0318
1.06895
1.10498
1.1399
1.17375
1.20653
1.23826
1.26897
1.29867
1.32739
1.35514
1.38195
1.40785
1.43287
1.45702
1.48033
1.50283
1.52452
1.54545
1.56565
1.58516
1.60398
1.62215
0.826256
0.869335
0.911203
0.951883
0.991395
1.02976
1.067
1.10312
1.13816
1.17212
1.20502
1.23687
1.26771
1.29754
1.32638
1.35425
1.38119
1.4072
1.43232
1.45657
1.47997
1.50256
1.52435
1.54536
1.56562
1.58516
1.60403
1.62223
0.824001
0.867103
0.909004
0.949727
0.989294
1.02773
1.06504
1.10125
1.13638
1.17045
1.20346
1.23544
1.2664
1.29636
1.32533
1.35333
1.38038
1.40651
1.43174
1.45609
1.4796
1.50227
1.52415
1.54524
1.56557
1.58517
1.60408
1.62232
0.821811
0.864927
0.90685
0.947606
0.987216
1.0257
1.06308
1.09937
1.13459
1.16875
1.20187
1.23397
1.26505
1.29513
1.32423
1.35236
1.37954
1.40579
1.43113
1.4556
1.4792
1.50196
1.52393
1.54511
1.56551
1.58517
1.60413
1.62241
0.819696
0.862815
0.904752
0.94553
0.985171
1.0237
1.06113
1.09749
1.13278
1.16703
1.20025
1.23246
1.26365
1.29386
1.32308
1.35134
1.37865
1.40503
1.43049
1.45507
1.47877
1.50164
1.52368
1.54495
1.56544
1.58517
1.60418
1.6225
0.860776
0.902717
0.943507
0.98317
1.02173
1.0592
1.09561
1.13097
1.1653
1.19861
1.23091
1.26222
1.29254
1.32189
1.35028
1.37772
1.40422
1.42981
1.4545
1.47832
1.50129
1.52343
1.54477
1.56534
1.58516
1.60422
1.62259
0.858817
0.900754
0.941548
0.981224
1.0198
1.05731
1.09376
1.12917
1.16356
1.19695
1.22934
1.26075
1.29119
1.32066
1.34917
1.37674
1.40337
1.42909
1.4539
1.47784
1.50091
1.52315
1.54458
1.56523
1.58512
1.60426
1.62269
0.939659
0.979339
1.01793
1.05546
1.09194
1.12739
1.16183
1.19529
1.22776
1.25926
1.2898
1.31938
1.34802
1.37571
1.40248
1.42832
1.45326
1.47732
1.5005
1.52285
1.54437
1.5651
1.58507
1.60429
1.62277
0.937845
0.977522
1.01612
1.05366
1.09016
1.12564
1.16013
1.19363
1.22617
1.25775
1.28838
1.31807
1.34682
1.37464
1.40154
1.42751
1.45258
1.47676
1.50007
1.52252
1.54414
1.56496
1.58501
1.6043
1.62285
0.975779
1.01437
1.05192
1.08843
1.12394
1.15845
1.192
1.22459
1.25623
1.28695
1.31673
1.34559
1.37353
1.40055
1.42666
1.45186
1.47617
1.4996
1.52216
1.54389
1.5648
1.58493
1.6043
1.62292
0.974114
1.0127
1.05024
1.08676
1.12228
1.15682
1.19039
1.22303
1.25473
1.28551
1.31538
1.34433
1.37238
1.39953
1.42577
1.4511
1.47554
1.4991
1.52178
1.54362
1.56463
1.58484
1.60428
1.62297
0.972525
1.0111
1.04863
1.08515
1.12068
1.15523
1.18883
1.22149
1.25323
1.28407
1.31401
1.34306
1.37121
1.39847
1.42483
1.4503
1.47487
1.49856
1.52137
1.54333
1.56444
1.58474
1.60426
1.62302
1.00957
1.04709
1.08361
1.11913
1.15369
1.18731
1.21999
1.25177
1.28265
1.31265
1.34177
1.37001
1.39738
1.42386
1.44946
1.47417
1.49799
1.52093
1.54301
1.56424
1.58464
1.60424
1.62307
1.0081
1.04562
1.08213
1.11765
1.15221
1.18583
1.21854
1.25034
1.28125
1.3113
1.34048
1.3688
1.39626
1.42286
1.44858
1.47342
1.49738
1.52046
1.54267
1.56402
1.58452
1.60422
1.62313
1.0442
1.08071
1.11623
1.15079
1.18441
1.21713
1.24894
1.27989
1.30997
1.33919
1.36758
1.39513
1.42182
1.44766
1.47264
1.49674
1.51996
1.5423
1.56377
1.58439
1.60419
1.62318
1.04283
1.07934
1.11486
1.14942
1.18305
1.21576
1.24759
1.27855
1.30866
1.33793
1.36637
1.39398
1.42077
1.44672
1.47181
1.49605
1.51941
1.54189
1.5635
1.58425
1.60415
1.62323
1.04149
1.078
1.11353
1.1481
1.18173
1.21445
1.24628
1.27726
1.30739
1.33668
1.36516
1.39284
1.4197
1.44574
1.47096
1.49532
1.51883
1.54145
1.5632
1.58408
1.60409
1.62327
1.0767
1.11223
1.14681
1.18045
1.21318
1.24502
1.276
1.30614
1.33546
1.36398
1.3917
1.41862
1.44475
1.47007
1.49456
1.5182
1.54098
1.56287
1.58388
1.60402
1.6233
1.07544
1.11097
1.14555
1.1792
1.21194
1.24379
1.27478
1.30493
1.33427
1.36281
1.39057
1.41754
1.44374
1.46916
1.49376
1.51754
1.54046
1.5625
1.58366
1.60393
1.62333
1.0742
1.10974
1.14432
1.17797
1.21072
1.24259
1.27359
1.30376
1.33311
1.36167
1.38945
1.41647
1.44273
1.46822
1.49293
1.51683
1.5399
1.56209
1.5834
1.60382
1.62334
1.10853
1.14311
1.17677
1.20953
1.24141
1.27243
1.30261
1.33197
1.36055
1.38836
1.41541
1.44171
1.46727
1.49207
1.51609
1.53929
1.56164
1.58311
1.60367
1.62333
1.10735
1.14194
1.1756
1.20836
1.24025
1.27128
1.30147
1.33086
1.35945
1.38727
1.41435
1.44069
1.4663
1.49118
1.5153
1.53864
1.56114
1.58277
1.60349
1.6233
1.1062
1.14078
1.17444
1.20721
1.2391
1.27015
1.30035
1.32975
1.35836
1.38621
1.4133
1.43968
1.46533
1.49027
1.51449
1.53794
1.56058
1.58237
1.60327
1.62324
1.10506
1.13964
1.17331
1.20608
1.23798
1.26903
1.29925
1.32866
1.35729
1.38515
1.41227
1.43866
1.46435
1.48934
1.51363
1.53719
1.55997
1.58192
1.60299
1.62314
1.10395
1.13853
1.17219
1.20496
1.23687
1.26793
1.29816
1.32758
1.35622
1.3841
1.41123
1.43765
1.46337
1.4884
1.51275
1.5364
1.5593
1.5814
1.60264
1.62297
1.10286
1.13743
1.17109
1.20386
1.23577
1.26683
1.29707
1.32651
1.35516
1.38305
1.41021
1.43664
1.46237
1.48744
1.51183
1.53556
1.55858
1.58082
1.60223
1.62274
1.10179
1.13635
1.17001
1.20278
1.23469
1.26575
1.296
1.32545
1.35411
1.38202
1.40918
1.43563
1.46138
1.48646
1.51089
1.53468
1.55779
1.58017
1.60175
1.62243
1.10074
1.13529
1.16894
1.20171
1.23362
1.26469
1.29494
1.32439
1.35307
1.38098
1.40816
1.43463
1.46039
1.48548
1.50993
1.53376
1.55694
1.57945
1.60118
1.62204
1.0997
1.13425
1.1679
1.20066
1.23257
1.26364
1.29389
1.32335
1.35203
1.37995
1.40714
1.43362
1.4594
1.48451
1.50896
1.5328
1.55603
1.57862
1.60049
1.62152
1.09871
1.13325
1.1669
1.19966
1.23156
1.26263
1.29289
1.32235
1.35104
1.37897
1.40617
1.43265
1.45844
1.48355
1.50801
1.53184
1.55507
1.57771
1.59971
1.62091
1.09773
1.13226
1.1659
1.19867
1.23057
1.26165
1.29191
1.32138
1.35007
1.37801
1.40522
1.43171
1.45752
1.48264
1.50712
1.53096
1.55419
1.57683
1.59887
1.62013
1.09708
1.13163
1.16528
1.19806
1.22998
1.26107
1.29135
1.32083
1.34953
1.37747
1.40467
1.43115
1.45693
1.48201
1.50642
1.53016
1.55325
1.57568
1.59734
1.61815
3.13769
3.09542
3.0539
3.01312
2.97306
2.93372
2.89507
2.85711
2.81983
2.7832
2.74723
2.71189
2.67718
2.64308
2.60959
2.57669
2.54437
2.51262
2.48143
2.45079
2.42069
2.39111
2.36206
2.3335
2.30545
2.27788
2.25078
2.22416
2.19799
2.17226
2.14698
2.12212
2.09769
2.07366
2.05004
2.02681
2.00396
1.98149
1.95938
1.93764
1.91624
1.89519
1.87448
1.85409
1.83402
1.81426
1.79481
1.77565
1.75679
1.73821
1.7199
1.70165
1.68356
1.66884
1.6433
3.13775
3.09549
3.05399
3.01322
2.97318
2.93385
2.89521
2.85727
2.81999
2.78338
2.74742
2.7121
2.6774
2.64332
2.60984
2.57695
2.54464
2.5129
2.48172
2.45109
2.42099
2.39143
2.36237
2.33383
2.30578
2.27821
2.25112
2.2245
2.19833
2.17261
2.14732
2.12247
2.09803
2.074
2.05037
2.02713
2.00427
1.98179
1.95967
1.93791
1.91649
1.89541
1.87466
1.85423
1.83411
1.81429
1.79475
1.77547
1.75644
1.73763
1.719
1.70034
1.68129
1.66385
1.64295
3.13747
3.09523
3.05373
3.01298
2.97295
2.93363
2.89501
2.85707
2.81981
2.78322
2.74727
2.71196
2.67727
2.6432
2.60974
2.57686
2.54457
2.51284
2.48167
2.45105
2.42097
2.39141
2.36237
2.33384
2.3058
2.27824
2.25116
2.22454
2.19838
2.17267
2.14739
2.12253
2.0981
2.07407
2.05044
2.02721
2.00435
1.98186
1.95974
1.93797
1.91655
1.89546
1.8747
1.85425
1.8341
1.81425
1.79467
1.77534
1.75625
1.73735
1.71862
1.69994
1.68097
1.66227
1.64253
3.1372
3.09497
3.05349
3.01275
2.97273
2.93343
2.89482
2.8569
2.81966
2.78307
2.74714
2.71184
2.67718
2.64312
2.60967
2.57681
2.54453
2.51281
2.48166
2.45105
2.42098
2.39144
2.36241
2.33388
2.30585
2.2783
2.25123
2.22462
2.19847
2.17276
2.14749
2.12264
2.09821
2.07419
2.05056
2.02733
2.00447
1.98198
1.95986
1.93809
1.91666
1.89557
1.8748
1.85435
1.8342
1.81434
1.79475
1.77543
1.75634
1.73746
1.71875
1.70012
1.68138
1.66241
1.64262
3.13697
3.09475
3.05328
3.01255
2.97255
2.93326
2.89467
2.85676
2.81953
2.78296
2.74704
2.71176
2.67711
2.64306
2.60963
2.57678
2.54451
2.51281
2.48167
2.45107
2.42101
2.39148
2.36246
2.33394
2.30592
2.27838
2.25132
2.22472
2.19857
2.17287
2.1476
2.12276
2.09833
2.07431
2.05069
2.02746
2.00461
1.98212
1.96
1.93823
1.91681
1.89572
1.87496
1.85451
1.83436
1.81451
1.79494
1.77563
1.75656
1.73769
1.71899
1.70035
1.68165
1.66267
1.6428
3.13675
3.09454
3.05309
3.01237
2.97238
2.9331
2.89452
2.85663
2.81941
2.78286
2.74695
2.71169
2.67704
2.64302
2.60959
2.57676
2.5445
2.51281
2.48168
2.4511
2.42105
2.39152
2.36251
2.33401
2.306
2.27847
2.25141
2.22482
2.19868
2.17298
2.14772
2.12288
2.09846
2.07444
2.05083
2.0276
2.00475
1.98227
1.96016
1.93839
1.91698
1.89589
1.87514
1.8547
1.83457
1.81473
1.79517
1.77587
1.7568
1.73794
1.71922
1.70055
1.6818
1.66276
1.64289
3.13654
3.09434
3.0529
3.0122
2.97222
2.93296
2.89439
2.85651
2.81931
2.78277
2.74688
2.71162
2.67699
2.64298
2.60957
2.57674
2.5445
2.51282
2.4817
2.45113
2.42109
2.39158
2.36258
2.33408
2.30607
2.27855
2.2515
2.22492
2.19878
2.17309
2.14784
2.12301
2.09859
2.07458
2.05097
2.02775
2.00491
1.98244
1.96033
1.93857
1.91716
1.89609
1.87534
1.85491
1.83479
1.81496
1.79541
1.77611
1.75704
1.73816
1.71941
1.70069
1.68186
1.66274
1.64293
3.13634
3.09416
3.05273
3.01204
2.97208
2.93283
2.89428
2.85641
2.81922
2.78269
2.74681
2.71157
2.67695
2.64295
2.60955
2.57674
2.54451
2.51284
2.48173
2.45117
2.42114
2.39164
2.36264
2.33416
2.30616
2.27865
2.2516
2.22502
2.1989
2.17321
2.14797
2.12314
2.09873
2.07473
2.05113
2.02791
2.00507
1.98261
1.96051
1.93876
1.91736
1.8963
1.87556
1.85514
1.83502
1.81519
1.79563
1.77633
1.75724
1.73833
1.71953
1.70074
1.68183
1.66264
1.64293
3.13616
3.09399
3.05258
3.0119
2.97195
2.93271
2.89417
2.85632
2.81914
2.78263
2.74676
2.71153
2.67693
2.64293
2.60954
2.57675
2.54452
2.51287
2.48177
2.45122
2.4212
2.3917
2.36272
2.33424
2.30625
2.27874
2.25171
2.22514
2.19902
2.17334
2.1481
2.12328
2.09888
2.07488
2.05128
2.02808
2.00525
1.98279
1.9607
1.93896
1.91756
1.8965
1.87577
1.85535
1.83523
1.8154
1.79583
1.7765
1.75738
1.73843
1.71957
1.7007
1.68172
1.66249
1.64289
3.136
3.09384
3.05243
3.01177
2.97183
2.9326
2.89408
2.85624
2.81907
2.78257
2.74672
2.7115
2.67691
2.64293
2.60955
2.57676
2.54455
2.5129
2.48182
2.45127
2.42126
2.39177
2.3628
2.33433
2.30635
2.27885
2.25182
2.22525
2.19914
2.17347
2.14824
2.12343
2.09903
2.07504
2.05145
2.02825
2.00542
1.98297
1.96089
1.93915
1.91776
1.8967
1.87597
1.85555
1.83542
1.81557
1.79599
1.77663
1.75747
1.73847
1.71954
1.7006
1.68156
1.66232
1.64282
3.13584
3.0937
3.0523
3.01165
2.97172
2.93251
2.894
2.85617
2.81902
2.78253
2.74668
2.71148
2.6769
2.64293
2.60956
2.57678
2.54458
2.51295
2.48187
2.45133
2.42133
2.39185
2.36289
2.33442
2.30645
2.27896
2.25194
2.22538
2.19927
2.17361
2.14838
2.12357
2.09918
2.0752
2.05161
2.02842
2.0056
1.98315
1.96107
1.93934
1.91795
1.89689
1.87615
1.85572
1.83558
1.81571
1.7961
1.77671
1.75751
1.73845
1.71945
1.70045
1.68136
1.66213
1.64273
3.1357
3.09357
3.05219
3.01155
2.97163
2.93243
2.89393
2.85611
2.81897
2.78249
2.74666
2.71147
2.6769
2.64294
2.60958
2.57682
2.54462
2.513
2.48193
2.4514
2.42141
2.39194
2.36298
2.33452
2.30656
2.27907
2.25206
2.2255
2.1994
2.17375
2.14852
2.12372
2.09934
2.07536
2.05178
2.02859
2.00577
1.98333
1.96125
1.93951
1.91812
1.89706
1.87631
1.85587
1.83571
1.81582
1.79617
1.77675
1.7575
1.73838
1.71932
1.70026
1.68115
1.66195
1.64263
3.13557
3.09345
3.05208
3.01145
2.97155
2.93236
2.89387
2.85607
2.81894
2.78247
2.74665
2.71147
2.67691
2.64296
2.60961
2.57686
2.54467
2.51306
2.482
2.45148
2.42149
2.39203
2.36308
2.33463
2.30667
2.27919
2.25218
2.22564
2.19954
2.17389
2.14867
2.12388
2.0995
2.07552
2.05194
2.02875
2.00594
1.9835
1.96141
1.93968
1.91828
1.89721
1.87645
1.85598
1.83581
1.81589
1.79621
1.77674
1.75745
1.73827
1.71915
1.70005
1.68093
1.66176
1.64252
3.13545
3.09334
3.05199
3.01137
2.97148
2.9323
2.89383
2.85603
2.81892
2.78246
2.74665
2.71148
2.67693
2.64299
2.60965
2.5769
2.54473
2.51312
2.48207
2.45156
2.42158
2.39213
2.36318
2.33474
2.30678
2.27931
2.25231
2.22577
2.19968
2.17403
2.14882
2.12403
2.09965
2.07568
2.0521
2.02891
2.0061
1.98366
1.96157
1.93982
1.91842
1.89733
1.87656
1.85608
1.83587
1.81593
1.79621
1.7767
1.75736
1.73812
1.71896
1.69984
1.68071
1.66157
1.6424
3.13535
3.09325
3.05191
3.0113
2.97142
2.93226
2.89379
2.85601
2.8189
2.78246
2.74666
2.7115
2.67696
2.64303
2.6097
2.57696
2.5448
2.5132
2.48215
2.45165
2.42168
2.39223
2.36329
2.33485
2.30691
2.27944
2.25244
2.22591
2.19982
2.17418
2.14897
2.12418
2.0998
2.07583
2.05226
2.02907
2.00625
1.9838
1.96171
1.93996
1.91854
1.89744
1.87664
1.85614
1.83591
1.81594
1.79619
1.77663
1.75724
1.73796
1.71876
1.69961
1.68049
1.66139
1.64228
3.13526
3.09317
3.05184
3.01125
2.97138
2.93222
2.89377
2.856
2.8189
2.78247
2.74668
2.71153
2.677
2.64308
2.60976
2.57703
2.54487
2.51328
2.48224
2.45174
2.42178
2.39234
2.36341
2.33497
2.30703
2.27957
2.25258
2.22605
2.19996
2.17432
2.14911
2.12433
2.09995
2.07598
2.05241
2.02921
2.00639
1.98394
1.96183
1.94007
1.91864
1.89752
1.87671
1.85618
1.83593
1.81592
1.79613
1.77654
1.75709
1.73777
1.71854
1.69938
1.68028
1.66121
1.64217
3.13518
3.09311
3.05178
3.0112
2.97135
2.9322
2.89376
2.856
2.81891
2.78249
2.74671
2.71156
2.67704
2.64313
2.60982
2.5771
2.54495
2.51337
2.48234
2.45185
2.42189
2.39245
2.36352
2.3351
2.30716
2.2797
2.25271
2.22618
2.20011
2.17447
2.14926
2.12447
2.1001
2.07613
2.05255
2.02935
2.00652
1.98406
1.96194
1.94017
1.91872
1.89759
1.87676
1.8562
1.83592
1.81588
1.79605
1.77641
1.75693
1.73757
1.71832
1.69916
1.68007
1.66103
1.64205
3.13511
3.09305
3.05174
3.01117
2.97132
2.93219
2.89376
2.85601
2.81893
2.78252
2.74675
2.71161
2.6771
2.6432
2.6099
2.57718
2.54504
2.51346
2.48244
2.45195
2.422
2.39257
2.36365
2.33523
2.30729
2.27984
2.25285
2.22633
2.20025
2.17461
2.1494
2.12462
2.10024
2.07626
2.05268
2.02947
2.00664
1.98417
1.96204
1.94025
1.91879
1.89764
1.87678
1.8562
1.83589
1.81582
1.79595
1.77627
1.75675
1.73736
1.7181
1.69893
1.67986
1.66086
1.64193
3.13506
3.09301
3.05171
3.01115
2.97131
2.93219
2.89377
2.85603
2.81896
2.78256
2.7468
2.71167
2.67717
2.64327
2.60998
2.57727
2.54513
2.51356
2.48254
2.45207
2.42212
2.39269
2.36378
2.33536
2.30743
2.27997
2.25299
2.22647
2.20039
2.17475
2.14954
2.12475
2.10037
2.07639
2.0528
2.02959
2.00675
1.98426
1.96212
1.94032
1.91884
1.89767
1.87679
1.85618
1.83584
1.81573
1.79583
1.77611
1.75656
1.73715
1.71787
1.69871
1.67965
1.66069
1.64181
3.13502
3.09298
3.05169
3.01114
2.97132
2.9322
2.89379
2.85606
2.819
2.78261
2.74685
2.71174
2.67724
2.64336
2.61007
2.57736
2.54524
2.51367
2.48266
2.45219
2.42224
2.39282
2.36391
2.33549
2.30756
2.28011
2.25313
2.22661
2.20053
2.17489
2.14968
2.12489
2.1005
2.07652
2.05292
2.0297
2.00684
1.98435
1.96219
1.94037
1.91887
1.89768
1.87677
1.85614
1.83577
1.81562
1.79569
1.77594
1.75636
1.73693
1.71765
1.69849
1.67945
1.66052
1.64169
3.13499
3.09296
3.05168
3.01115
2.97133
2.93223
2.89382
2.8561
2.81906
2.78267
2.74692
2.71181
2.67733
2.64345
2.61017
2.57747
2.54535
2.51379
2.48278
2.45231
2.42237
2.39295
2.36404
2.33563
2.3077
2.28025
2.25327
2.22675
2.20067
2.17503
2.14981
2.12502
2.10063
2.07663
2.05303
2.02979
2.00693
1.98442
1.96225
1.94041
1.91889
1.89767
1.87674
1.85608
1.83568
1.8155
1.79553
1.77575
1.75614
1.73671
1.71742
1.69827
1.67925
1.66035
1.64157
3.13498
3.09296
3.05169
3.01116
2.97136
2.93226
2.89387
2.85616
2.81912
2.78274
2.747
2.7119
2.67742
2.64355
2.61027
2.57758
2.54547
2.51391
2.48291
2.45244
2.42251
2.39309
2.36418
2.33577
2.30785
2.2804
2.25341
2.22689
2.20081
2.17516
2.14994
2.12514
2.10074
2.07674
2.05312
2.02988
2.007
1.98448
1.96229
1.94043
1.91889
1.89765
1.87669
1.856
1.83556
1.81535
1.79535
1.77554
1.75592
1.73647
1.71718
1.69803
1.67903
1.66017
1.64146
3.13498
3.09297
3.05171
3.01119
2.9714
2.93231
2.89393
2.85622
2.81919
2.78282
2.74709
2.712
2.67752
2.64366
2.61039
2.5777
2.54559
2.51404
2.48304
2.45258
2.42265
2.39323
2.36433
2.33592
2.30799
2.28054
2.25356
2.22703
2.20094
2.17529
2.15007
2.12526
2.10085
2.07684
2.05321
2.02996
2.00706
1.98452
1.96232
1.94044
1.91887
1.89761
1.87662
1.8559
1.83543
1.81518
1.79515
1.77532
1.75568
1.73622
1.71693
1.69779
1.6788
1.65998
1.64133
3.13499
3.09299
3.05174
3.01123
2.97145
2.93237
2.89399
2.8563
2.81928
2.78291
2.74719
2.7121
2.67764
2.64378
2.61051
2.57783
2.54572
2.51418
2.48318
2.45272
2.42279
2.39338
2.36447
2.33606
2.30814
2.28068
2.2537
2.22717
2.20108
2.17542
2.15019
2.12537
2.10096
2.07693
2.05329
2.03002
2.00712
1.98456
1.96233
1.94043
1.91884
1.89755
1.87654
1.85579
1.83528
1.815
1.79495
1.7751
1.75544
1.73597
1.71668
1.69755
1.67859
1.65981
1.6412
3.13502
3.09303
3.05179
3.01129
2.97151
2.93245
2.89408
2.85639