/*--------------------------------*- C++ -*----------------------------------*\
  =========                 |
  \\      /  F ield         | OpenFOAM: The Open Source CFD Toolbox
   \\    /   O peration     | Website:  https://openfoam.org
    \\  /    A nd           | Version:  10
     \\/     M anipulation  |
\*---------------------------------------------------------------------------*/
FoamFile
{
    format      ascii;
    class       volScalarField;
    location    "23000";
    object      yPlus;
}
// * * * * * * * * * * * * * * * * * * * * * * * * * * * * * * * * * * * * * //

dimensions      [0 0 0 0 0 0 0];

internalField   uniform 0;

boundaryField
{
    right
    {
        type            cyclic;
    }
    left
    {
        type            cyclic;
    }
    outerWall
    {
        type            calculated;
        value           nonuniform List<scalar> 0();
    }
    stirrerWall
    {
        type            calculated;
        value           nonuniform List<scalar> 
98
(
0.829128
0.801023
0.773787
0.747663
0.722909
0.699805
0.678662
0.659866
0.643903
0.631816
0.638362
0.65699
0.687325
0.732331
0.795587
0.88293
1.02124
1.32943
2.45709
6.58307
13.3625
10.748
9.03305
7.96802
7.58142
7.3564
7.17161
7.01226
6.87499
6.75569
6.65283
6.56499
6.49084
6.42864
6.37667
6.33344
6.29769
6.26835
6.24459
6.22572
6.21125
6.20078
6.194
6.19069
6.19073
6.19401
6.2005
6.21018
6.22309
6.23928
6.25883
6.28182
6.30833
6.33838
6.37179
6.40816
6.44596
6.48278
6.50945
6.43716
12.4372
12.6124
12.7904
12.9711
13.1548
13.3417
13.532
13.7258
13.9235
14.1254
14.3317
14.5428
14.7592
14.9814
15.2098
15.4448
15.6873
15.9379
16.1978
16.4682
16.751
17.0485
17.3618
17.6854
18.0283
18.3907
18.7971
19.2307
19.6955
20.2014
20.7611
21.3974
22.1248
22.9457
23.8968
25.0116
26.1844
27.7459
)
;
    }
    top
    {
        type            empty;
    }
    bottom
    {
        type            empty;
    }
    procBoundary0to1
    {
        type            processor;
        value           uniform 0;
    }
    procBoundary0to3
    {
        type            processor;
        value           uniform 0;
    }
}


// ************************************************************************* //
