/*--------------------------------*- C++ -*----------------------------------*\
  =========                 |
  \\      /  F ield         | OpenFOAM: The Open Source CFD Toolbox
   \\    /   O peration     | Website:  https://openfoam.org
    \\  /    A nd           | Version:  10
     \\/     M anipulation  |
\*---------------------------------------------------------------------------*/
FoamFile
{
    format      ascii;
    class       volScalarField;
    location    "2300";
    object      omega;
}
// * * * * * * * * * * * * * * * * * * * * * * * * * * * * * * * * * * * * * //

dimensions      [0 0 -1 0 0 0 0];

internalField   nonuniform List<scalar> 
420
(
21252.7
3604.57
1345.7
696.541
441.165
324.807
275.033
264.537
282.385
326.453
21253.7
3685.79
1382.52
729.016
464.715
342.513
289.665
278.134
297.736
350.516
21254.2
3738.73
1430.1
775.567
504.191
374.375
315.399
301.503
326.029
392.72
21254
3725.52
1444.54
809.16
542.557
410.969
349.227
337.063
372.521
460.458
21253.2
3638.47
1420.12
825.744
577.29
452.484
394.781
392.932
448.245
567.617
21251.7
3535.63
1414.32
875.227
649.912
535.116
485.705
498.478
577.29
739.964
21249.7
3694.11
1640.78
1135.03
905.311
777.138
716.901
720.349
809.468
1036.51
21247.1
4650.29
2791.71
2158.15
1786.34
1533.83
1359.92
1264.34
1312.19
1647.17
21243.8
10331.6
7953.88
6450.69
5343.89
4518.56
3874.54
3353.75
3040.77
3460.52
78643.9
60596.7
48114.3
39124.4
32436.5
27327.1
23335.9
20159.1
17589.3
15481.3
394.564
460.899
460.11
380.756
298.976
251.277
292.75
413.284
960.484
3581.27
432.459
504.439
485.861
385.113
296.978
250.423
293.561
419.003
996.061
3581.17
491.925
563.332
512.939
385.8
293.013
249.501
294.177
423.172
1028.28
3581.13
581.462
640.214
538.643
381.86
287.561
248.667
294.739
427.388
1050.97
3581.18
716.124
738.674
560.416
373.391
281.359
248.114
295.238
431.118
1052.34
3581.3
923.06
864.132
576.93
361.624
275.368
247.993
295.814
430.98
1045.4
3581.49
1261.31
1029.47
589.841
348.784
270.32
248.072
295.865
428.422
1032.71
3581.76
1889.18
1260.1
601.887
337.413
266.798
248.131
295.651
424.433
1017.91
3582.1
3326.54
1597.01
604.774
326.279
264.379
248.124
295.296
419.142
998.383
3582.51
7286.74
2058.92
585.199
315.261
263.218
248.082
295.175
414.385
974.769
3582.99
21359.1
2476.91
518.745
305.275
263.422
248.153
295.224
409.837
949.772
3575.63
21359.1
1993.9
438.463
300.355
263.843
247.996
295.295
411.843
948.782
3575.63
3327.55
752.054
359.877
297.054
263.837
247.553
295.101
414.3
953.302
3582.99
755.226
403.772
330.364
298.548
265.132
246.042
292.558
407.463
940.409
3582.51
390.132
346.126
330.235
304.231
268.108
245.139
290.356
401.771
911.987
3582.1
336.997
341.651
338.086
312.088
272.116
244.542
288.054
395.841
880.509
3581.76
330.889
348.103
349.706
321.809
277.153
244.583
286.207
391.511
852.262
3581.49
333.046
358.552
364.131
333.016
282.991
245.564
285.124
390.052
833.77
3581.3
337.915
371.901
380.87
345.132
289.204
247.781
285.405
393.041
833.505
3581.18
345.23
388.097
399.412
357.601
295.402
250.359
287.19
398.538
850.296
3581.13
355.755
407.641
420.243
369.915
300.208
252.287
289.586
404.942
877.477
3581.17
371.828
432.606
443.365
380.725
302.888
252.727
291.305
408.551
926.491
3581.27
15481.3
1876.59
534.97
347.637
315.561
308.15
305.461
304.881
307.478
313.652
17589.3
2571.01
737.474
392.165
313.57
290.098
279.252
273.107
272.348
275.118
20159.1
3357.4
1075.51
518.554
356.277
300.365
275.21
261.408
258.052
259.548
23335.9
4202.49
1533.16
770.865
490.92
373.334
317.467
288.547
276.531
272.506
27327.1
4998.49
1958.71
1055.37
683.75
505.59
412.394
361.951
337.219
325.785
32436.5
5844.08
2336.7
1316.62
884.925
666.289
546.34
480.679
450.419
439.013
39124.4
6897.24
2728.81
1571.17
1097.09
862.968
740.299
681.791
669.101
677.225
48114.3
8371.71
3296.39
1988.92
1514.14
1314.59
1234.69
1223.83
1254.25
1299.92
60596.7
10716.7
4991.93
3816.39
3520.78
3448.95
3449.57
3485.25
3510.2
3565.46
78643.9
21243.8
21247.1
21249.7
21251.7
21253.2
21254
21254.2
21253.7
21252.7
)
;

boundaryField
{
    right
    {
        type            cyclic;
    }
    left
    {
        type            cyclic;
    }
    outerWall
    {
        beta1           0.075;
        blended         0;
        type            omegaWallFunction;
        value           nonuniform List<scalar> 
22
(
3581.27
3581.17
3581.13
3581.18
3581.3
3581.49
3581.76
3582.1
3582.51
3582.99
3575.63
3575.63
3582.99
3582.51
3582.1
3581.76
3581.49
3581.3
3581.18
3581.13
3581.17
3581.27
)
;
    }
    stirrerWall
    {
        beta1           0.075;
        blended         0;
        type            omegaWallFunction;
        value           nonuniform List<scalar> 
42
(
21252.7
21253.7
21254.2
21254
21253.2
21251.7
21249.7
21247.1
21243.8
78643.9
78643.9
60596.7
48114.3
39124.4
32436.5
27327.1
23335.9
20159.1
17589.3
15481.3
21359.1
21359.1
15481.3
17589.3
20159.1
23335.9
27327.1
32436.5
39124.4
48114.3
60596.7
78643.9
78643.9
21243.8
21247.1
21249.7
21251.7
21253.2
21254
21254.2
21253.7
21252.7
)
;
    }
    top
    {
        type            empty;
    }
    bottom
    {
        type            empty;
    }
}


// ************************************************************************* //
