/*--------------------------------*- C++ -*----------------------------------*\
  =========                 |
  \\      /  F ield         | OpenFOAM: The Open Source CFD Toolbox
   \\    /   O peration     | Website:  https://openfoam.org
    \\  /    A nd           | Version:  10
     \\/     M anipulation  |
\*---------------------------------------------------------------------------*/
FoamFile
{
    format      ascii;
    class       volScalarField;
    location    "2300";
    object      p;
}
// * * * * * * * * * * * * * * * * * * * * * * * * * * * * * * * * * * * * * //

dimensions      [0 2 -2 0 0 0 0];

internalField   nonuniform List<scalar> 
420
(
-0.0139572
15.3909
31.5793
50.0903
70.3551
91.8492
113.998
135.983
157.254
177.187
-0.603763
14.7944
30.807
49.1274
69.2854
90.8096
113.147
135.445
157.024
177.215
-1.00889
14.293
30.0932
48.1995
68.224
89.7563
112.245
134.787
156.628
177.096
-1.24815
13.906
29.4878
47.3577
67.1941
88.6333
111.15
133.85
155.942
176.743
-1.3968
13.6461
29.0022
46.5822
66.1292
87.3384
109.746
132.533
154.9
176.125
-1.46712
13.5263
28.6485
45.869
65.0068
85.8372
107.989
130.801
153.495
175.267
-1.47846
13.5464
28.4384
45.2329
63.8494
84.1577
105.913
128.674
151.754
174.273
-1.46484
13.6976
28.385
44.7074
62.7276
82.4021
103.626
126.19
149.652
173.107
-1.5036
13.9853
28.4972
44.3551
61.7948
80.8082
101.378
123.464
146.876
170.863
-1.7109
14.3506
28.5755
44.036
61.0263
79.5059
99.4715
120.888
143.526
166.984
195.327
212.29
228.33
243.123
256.508
268.89
277.471
287.008
290.94
302.997
195.54
212.602
228.649
243.425
256.865
269.373
278.429
288.804
294.757
307.358
195.673
212.917
229.049
243.918
257.538
270.333
280.007
291.339
299.132
312.278
195.666
213.167
229.433
244.465
258.342
271.501
281.798
294.069
304.021
316.77
195.501
213.316
229.753
245.004
259.169
272.702
283.55
296.696
308.408
320.964
195.217
213.355
229.98
245.506
259.954
273.833
285.164
299.147
312.097
324.696
194.973
213.293
230.045
245.929
260.693
274.904
286.637
301.397
315.17
327.804
194.86
213.147
229.878
246.229
261.423
276.01
288.118
303.684
318.385
330.232
194.321
213.164
229.799
246.541
262.199
277.171
289.705
306.489
322.83
332.379
192.734
213.906
230.405
247.094
263.023
278.293
291.207
309.72
326.822
333.985
192.067
214.397
231.145
247.752
263.671
279.176
291.583
311.679
326.229
332.911
193.002
214.448
231.605
248.028
263.809
279.279
291.694
311.606
324.09
331.593
198.327
215.231
232.167
248.51
264.155
279.364
292.483
310.444
323.595
333.278
197.995
215.018
231.98
248.394
264.029
279.183
292.36
309.815
323.808
332.66
196.789
214.281
231.383
247.835
263.452
278.571
291.763
309.094
322.568
330.729
195.827
213.429
230.6
247.036
262.572
277.565
290.588
307.366
319.871
327.661
195.207
212.733
229.844
246.18
261.56
276.386
289.18
305.174
316.312
323.564
194.861
212.248
229.208
245.355
260.495
275.145
287.694
302.689
312.823
321.331
194.719
211.956
228.712
244.586
259.38
273.706
285.607
299.121
310.205
325.562
194.721
211.815
228.343
243.892
258.229
271.883
282.19
293.307
306.171
332.102
194.807
211.786
228.092
243.312
257.159
270.034
278.387
287.147
298.102
314.209
195.031
211.96
228.079
242.989
256.456
268.971
277.116
286.045
292.249
292.832
182.113
179.561
178.04
177.269
176.882
176.723
176.715
176.8
176.908
177.044
156.861
156.956
157.002
157.046
157.121
157.217
157.319
157.404
157.413
157.34
130.471
132.726
134.496
135.572
136.242
136.647
136.853
136.888
136.722
136.382
106.296
108.976
111.629
113.457
114.637
115.325
115.624
115.609
115.293
114.72
84.6197
86.8369
89.4217
91.4691
92.8655
93.6915
94.0235
93.9447
93.5146
92.7786
65.1041
66.6811
68.688
70.4412
71.7135
72.4774
72.7619
72.6239
72.1325
71.3422
47.5881
48.5773
49.8188
50.9749
51.8439
52.3441
52.4727
52.2589
51.7502
50.9981
32.0132
32.4772
32.9613
33.3984
33.7096
33.8355
33.747
33.4474
32.9574
32.3165
18.4001
18.2761
18.1028
17.9394
17.7766
17.5742
17.2988
16.9364
16.4793
15.9473
5.89713
4.77556
3.74672
3.0368
2.50584
2.03967
1.58169
1.10664
0.604735
0.182485
)
;

boundaryField
{
    right
    {
        type            cyclic;
    }
    left
    {
        type            cyclic;
    }
    outerWall
    {
        type            zeroGradient;
    }
    stirrerWall
    {
        type            zeroGradient;
    }
    top
    {
        type            empty;
    }
    bottom
    {
        type            empty;
    }
}


// ************************************************************************* //
