/*--------------------------------*- C++ -*----------------------------------*\
  =========                 |
  \\      /  F ield         | OpenFOAM: The Open Source CFD Toolbox
   \\    /   O peration     | Website:  https://openfoam.org
    \\  /    A nd           | Version:  10
     \\/     M anipulation  |
\*---------------------------------------------------------------------------*/
FoamFile
{
    format      ascii;
    class       surfaceScalarField;
    location    "2300";
    object      phi;
}
// * * * * * * * * * * * * * * * * * * * * * * * * * * * * * * * * * * * * * //

dimensions      [0 3 -1 0 0 0 0];

internalField   nonuniform List<scalar> 
788
(
7.71115e-07
-2.53965e-06
2.25577e-06
1.16832e-05
3.68924e-06
1.816e-05
5.43019e-06
2.09921e-05
7.29768e-06
2.11392e-05
9.17982e-06
1.82521e-05
1.0991e-05
1.0846e-05
1.26835e-05
-1.5897e-06
1.4116e-05
-1.79817e-05
-3.53598e-05
1.4391e-05
1.24093e-06
-3.78116e-06
2.54294e-06
1.03704e-05
4.0955e-06
1.65839e-05
6.00591e-06
1.90463e-05
8.21933e-06
1.88962e-05
1.08916e-05
1.55373e-05
1.38629e-05
7.77495e-06
1.63079e-05
-4.12543e-06
1.7332e-05
-1.90088e-05
-3.47842e-05
1.6749e-05
1.34708e-06
-5.11069e-06
3.32788e-06
8.38141e-06
5.75685e-06
1.41085e-05
8.55779e-06
1.62217e-05
1.15852e-05
1.58836e-05
1.47328e-05
1.23847e-05
1.74447e-05
5.02477e-06
1.88503e-05
-5.50767e-06
1.87803e-05
-1.88367e-05
-3.33057e-05
1.73622e-05
1.17829e-06
-6.306e-06
3.33442e-06
6.16627e-06
6.27753e-06
1.1136e-05
9.61137e-06
1.28886e-05
1.30121e-05
1.24803e-05
1.61471e-05
9.21879e-06
1.84141e-05
2.71783e-06
1.91194e-05
-6.20018e-06
1.82418e-05
-1.78812e-05
-3.10567e-05
1.60534e-05
7.38426e-07
-7.05989e-06
2.65216e-06
4.20524e-06
5.65611e-06
8.10918e-06
9.09776e-06
9.44558e-06
1.25518e-05
9.01113e-06
1.54611e-05
6.27057e-06
1.72087e-05
9.3732e-07
1.73135e-05
-6.29606e-06
1.55541e-05
-1.60859e-05
-2.79547e-05
1.24642e-05
8.05416e-08
-7.15169e-06
1.48962e-06
2.76869e-06
4.22876e-06
5.36039e-06
7.45178e-06
6.23498e-06
1.06324e-05
5.83742e-06
1.31349e-05
3.74559e-06
1.42197e-05
-1.8843e-07
1.35079e-05
-5.61247e-06
1.06664e-05
-1.32478e-05
-2.39023e-05
6.60633e-06
-7.44009e-07
-6.4168e-06
6.3953e-08
1.95802e-06
2.32767e-06
3.1215e-06
5.07487e-06
3.52912e-06
7.72756e-06
3.20682e-06
9.59532e-06
1.85332e-06
9.89087e-06
-5.3692e-07
8.15426e-06
-3.89945e-06
4.14621e-06
-9.20049e-06
-1.9073e-05
-6.36955e-07
-1.66298e-06
-4.75875e-06
-1.35285e-06
1.66312e-06
3.16948e-07
1.49297e-06
2.36844e-06
1.52869e-06
4.27923e-06
1.3369e-06
5.40935e-06
7.41257e-07
5.05202e-06
-1.61915e-07
2.64535e-06
-1.42104e-06
-2.12386e-06
-4.30077e-06
-1.3781e-05
-7.31009e-06
-2.66255e-06
-2.09673e-06
-2.37915e-06
1.3975e-06
-1.3613e-06
5.08382e-07
-1.27582e-07
3.58037e-07
1.06218e-06
2.57318e-07
1.72291e-06
2.05387e-07
1.36431e-06
2.80237e-07
-4.89267e-07
4.96099e-07
-4.75199e-06
7.24996e-08
-7.22254e-06
-1.11773e-05
-2.09826e-06
-6.88441e-07
-1.33289e-07
3.03325e-07
6.28644e-07
8.54445e-07
1.13182e-06
1.65834e-06
1.80397e-06
-5.35596e-06
1.33921e-05
-5.47729e-05
1.18296e-05
-8.58821e-05
1.0825e-05
-0.000129458
1.05249e-05
-0.00018397
1.08188e-05
-0.000250267
1.28149e-05
-0.000340941
1.64201e-05
-0.000418394
1.42688e-05
-0.000592547
2.0031e-05
-0.000777773
-0.000341319
1.49772e-05
-5.30782e-05
1.28746e-05
-8.37728e-05
1.15004e-05
-0.00012797
1.06441e-05
-0.000183078
1.00431e-05
-0.000249636
1.01677e-05
-0.000341096
1.15294e-05
-0.000419717
9.1923e-06
-0.00059011
5.42131e-06
-0.00077405
-0.000335889
1.50248e-05
-5.07479e-05
1.2648e-05
-8.13692e-05
1.10302e-05
-0.000126297
9.68942e-06
-0.000181743
8.36715e-06
-0.000248288
7.11784e-06
-0.000339851
7.31394e-06
-0.00042004
4.33444e-06
-0.000587127
-3.77087e-06
-0.000765876
-0.00033966
1.32413e-05
-4.79273e-05
1.09509e-05
-7.90612e-05
9.43867e-06
-0.000124779
7.86375e-06
-0.000180207
6.09865e-06
-0.000246549
3.838e-06
-0.000337713
3.39465e-06
-0.000419497
-7.4361e-07
-0.000582997
-1.06572e-05
-0.000755908
-0.000350331
9.37645e-06
-4.4879e-05
7.80275e-06
-7.75039e-05
6.88942e-06
-0.000123868
5.37698e-06
-0.00017878
3.59697e-06
-0.000244624
8.21411e-07
-0.000335063
4.74521e-08
-0.00041868
-4.92763e-06
-0.000578029
-1.36954e-05
-0.000747113
-0.000364048
3.83463e-06
-4.21478e-05
3.71381e-06
-7.73821e-05
3.72766e-06
-0.000123837
2.55874e-06
-0.000177695
9.37524e-07
-0.000242924
-1.98025e-06
-0.000332231
-2.95289e-06
-0.000417732
-7.74985e-06
-0.000573228
-1.54709e-05
-0.000739372
-0.000379533
-1.95903e-06
-4.08177e-05
-3.08654e-07
-7.90032e-05
4.48445e-07
-0.000124554
-3.04607e-07
-0.000176955
-1.62634e-06
-0.00024155
-4.45656e-06
-0.000329451
-5.3474e-06
-0.000416854
-9.28367e-06
-0.000569261
-1.58484e-05
-0.000732816
-0.00039538
-6.13536e-06
-4.19535e-05
-3.29951e-06
-8.17873e-05
-2.31668e-06
-0.00012552
-2.78856e-06
-0.000176468
-3.78254e-06
-0.000240492
-6.4419e-06
-0.000326838
-7.09581e-06
-0.000416201
-1.05767e-05
-0.000565696
-1.66931e-05
-0.000726782
-0.000412153
-7.29895e-06
-4.57334e-05
-4.40709e-06
-8.45647e-05
-3.92442e-06
-0.000126004
-4.49722e-06
-0.000175929
-5.29551e-06
-0.000239612
-7.78245e-06
-0.00032433
-8.1379e-06
-0.000415906
-9.92587e-06
-0.000563907
-1.703e-05
-0.000719747
-0.000429202
-2.20468e-06
-4.87992e-05
-2.61896e-06
-8.41737e-05
-4.31595e-06
-0.000124303
-5.43274e-06
-0.00017478
-6.10435e-06
-0.000238891
-8.30403e-06
-0.000322159
-9.1954e-06
-0.000415099
-1.01206e-05
-0.000563003
-1.59507e-05
-0.000714046
-0.000445177
-1.92069e-07
-4.8608e-05
-2.26105e-06
-8.20862e-05
-3.73085e-06
-0.000122823
-4.37963e-06
-0.000174087
-4.53157e-06
-0.000238751
-5.33868e-06
-0.000321426
-5.7324e-06
-0.000414732
-1.13876e-06
-0.000567541
-5.38732e-06
-0.000709919
-0.000450581
1.0599e-06
-4.96692e-05
-8.25328e-07
-8.01513e-05
-2.06538e-06
-0.000121577
-2.37188e-06
-0.000173818
-2.41489e-06
-0.000238703
-3.21964e-06
-0.000320634
-3.72577e-06
-0.000414277
-6.02964e-07
-0.000570642
-4.46738e-06
-0.000706095
-0.000455037
-5.94262e-06
-4.17136e-05
-2.00021e-06
-8.80372e-06
-7.73823e-05
-1.02688e-05
-0.000120086
-1.1049e-05
-0.00017303
-1.15195e-05
-0.000238248
-1.26644e-05
-0.000319533
-1.22106e-05
-0.000414763
-1.28748e-05
-0.000569871
-1.23892e-05
-0.000706573
-0.000467482
-1.27429e-05
-4.47462e-05
1.56788e-05
-1.19397e-05
-7.82e-05
-1.15044e-05
-0.000120573
-1.1261e-05
-0.0001733
-1.12175e-05
-0.000238313
-1.22054e-05
-0.000318526
-1.28533e-05
-0.000414114
-1.11517e-05
-0.000571546
-1.5174e-05
-0.000702556
-0.000482706
-1.4841e-05
-4.77757e-05
1.78327e-05
-1.30116e-05
-8.01369e-05
-1.17621e-05
-0.000121884
-1.0943e-05
-0.000174138
-1.04999e-05
-0.000238748
-1.10358e-05
-0.00031799
-1.28951e-05
-0.000412207
-1.14557e-05
-0.000573006
-1.44578e-05
-0.000699555
-0.000497207
-1.39829e-05
-5.02345e-05
1.63388e-05
-1.20996e-05
-8.21316e-05
-1.05669e-05
-0.00012344
-9.46981e-06
-0.000175266
-8.72058e-06
-0.000239471
-8.74553e-06
-0.000318066
-1.09828e-05
-0.000409972
-9.93179e-06
-0.000574073
-1.21689e-05
-0.000697276
-0.00050939
-1.15281e-05
-5.22037e-05
1.33676e-05
-9.76436e-06
-8.39029e-05
-8.19358e-06
-0.000125028
-6.94346e-06
-0.000176561
-5.93117e-06
-0.000240459
-5.39817e-06
-0.00031864
-7.90235e-06
-0.000407478
-6.66348e-06
-0.000575288
-8.5315e-06
-0.000695308
-0.000517951
-7.90652e-06
-5.37405e-05
9.39236e-06
-6.37465e-06
-8.54311e-05
-4.84917e-06
-0.00012658
-3.40414e-06
-0.000178008
-1.98631e-06
-0.000241847
-5.72535e-07
-0.000320033
-2.85279e-06
-0.000405163
-1.37882e-06
-0.000576705
-3.23066e-06
-0.000693365
-0.000521291
-3.64514e-06
-5.49014e-05
4.77018e-06
-2.38185e-06
-8.67637e-05
-8.59697e-07
-0.000128124
9.04253e-07
-0.000179729
2.97988e-06
-0.000243858
5.89016e-06
-0.000322902
5.54958e-06
-0.000404802
8.45852e-06
-0.000579628
6.50714e-06
-0.000691323
-0.000514709
8.31752e-07
-5.56676e-05
-1.66064e-07
1.8593e-06
-8.78497e-05
3.416e-06
-0.000129605
5.49836e-06
-0.000181772
8.24146e-06
-0.000246664
1.33349e-05
-0.000328115
1.71517e-05
-0.000408516
2.59716e-05
-0.000588251
3.03686e-05
-0.000695724
-0.000484231
5.42608e-06
-5.60803e-05
-5.14093e-06
6.06986e-06
-8.831e-05
7.32191e-06
-0.000130785
9.2611e-06
-0.000183852
1.17183e-05
-0.000249085
1.79832e-05
-0.000334294
2.51468e-05
-0.000415776
3.65378e-05
-0.000599606
6.72198e-05
-0.000726366
-0.000417198
1.09155e-05
-1.11626e-05
1.01148e-05
9.7215e-06
1.01932e-05
1.10413e-05
1.57488e-05
1.49968e-05
9.88096e-06
5.58172e-05
-1.37615e-05
1.17722e-05
-2.25091e-05
2.43999e-05
-2.66083e-05
2.17663e-05
-2.91268e-05
1.87346e-05
-3.08693e-05
1.50768e-05
-3.2198e-05
1.07036e-05
-3.32712e-05
5.75637e-06
-3.40068e-05
4.73037e-07
-3.44715e-05
-4.55156e-06
-1.01916e-05
-2.97925e-06
1.46606e-05
-7.00612e-06
2.83296e-05
-1.02002e-05
2.48372e-05
-1.21192e-05
2.05434e-05
-1.31921e-05
1.61264e-05
-1.38961e-05
1.14258e-05
-1.45074e-05
6.33466e-06
-1.50004e-05
9.03944e-07
-1.52914e-05
-4.20846e-06
-8.82979e-06
1.42619e-06
1.32233e-05
2.21376e-06
2.74813e-05
1.50954e-06
2.54428e-05
8.70293e-07
2.1198e-05
6.33226e-07
1.6476e-05
5.97463e-07
1.15512e-05
6.10328e-07
6.33678e-06
6.75377e-07
8.54624e-07
9.19528e-07
-4.35696e-06
-8.08444e-06
3.1632e-06
1.00816e-05
7.31864e-06
2.3253e-05
9.51339e-06
2.31828e-05
1.08836e-05
1.99119e-05
1.19807e-05
1.55076e-05
1.28539e-05
1.07399e-05
1.34239e-05
5.75967e-06
1.36002e-05
6.74515e-07
1.33544e-05
-4.01082e-06
-7.18699e-06
3.27344e-06
6.78561e-06
8.96965e-06
1.7439e-05
1.34058e-05
1.86843e-05
1.66031e-05
1.67731e-05
1.88673e-05
1.32992e-05
2.04258e-05
9.17442e-06
2.13281e-05
4.81812e-06
2.15228e-05
4.544e-07
2.1031e-05
-3.43606e-06
-6.00892e-06
2.73692e-06
3.99072e-06
8.57687e-06
1.14923e-05
1.40778e-05
1.31819e-05
1.84888e-05
1.23948e-05
2.16923e-05
1.00809e-05
2.38078e-05
7.0033e-06
2.49541e-05
3.61811e-06
2.51291e-05
2.37352e-07
2.44431e-05
-2.70603e-06
-4.54744e-06
2.06993e-06
1.87568e-06
7.27634e-06
6.26163e-06
1.28313e-05
7.69495e-06
1.75888e-05
7.63653e-06
2.11998e-05
6.41007e-06
2.36361e-05
4.4903e-06
2.49421e-05
2.24585e-06
2.51332e-05
-2.81916e-08
2.43641e-05
-1.95605e-06
-3.08804e-06
1.60673e-06
2.64722e-07
5.81775e-06
2.10554e-06
1.05483e-05
3.02085e-06
1.47978e-05
3.34148e-06
1.81639e-05
2.96365e-06
2.04692e-05
2.09476e-06
2.16642e-05
9.62277e-07
2.17763e-05
-2.26881e-07
2.09666e-05
-1.20354e-06
-1.79322e-06
1.04827e-06
-7.63726e-07
3.9421e-06
-7.26865e-07
7.27802e-06
-3.14496e-07
1.03846e-05
1.79513e-07
1.28971e-05
3.69328e-07
1.46004e-05
2.92057e-07
1.53827e-05
7.91987e-08
1.5238e-05
-1.41549e-07
1.4266e-05
-2.75518e-07
-5.71097e-07
-7.48856e-07
-1.47093e-06
-1.81199e-06
-1.66782e-06
-1.33723e-06
-1.08185e-06
-1.0303e-06
-1.18154e-06
-1.46165e-06
)
;

boundaryField
{
    right
    {
        type            cyclic;
        value           nonuniform List<scalar> 
20
(
0.000361379
0.000772185
0.000594358
0.000415288
0.000338853
0.000249758
0.000184165
0.000130569
8.76809e-05
5.60523e-05
3.5349e-05
1.68628e-05
2.61448e-07
-1.22512e-05
-1.97849e-05
-2.28945e-05
-2.28151e-05
-1.96997e-05
-1.3174e-05
1.97503e-06
)
;
    }
    left
    {
        type            cyclic;
        value           nonuniform List<scalar> 
20
(
-0.000361379
-0.000772185
-0.000594358
-0.000415288
-0.000338853
-0.000249758
-0.000184165
-0.000130569
-8.76809e-05
-5.60523e-05
-3.5349e-05
-1.68628e-05
-2.61448e-07
1.22512e-05
1.97849e-05
2.28945e-05
2.28151e-05
1.96997e-05
1.3174e-05
-1.97503e-06
)
;
    }
    outerWall
    {
        type            calculated;
        value           uniform 0;
    }
    stirrerWall
    {
        type            calculated;
        value           uniform 0;
    }
    top
    {
        type            empty;
        value           nonuniform List<scalar> 0();
    }
    bottom
    {
        type            empty;
        value           nonuniform List<scalar> 0();
    }
}


// ************************************************************************* //
