/*--------------------------------*- C++ -*----------------------------------*\
  =========                 |
  \\      /  F ield         | OpenFOAM: The Open Source CFD Toolbox
   \\    /   O peration     | Website:  https://openfoam.org
    \\  /    A nd           | Version:  10
     \\/     M anipulation  |
\*---------------------------------------------------------------------------*/
FoamFile
{
    format      ascii;
    class       volVectorField;
    location    "2300";
    object      U;
}
// * * * * * * * * * * * * * * * * * * * * * * * * * * * * * * * * * * * * * //

dimensions      [0 1 -1 0 0 0 0];

internalField   nonuniform List<vector> 
420
(
(0.763995 8.86901 1.00467e-17)
(-0.344899 11.2925 -6.77709e-17)
(-0.113909 13.1171 -3.11449e-16)
(-0.0307154 14.6324 8.33895e-17)
(0.069024 15.9003 -5.38816e-16)
(0.186222 16.9181 0)
(0.313711 17.5532 0)
(0.30497 17.7568 6.24555e-16)
(0.35791 17.6169 -6.70321e-16)
(0.338713 17.366 0)
(0.162245 8.82299 3.31411e-17)
(-1.1162 11.1513 -1.5868e-16)
(-1.03281 12.9594 9.42319e-16)
(-1.04454 14.4432 -1.27087e-15)
(-1.02047 15.7154 3.90327e-16)
(-0.946236 16.723 4.39596e-18)
(-0.801594 17.3548 2.89706e-15)
(-0.708833 17.5806 -9.10134e-16)
(-0.665531 17.5243 1.29203e-15)
(-0.755207 17.3881 0)
(-0.527224 8.70297 8.23923e-17)
(-1.84692 10.9022 -7.45068e-16)
(-1.8081 12.6941 8.97697e-16)
(-1.83564 14.1604 1.39647e-15)
(-1.83673 15.4123 -9.01436e-16)
(-1.79854 16.4013 3.94243e-15)
(-1.72404 17.0383 1.65937e-15)
(-1.73673 17.3542 4.95889e-15)
(-1.82161 17.4178 -1.9774e-15)
(-1.98537 17.3812 -4.0196e-15)
(-1.20776 8.51275 -1.58178e-17)
(-2.62827 10.5501 6.76474e-16)
(-2.6491 12.3042 -1.14625e-15)
(-2.71952 13.7494 9.37282e-16)
(-2.77191 15.0019 -1.77232e-15)
(-2.80543 15.9892 1.64571e-15)
(-2.83194 16.6777 -9.66011e-15)
(-2.95098 17.1014 0)
(-3.13106 17.2681 -4.18859e-15)
(-3.36074 17.3119 3.73392e-15)
(-1.87867 8.29308 0)
(-3.43426 10.1259 4.88957e-16)
(-3.54564 11.8055 -4.57046e-16)
(-3.69076 13.2159 0)
(-3.82001 14.4573 -2.42167e-16)
(-3.94094 15.4749 -3.13146e-16)
(-4.08392 16.2212 3.32764e-15)
(-4.31009 16.7521 -4.19399e-15)
(-4.58886 17.0284 0)
(-4.89964 17.1453 -1.53931e-14)
(-2.5431 8.06455 9.79932e-18)
(-4.25086 9.6554 0)
(-4.46213 11.2219 0)
(-4.70302 12.5792 1.67013e-15)
(-4.93151 13.8022 -2.43219e-15)
(-5.16051 14.8424 2.69785e-15)
(-5.43441 15.6604 5.65538e-16)
(-5.79142 16.289 9.21188e-15)
(-6.19619 16.681 -1.15328e-14)
(-6.5993 16.8566 7.76883e-15)
(-3.21301 7.83814 0)
(-5.06415 9.15271 -5.31243e-16)
(-5.36901 10.5778 -2.85419e-15)
(-5.71784 11.8631 -1.05866e-15)
(-6.06328 13.0554 -4.43182e-15)
(-6.4246 14.1115 2.80659e-15)
(-6.85195 14.9997 -6.65105e-15)
(-7.36822 15.7258 7.19254e-16)
(-7.92687 16.2407 -3.61626e-15)
(-8.41489 16.4617 -1.26578e-14)
(-3.91607 7.619 -2.95902e-17)
(-5.84816 8.63022 5.48748e-16)
(-6.23762 9.90032 3.91212e-15)
(-6.70011 11.0949 5.9106e-16)
(-7.1779 12.2369 2.77754e-15)
(-7.69138 13.2949 0)
(-8.28612 14.2499 7.21012e-15)
(-8.97567 15.0943 8.68547e-15)
(-9.68182 15.7671 1.0068e-14)
(-10.2271 16.011 1.041e-14)
(-4.67476 7.3773 -3.21769e-17)
(-6.56884 8.10903 5.60085e-16)
(-7.05981 9.25706 -5.94299e-16)
(-7.65557 10.3654 -2.36661e-15)
(-8.26877 11.4424 7.44582e-15)
(-8.91011 12.4684 9.8007e-15)
(-9.60939 13.4351 -3.45973e-15)
(-10.3734 14.3469 0)
(-11.1408 15.133 0)
(-11.7441 15.3354 -1.13571e-14)
(-5.51315 7.03848 -4.41286e-17)
(-6.92744 7.73282 7.44279e-16)
(-7.50758 8.72625 0)
(-8.24392 9.7182 0)
(-9.03198 10.703 -3.5318e-15)
(-9.85439 11.7008 -3.80431e-17)
(-10.7008 12.7253 6.5193e-15)
(-11.5307 13.7753 -1.45418e-14)
(-12.2896 14.7464 1.74049e-14)
(-12.8583 15.0337 1.37889e-15)
(0.268524 17.0005 0)
(0.148296 16.4432 0)
(0.0406774 15.6428 0)
(0.0351886 14.8462 -9.33856e-16)
(-0.124258 14.1158 0)
(0.226656 13.0177 0)
(0.664197 13.42 1.00646e-15)
(-1.46349 10.5153 0)
(2.43326 9.07776 0)
(-2.56591 28.4855 0)
(-0.865316 17.1163 1.73984e-15)
(-1.00381 16.5702 2.93809e-15)
(-1.08695 15.6975 1.15846e-16)
(-1.04777 14.8402 1.00028e-15)
(-1.18101 14.0664 4.36542e-17)
(-0.853128 12.9106 1.22639e-15)
(-0.470394 13.3343 -6.29663e-17)
(-2.42734 10.4103 -6.87832e-17)
(1.36859 9.08012 -2.22242e-15)
(-4.99415 28.9149 -1.44683e-15)
(-2.12536 17.1724 1.57522e-15)
(-2.26565 16.6151 0)
(-2.29395 15.6749 -2.34528e-15)
(-2.19607 14.7821 -1.95926e-15)
(-2.28567 13.986 5.92668e-15)
(-1.9668 12.8169 -1.19481e-15)
(-1.6013 13.1992 2.07665e-15)
(-3.3408 10.2934 0)
(0.339334 9.33036 2.37788e-15)
(-7.24463 28.3046 -8.76869e-17)
(-3.52958 17.1478 3.40057e-15)
(-3.64793 16.5488 8.68531e-15)
(-3.57465 15.5464 -9.13902e-15)
(-3.39811 14.6437 3.6307e-15)
(-3.42489 13.8409 1.24277e-17)
(-3.09423 12.6788 0)
(-2.74878 13.0059 -2.09501e-15)
(-4.21688 10.1132 -2.8065e-15)
(-0.661638 9.64604 -2.37217e-15)
(-9.61054 27.4058 6.08905e-15)
(-5.09308 16.9899 3.13193e-15)
(-5.13336 16.3042 -2.87697e-15)
(-4.89919 15.2677 9.32381e-15)
(-4.63044 14.3941 -3.72021e-15)
(-4.57762 13.6086 3.07479e-15)
(-4.2085 12.476 -4.7944e-15)
(-3.89065 12.7315 4.24812e-15)
(-5.0567 9.94181 2.82311e-15)
(-1.63843 9.82663 0)
(-11.6142 26.1556 -1.22099e-14)
(-6.78577 16.6451 3.9179e-15)
(-6.64937 15.8228 -1.7427e-14)
(-6.21136 14.8157 -4.94415e-15)
(-5.86052 14.0191 1.13947e-14)
(-5.72375 13.2755 9.48683e-15)
(-5.30181 12.1989 2.07185e-16)
(-5.01858 12.3617 1.26795e-16)
(-5.85567 9.72108 -3.00225e-15)
(-2.57545 9.89942 -2.98816e-15)
(-13.4251 24.7433 1.26035e-14)
(-8.50183 16.0736 4.19502e-15)
(-8.06784 15.0888 6.23e-15)
(-7.4431 14.1989 0)
(-7.05247 13.5169 -3.82376e-15)
(-6.83753 12.8324 -6.10405e-15)
(-6.35929 11.8419 2.27821e-16)
(-6.11394 11.9016 -1.32286e-14)
(-6.59712 9.44171 -3.04665e-15)
(-3.47774 9.87385 5.82435e-15)
(-14.9898 23.1835 -6.1705e-15)
(-10.0512 15.2436 1.68188e-14)
(-9.27369 14.1533 -5.77521e-15)
(-8.54983 13.4702 0)
(-8.16966 12.9101 -1.95237e-16)
(-7.89188 12.2915 2.52807e-14)
(-7.36678 11.4038 -1.01149e-14)
(-7.15003 11.3547 -9.13975e-15)
(-7.28231 9.07667 6.34272e-15)
(-4.3604 9.76004 -5.96174e-15)
(-16.5012 21.4944 0)
(-11.1096 14.1804 3.51254e-16)
(-10.2631 13.1651 -5.72744e-15)
(-9.54127 12.7176 0)
(-9.19289 12.239 8.09235e-15)
(-8.86807 11.6755 -1.90981e-14)
(-8.31088 10.8923 1.04153e-14)
(-8.11544 10.7031 4.54644e-15)
(-7.90526 8.7489 0)
(-5.19865 9.59343 -2.35851e-16)
(-17.8837 19.6834 6.73109e-15)
(-11.288 13.3607 4.50454e-16)
(-11.077 12.3321 4.88438e-17)
(-10.4797 11.997 0)
(-10.1297 11.5249 -1.59436e-14)
(-9.75232 10.9809 6.07135e-15)
(-9.16766 10.3194 -5.52295e-15)
(-8.9827 9.97559 4.54168e-15)
(-8.44019 8.23519 5.74841e-16)
(-6.03246 9.33284 2.8002e-16)
(-18.989 17.745 -6.79517e-15)
(-11.0599 13.7202 3.24623e-15)
(-11.7248 11.8693 -6.09062e-15)
(-11.2646 11.4648 0)
(-10.8415 10.9871 0)
(-10.397 10.462 0)
(-9.78444 9.91014 -2.76688e-15)
(-9.60742 9.54375 1.15648e-14)
(-8.70514 7.88402 0)
(-6.5455 9.45648 0)
(-19.8355 16.2266 0)
(-11.76 13.0427 -3.16853e-15)
(-12.3907 11.4983 -6.08407e-15)
(-11.948 10.9753 0)
(-11.4328 10.4795 4.22473e-15)
(-10.9183 9.97288 -3.23589e-15)
(-10.3048 9.44847 2.81463e-15)
(-10.0648 9.10181 4.84395e-15)
(-8.93167 7.36662 -1.83087e-16)
(-7.03514 9.18891 1.59477e-15)
(-20.5005 15.3682 0)
(-13.8624 11.3401 3.47961e-16)
(-13.3715 10.6358 -1.85552e-17)
(-12.7836 10.0627 0)
(-12.169 9.56991 2.44589e-16)
(-11.5845 9.10594 7.12325e-15)
(-10.973 8.62933 -5.14132e-15)
(-10.7017 8.21113 -1.40768e-14)
(-9.34584 6.67794 -7.8952e-15)
(-7.77672 8.42984 1.35242e-14)
(-21.1836 13.8984 6.95316e-15)
(-15.0939 9.90371 -1.55654e-14)
(-14.3421 9.44532 5.75022e-15)
(-13.5985 9.03315 0)
(-12.9009 8.63547 -8.41794e-15)
(-12.2587 8.25131 -6.93748e-15)
(-11.6141 7.90092 1.10658e-14)
(-11.3672 7.33297 4.84556e-15)
(-9.76381 6.05469 0)
(-8.48223 7.97659 -7.12722e-15)
(-21.9017 11.7662 -1.26587e-16)
(-15.6264 8.50158 -2.83067e-16)
(-14.932 8.20871 5.56667e-15)
(-14.1835 7.93469 0)
(-13.4696 7.63518 1.63123e-14)
(-12.8106 7.32565 -1.18788e-17)
(-12.1498 7.11224 -1.91515e-16)
(-11.9346 6.49649 9.97039e-15)
(-10.1448 5.23436 -7.44348e-15)
(-9.06748 7.5252 -7.2644e-15)
(-22.3997 9.65821 0)
(-15.9764 7.27184 -3.39127e-15)
(-15.3361 7.06044 1.14565e-14)
(-14.6115 6.87088 9.8754e-15)
(-13.9078 6.64941 -1.16367e-14)
(-13.2548 6.40136 -2.01777e-14)
(-12.5861 6.31726 -3.84252e-16)
(-12.4306 5.70035 -4.92826e-15)
(-10.4597 4.46758 -3.82448e-15)
(-9.56265 7.07327 -7.53328e-15)
(-22.7326 7.59283 -6.84639e-15)
(-16.2345 6.14427 -1.04118e-14)
(-15.6244 5.98356 5.645e-15)
(-14.9242 5.85323 -4.4036e-15)
(-14.2397 5.69209 -1.1923e-14)
(-13.6028 5.48911 9.42893e-15)
(-12.9307 5.53242 -3.72332e-16)
(-12.8622 4.94038 9.34477e-15)
(-10.7099 3.69218 4.20447e-15)
(-9.9954 6.65535 4.07469e-15)
(-22.9402 5.60329 1.59485e-16)
(-16.4292 5.09659 3.09122e-15)
(-15.8346 4.97384 -2.8374e-15)
(-15.1498 4.88214 -1.39e-16)
(-14.4806 4.7699 1.17258e-14)
(-13.8555 4.60073 -1.64067e-14)
(-13.1804 4.77845 5.30207e-15)
(-13.2229 4.24271 -4.74515e-15)
(-10.8883 2.94341 1.09426e-14)
(-10.411 6.28081 0)
(-23.1044 3.77951 1.64129e-16)
(-16.5816 4.10041 3.44369e-15)
(-15.989 4.00791 2.85462e-15)
(-15.3077 3.94408 4.83784e-15)
(-14.6411 3.87695 -7.75127e-15)
(-14.0102 3.7394 3.17181e-15)
(-13.3135 4.05719 0)
(-13.4846 3.60927 -2.21128e-15)
(-10.9413 2.31365 -7.29555e-15)
(-10.7936 6.04143 -8.05572e-17)
(-23.4503 2.33021 6.05729e-15)
(-16.7046 3.12877 1.62877e-15)
(-16.0987 3.06445 0)
(-15.411 3.02398 2.4221e-15)
(-14.7302 3.00153 2.07577e-15)
(-14.0752 2.88832 1.05613e-16)
(-13.3057 3.35609 -1.30092e-15)
(-13.5008 2.96522 2.18639e-15)
(-10.7664 1.88682 0)
(-11.0289 6.16313 3.19637e-15)
(-24.0311 1.40721 5.01247e-15)
(-16.8104 2.18085 1.82752e-15)
(-16.1713 2.12867 -3.03243e-15)
(-15.4554 2.09656 -1.25652e-16)
(-14.7513 2.10363 8.7769e-16)
(-14.0764 1.97251 -6.78451e-17)
(-13.2613 2.5835 1.23887e-15)
(-13.4072 2.24981 -1.93958e-15)
(-10.1318 1.14315 3.79799e-18)
(-10.7917 6.49083 2.33103e-15)
(-23.1843 -0.22691 -3.53949e-15)
(-16.8813 1.32088 2.67519e-29)
(-16.2996 1.22943 0)
(-15.5458 1.12156 0)
(-14.7867 1.10023 -9.45128e-16)
(-14.1039 0.911999 0)
(-13.0195 1.34182 0)
(-13.4455 1.70615 1.01228e-15)
(-10.5725 -0.994161 0)
(-9.38862 3.97062 0)
(-29.6606 0.00246281 -1.51346e-29)
(-14.7201 12.4765 1.02054e-15)
(-15.8695 9.98089 -8.87054e-15)
(-16.2127 8.52177 8.24924e-15)
(-16.4865 7.27976 -1.12086e-14)
(-16.7313 6.16511 7.48055e-15)
(-16.9291 5.12992 -1.56012e-14)
(-17.0821 4.14631 3.91612e-15)
(-17.2024 3.19062 -4.27976e-15)
(-17.3262 2.23274 0)
(-17.3359 1.35429 -5.43477e-16)
(-15.1602 11.8201 1.56102e-14)
(-16.0866 9.39916 0)
(-16.4551 8.25531 8.61918e-15)
(-16.7053 7.13866 -3.40113e-15)
(-16.9638 6.10057 -1.16687e-14)
(-17.1921 5.11929 0)
(-17.3767 4.17824 -4.54283e-15)
(-17.5221 3.26028 -2.17096e-15)
(-17.6671 2.31279 1.46835e-15)
(-17.6677 1.37008 -6.77702e-16)
(-14.7089 11.0124 -1.29373e-14)
(-15.7749 8.71465 0)
(-16.3209 7.77509 8.04329e-15)
(-16.6184 6.82228 7.69987e-16)
(-16.9028 5.89321 9.798e-15)
(-17.1595 4.9771 -4.64664e-15)
(-17.3775 4.08651 0)
(-17.5597 3.22657 5.76335e-15)
(-17.7243 2.34906 -1.03223e-15)
(-17.8124 1.35736 8.04521e-16)
(-13.6454 10.2496 5.83912e-15)
(-15.0022 8.21871 -2.76353e-15)
(-15.7767 7.34793 6.23967e-15)
(-16.2235 6.51903 -6.29606e-15)
(-16.589 5.71571 6.32196e-16)
(-16.902 4.91 3.57041e-15)
(-17.1629 4.10345 -1.06833e-14)
(-17.3626 3.29198 1.86775e-15)
(-17.5086 2.43968 3.2609e-15)
(-17.5902 1.43277 8.80271e-17)
(-12.4442 9.54398 -8.64602e-15)
(-13.8611 7.75284 7.74856e-15)
(-14.8569 6.91936 0)
(-15.4711 6.15535 2.52016e-15)
(-15.9269 5.43087 2.61633e-15)
(-16.2932 4.69443 -3.30035e-16)
(-16.5807 3.93301 1.78115e-15)
(-16.7859 3.1432 4.31206e-15)
(-16.9136 2.2905 1.02493e-17)
(-16.9684 1.29962 4.05548e-16)
(-11.2349 8.84476 -3.4319e-15)
(-12.5423 7.33163 5.81926e-15)
(-13.6213 6.54677 2.30878e-15)
(-14.3543 5.81977 -3.80088e-15)
(-14.9131 5.13635 -2.25356e-15)
(-15.3343 4.44076 -2.52841e-16)
(-15.647 3.71386 -3.92084e-15)
(-15.8551 2.94558 1.21751e-15)
(-15.9707 2.10693 4.13396e-16)
(-15.9861 1.14359 -4.26269e-16)
(-10.0691 8.13712 0)
(-11.1645 6.92422 -1.92598e-15)
(-12.2081 6.21604 5.08003e-16)
(-12.9922 5.52523 -9.06619e-16)
(-13.6035 4.86296 1.48097e-15)
(-14.0689 4.18859 0)
(-14.4063 3.48123 9.19096e-16)
(-14.6211 2.72858 1.42414e-15)
(-14.7304 1.90923 -1.2878e-15)
(-14.7247 0.975486 -3.46807e-17)
(-8.94268 7.42486 0)
(-9.80771 6.52028 -4.93813e-16)
(-10.722 5.90449 3.28725e-15)
(-11.4693 5.26052 -2.41135e-15)
(-12.0775 4.6155 0)
(-12.551 3.95027 -4.28752e-16)
(-12.8927 3.25091 -1.10479e-15)
(-13.106 2.50818 8.94901e-16)
(-13.2051 1.70361 9.39645e-16)
(-13.2031 0.811669 -3.61512e-16)
(-7.84186 6.65882 -9.18659e-16)
(-8.51855 6.01294 5.05609e-16)
(-9.26557 5.44199 4.90724e-16)
(-9.91998 4.80966 -4.77949e-16)
(-10.4646 4.15931 0)
(-10.8915 3.48248 4.63004e-16)
(-11.1974 2.77025 6.80242e-16)
(-11.378 2.02019 -7.83018e-16)
(-11.4462 1.23514 -1.65988e-16)
(-11.4017 0.427152 1.21503e-17)
(-6.37963 6.25281 -2.59767e-16)
(-6.58765 6.04212 9.36068e-17)
(-6.98256 5.56878 7.98803e-17)
(-7.39343 5.0001 0)
(-7.77733 4.42018 -3.18005e-17)
(-8.1085 3.83842 0)
(-8.37842 3.24336 -1.16762e-16)
(-8.58688 2.62013 1.71905e-16)
(-8.74415 1.96399 3.80842e-17)
(-8.82194 1.36155 -1.04726e-17)
)
;

boundaryField
{
    right
    {
        type            cyclic;
    }
    left
    {
        type            cyclic;
    }
    outerWall
    {
        type            calculated;
        value           nonuniform List<vector> 
22
(
(-1.55201 41.8305 0)
(-4.64749 41.6006 0)
(-7.71741 41.1419 0)
(-10.7449 40.4569 0)
(-13.7132 39.5492 0)
(-16.6061 38.424 0)
(-19.4075 37.0874 0)
(-22.1022 35.5467 0)
(-24.6752 33.8104 0)
(-27.1124 31.8882 0)
(-28.9573 30.2506 0)
(-30.2506 28.9573 0)
(-31.8882 27.1124 0)
(-33.8104 24.6752 0)
(-35.5467 22.1022 0)
(-37.0874 19.4075 0)
(-38.424 16.6061 0)
(-39.5492 13.7132 0)
(-40.4569 10.7449 0)
(-41.1419 7.71741 0)
(-41.6006 4.64749 0)
(-41.8305 1.55201 0)
)
;
    }
    stirrerWall
    {
        type            calculated;
        value           nonuniform List<vector> 
42
(
(-0.310178 8.3662 0)
(-0.928834 8.32046 0)
(-1.54239 8.22894 0)
(-2.14746 8.09214 0)
(-2.74072 7.91082 0)
(-3.31888 7.68598 0)
(-3.87877 7.41885 0)
(-4.41729 7.11092 0)
(-4.93148 6.76387 0)
(-5.4185 6.37963 0)
(-6.07951 6.64185 0)
(-6.92878 7.56862 0)
(-7.77806 8.49539 0)
(-8.62734 9.42216 0)
(-9.47661 10.3489 0)
(-10.3259 11.2757 0)
(-11.1752 12.2025 0)
(-12.0244 13.1292 0)
(-12.8737 14.056 0)
(-13.723 14.9828 0)
(-14.4723 15.1215 0)
(-15.1215 14.4723 0)
(-14.9828 13.723 0)
(-14.056 12.8737 0)
(-13.1292 12.0244 0)
(-12.2025 11.1752 0)
(-11.2757 10.3259 0)
(-10.3489 9.47661 0)
(-9.42216 8.62734 0)
(-8.49539 7.77806 0)
(-7.56862 6.92878 0)
(-6.64185 6.07951 0)
(-6.37963 5.4185 0)
(-6.76387 4.93148 0)
(-7.11092 4.41729 0)
(-7.41885 3.87877 0)
(-7.68598 3.31888 0)
(-7.91082 2.74072 0)
(-8.09214 2.14746 0)
(-8.22894 1.54239 0)
(-8.32046 0.928834 0)
(-8.3662 0.310178 0)
)
;
    }
    top
    {
        type            empty;
    }
    bottom
    {
        type            empty;
    }
}


// ************************************************************************* //
