/*--------------------------------*- C++ -*----------------------------------*\
  =========                 |
  \\      /  F ield         | OpenFOAM: The Open Source CFD Toolbox
   \\    /   O peration     | Website:  https://openfoam.org
    \\  /    A nd           | Version:  10
     \\/     M anipulation  |
\*---------------------------------------------------------------------------*/
FoamFile
{
    format      ascii;
    class       volVectorField;
    location    "2300";
    object      Urel;
}
// * * * * * * * * * * * * * * * * * * * * * * * * * * * * * * * * * * * * * //

dimensions      [0 1 -1 0 0 0 0];

internalField   nonuniform List<vector> 
420
(
(1.098 -0.139235 1.00467e-17)
(0.0356017 1.03119 -6.77709e-17)
(0.313106 1.60225 -3.11449e-16)
(0.442826 1.8638 8.33895e-17)
(0.589098 1.87773 -5.38816e-16)
(0.752834 1.64143 0)
(0.926866 1.02223 0)
(0.964671 -0.0284602 6.24555e-16)
(1.06416 -1.42271 -6.70321e-16)
(1.09151 -2.92816 0)
(1.16242 -0.135972 3.31411e-17)
(0.0232194 0.946123 -1.5868e-16)
(0.2459 1.50771 9.42319e-16)
(0.37349 1.74462 -1.27087e-15)
(0.536901 1.76985 3.90327e-16)
(0.750496 1.53022 4.39596e-18)
(1.03451 0.914691 2.89706e-15)
(1.26665 -0.106889 -9.10134e-16)
(1.44934 -1.41068 1.29203e-15)
(1.49907 -2.79439 0)
(1.13364 -0.157414 8.23923e-17)
(0.0451713 0.809431 -7.45068e-16)
(0.315288 1.36854 8.97697e-16)
(0.519091 1.60168 1.39647e-15)
(0.749389 1.62032 -9.01436e-16)
(1.01899 1.37596 3.94243e-15)
(1.32492 0.779379 1.65937e-15)
(1.54369 -0.138277 4.95889e-15)
(1.69027 -1.3084 -1.9774e-15)
(1.75798 -2.57877 -4.0196e-15)
(1.10465 -0.200326 -1.58178e-17)
(0.0060775 0.625114 6.76474e-16)
(0.307283 1.16693 -1.14625e-15)
(0.558971 1.39964 9.37282e-16)
(0.82874 1.4394 -1.77232e-15)
(1.11742 1.21387 1.64571e-15)
(1.41313 0.689281 -9.66011e-15)
(1.61634 -0.100024 0)
(1.75854 -1.1465 -4.18859e-15)
(1.85114 -2.31591 3.73392e-15)
(1.07257 -0.224755 0)
(-0.0721393 0.423345 4.88957e-16)
(0.22749 0.917836 -4.57046e-16)
(0.493467 1.14294 0)
(0.775388 1.19874 -2.42167e-16)
(1.06566 1.03071 -3.13146e-16)
(1.33394 0.591144 3.32764e-15)
(1.51905 -0.063794 -4.19399e-15)
(1.6516 -0.973417 0)
(1.75214 -2.04258 -1.53931e-14)
(1.03072 -0.211189 9.79932e-18)
(-0.179461 0.22862 0)
(0.106996 0.643675 0)
(0.363945 0.849308 1.67013e-15)
(0.633379 0.92055 -2.43219e-15)
(0.902356 0.808752 2.69785e-15)
(1.12648 0.474638 5.65538e-16)
(1.26753 -0.0489876 9.21188e-15)
(1.36085 -0.80919 -1.15328e-14)
(1.45586 -1.7859 7.76883e-15)
(0.963726 -0.149984 0)
(-0.305872 0.0535282 -5.31243e-16)
(-0.0290104 0.367219 -2.85419e-15)
(0.204004 0.540904 -1.05866e-15)
(0.440512 0.621312 -4.43182e-15)
(0.661207 0.565451 2.80659e-15)
(0.815926 0.341625 -6.65105e-15)
(0.881763 -0.0444809 7.19254e-16)
(0.90526 -0.641735 -3.61626e-15)
(0.999413 -1.53299 -1.26578e-14)
(0.840577 -0.0375722 -2.95902e-17)
(-0.429189 -0.091325 5.48748e-16)
(-0.156126 0.113471 3.91212e-15)
(0.0440633 0.242481 5.9106e-16)
(0.229051 0.318795 2.77754e-15)
(0.378434 0.310932 0)
(0.446617 0.200047 7.21012e-15)
(0.420038 -0.0215512 8.68547e-15)
(0.376901 -0.414882 1.0068e-14)
(0.494678 -1.23708 1.041e-14)
(0.635603 0.0943812 -3.21769e-17)
(-0.518996 -0.186933 5.60085e-16)
(-0.270265 -0.0522579 -5.94299e-16)
(-0.126159 0.0424637 -2.36661e-15)
(0.0006312 0.105744 7.44582e-15)
(0.0993665 0.117929 9.8007e-15)
(0.140236 0.0706091 -3.45973e-15)
(0.116415 -0.0316404 0)
(0.0892456 -0.259554 0)
(0.226236 -1.07137 -1.13571e-14)
(0.321687 0.169262 -4.41286e-17)
(-0.280022 -0.0919483 7.44279e-16)
(-0.0473247 -0.05436 0)
(0.0293362 -0.018474 0)
(0.0544224 0.0101042 -3.5318e-15)
(0.045249 0.0515467 -3.80431e-17)
(0.0121256 0.119662 6.5193e-15)
(-0.00437747 0.213171 -1.45418e-14)
(0.0501431 0.227795 1.74049e-14)
(0.294934 -0.441573 1.37889e-15)
(1.06813 -4.55475 0)
(0.997512 -6.44882 0)
(0.944819 -8.72938 0)
(1.00014 -11.1647 -9.33856e-16)
(0.908028 -13.7095 0)
(1.33349 -16.8165 0)
(1.85357 -18.6384 1.00646e-15)
(-0.182725 -24.0057 0)
(3.81521 -28.1698 0)
(-1.07194 -11.7809 0)
(1.5291 -4.32039 1.73984e-15)
(1.53916 -6.19597 2.93809e-15)
(1.62049 -8.54058 1.15846e-16)
(1.84178 -11.0277 1.00028e-15)
(1.91016 -13.606 4.36542e-17)
(2.46128 -16.7596 1.22639e-15)
(3.09118 -18.5479 -6.29663e-17)
(1.40789 -23.921 -6.87832e-17)
(5.50681 -27.9628 -2.22242e-15)
(-0.52047 -11.1302 -1.44683e-15)
(1.85071 -4.02789 1.57522e-15)
(1.9571 -5.90002 0)
(2.20192 -8.29596 -2.34528e-15)
(2.60219 -10.8005 -1.95926e-15)
(2.8474 -13.3813 5.92668e-15)
(3.53697 -16.5261 -1.19481e-15)
(4.3129 -18.3315 2.07665e-15)
(3.02781 -23.6594 0)
(7.21108 -27.3041 2.37788e-15)
(0.184168 -11.299 -8.76869e-17)
(2.0063 -3.69968 3.40057e-15)
(2.2314 -5.59162 8.68531e-15)
(2.68493 -8.0255 -9.13902e-15)
(3.28249 -10.5131 3.6307e-15)
(3.72186 -13.0707 1.24277e-17)
(4.56863 -16.1758 0)
(5.48552 -17.9999 -2.09501e-15)
(4.65009 -23.2743 -2.8065e-15)
(8.90583 -26.3785 -2.37217e-15)
(0.7325 -11.5384 6.08905e-15)
(1.9722 -3.39032 3.13193e-15)
(2.37025 -5.33982 -2.87697e-15)
(3.08972 -7.77569 9.32381e-15)
(3.89579 -10.1987 -3.72021e-15)
(4.54352 -12.6995 3.07479e-15)
(5.57132 -15.7315 -4.7944e-15)
(6.61846 -17.5788 4.24812e-15)
(6.25986 -22.6968 2.82311e-15)
(10.5721 -25.3898 0)
(1.58613 -11.9149 -1.22099e-14)
(1.77013 -3.15577 3.9179e-15)
(2.4373 -5.20594 -1.7427e-14)
(3.46297 -7.57261 -4.94415e-15)
(4.46447 -9.87444 1.13947e-14)
(5.32164 -12.2846 9.48683e-15)
(6.5412 -15.2063 2.07185e-16)
(7.70754 -17.0865 1.26795e-16)
(7.84823 -21.9891 -3.00225e-15)
(12.211 -24.3151 -2.98816e-15)
(2.55992 -12.2441 1.26035e-14)
(1.4977 -3.03928 4.19502e-15)
(2.55198 -5.20915 6.23e-15)
(3.86351 -7.41125 0)
(5.01454 -9.54601 -3.82376e-15)
(6.0714 -11.839 -6.10405e-15)
(7.4818 -14.6105 2.27821e-16)
(8.75921 -16.5225 -1.32286e-14)
(9.41872 -21.1656 -3.04665e-15)
(13.8033 -23.1507 5.82435e-15)
(3.69197 -12.5173 -6.1705e-15)
(1.33708 -3.07619 1.68188e-14)
(2.82095 -5.30231 -5.77521e-15)
(4.32693 -7.24299 0)
(5.57306 -9.19548 -1.95237e-16)
(6.80962 -11.3557 2.52807e-14)
(8.39627 -13.9502 -1.01149e-14)
(9.78835 -15.8891 -9.13975e-15)
(10.9574 -20.2595 6.34272e-15)
(15.3201 -21.8928 -5.96174e-15)
(4.77447 -12.7234 0)
(1.60478 -3.24572 3.51254e-16)
(3.23994 -5.34126 -5.72744e-15)
(4.83491 -6.98487 0)
(6.15002 -8.78769 8.09235e-15)
(7.54519 -10.8174 -1.90981e-14)
(9.28747 -13.224 1.04153e-14)
(10.795 -15.2106 4.54644e-15)
(12.4579 -19.1548 0)
(16.773 -20.5136 -2.35851e-16)
(5.86879 -12.8631 6.73109e-15)
(2.68281 -3.07589 4.50454e-16)
(3.76027 -5.12326 4.88438e-17)
(5.31686 -6.58639 0)
(6.7291 -8.30739 -1.59436e-14)
(8.28248 -10.2341 6.07135e-15)
(10.1692 -12.4266 -5.52295e-15)
(11.7958 -14.4654 4.54168e-15)
(13.9345 -18.0826 5.74841e-16)
(18.1095 -19.0628 2.8002e-16)
(7.10956 -12.9512 -6.79517e-15)
(3.85582 -1.86427 3.24623e-15)
(4.1167 -4.68213 -6.09062e-15)
(5.60193 -6.15729 0)
(7.15994 -7.82035 0)
(8.86104 -9.65789 0)
(10.8649 -11.6628 -2.76688e-15)
(12.5823 -13.6381 1.15648e-14)
(15.19 -17.0791 0)
(19.2379 -17.4789 0)
(8.03867 -12.8924 0)
(3.82442 -1.873 -3.16853e-15)
(4.16073 -4.34323 -6.08407e-15)
(5.67404 -5.89122 0)
(7.37464 -7.52198 4.22473e-15)
(9.20152 -9.28516 -3.23589e-15)
(11.2681 -11.2008 2.81463e-15)
(13.1171 -13.0879 4.84395e-15)
(16.0315 -16.5285 -1.83087e-16)
(19.9003 -16.5945 1.59477e-15)
(8.61852 -12.5059 0)
(2.57423 -2.63071 3.47961e-16)
(4.08395 -4.20144 -1.85552e-17)
(5.79975 -5.73394 0)
(7.66321 -7.28886 2.44589e-16)
(9.63049 -8.92886 7.12325e-15)
(11.773 -10.7076 -5.14132e-15)
(13.7393 -12.5674 -1.40768e-14)
(16.9719 -15.6967 -7.8952e-15)
(20.6189 -15.7121 1.35242e-14)
(9.51267 -12.2002 6.95316e-15)
(2.33216 -2.81072 -1.55654e-14)
(4.16424 -4.05772 5.75022e-15)
(6.10396 -5.34303 0)
(8.12579 -6.70744 -8.41794e-15)
(10.2342 -8.16196 -6.93748e-15)
(12.5022 -9.69743 1.10658e-14)
(14.5465 -11.5775 4.84556e-15)
(18.1399 -14.3085 0)
(21.6248 -13.9951 -7.12722e-15)
(10.6448 -11.9864 -1.26587e-16)
(2.69335 -2.88666 -2.83067e-16)
(4.52364 -3.88594 5.56667e-15)
(6.52969 -4.94207 0)
(8.63594 -6.10755 1.63123e-14)
(10.8365 -7.37585 -1.18788e-17)
(13.2042 -8.65081 -1.91515e-16)
(15.3093 -10.4419 9.97039e-15)
(19.1914 -13.0053 -7.44348e-15)
(22.5854 -12.1553 -7.2644e-15)
(11.8181 -11.6175 0)
(3.13647 -2.72768 -3.39127e-15)
(4.96182 -3.55938 1.14565e-14)
(6.99856 -4.43573 9.8754e-15)
(9.15512 -5.4176 -1.16367e-14)
(11.4166 -6.50757 -2.01777e-14)
(13.8662 -7.52383 -3.84252e-16)
(15.9936 -9.1728 -4.92826e-15)
(20.1477 -11.5483 -3.82448e-15)
(23.4619 -10.2077 -7.53328e-15)
(12.9682 -11.089 -6.84639e-15)
(3.56639 -2.41162 -1.04118e-14)
(5.40443 -3.10311 5.645e-15)
(7.46412 -3.82111 -4.4036e-15)
(9.65383 -4.6329 -1.1923e-14)
(11.9572 -5.55628 9.42893e-15)
(14.4745 -6.31059 -3.72332e-16)
(16.586 -7.78574 9.34477e-15)
(21.0003 -10.0117 4.20447e-15)
(24.2192 -8.13111 4.07469e-15)
(14.0472 -10.3818 1.59485e-16)
(3.95104 -1.96869 3.09122e-15)
(5.80949 -2.52976 -2.8374e-15)
(7.89359 -3.10676 -1.39e-16)
(10.1122 -3.75633 1.17258e-14)
(12.4527 -4.52041 -1.64067e-14)
(15.027 -5.00137 5.30207e-15)
(17.0874 -6.2664 -4.74515e-15)
(21.7503 -8.37314 1.09426e-14)
(24.8054 -5.92975 0)
(14.9661 -9.42086 1.64129e-16)
(4.2659 -1.43547 3.44369e-15)
(6.15144 -1.87142 2.85462e-15)
(8.2642 -2.3155 4.83784e-15)
(10.5158 -2.80365 -7.75127e-15)
(12.9015 -3.40735 3.17181e-15)
(15.5411 -3.60567 0)
(17.5212 -4.62502 -2.21128e-15)
(22.4462 -6.55332 -7.29555e-15)
(25.2309 -3.52603 -8.05572e-17)
(15.4939 -8.01283 6.05729e-15)
(4.49573 -0.8473 1.62877e-15)
(6.4164 -1.1583 0)
(8.55985 -1.47188 2.4221e-15)
(10.8524 -1.79673 2.07577e-15)
(13.292 -2.24475 1.05613e-16)
(16.0374 -2.14768 -1.30092e-15)
(18.0299 -2.94898 2.18639e-15)
(23.1864 -4.4818 0)
(25.6055 -0.708619 3.19637e-15)
(15.5725 -6.02159 5.01247e-15)
(4.62629 -0.213571 1.82752e-15)
(6.59489 -0.414299 -3.03243e-15)
(8.7827 -0.610889 -1.25652e-16)
(11.1166 -0.78592 8.7769e-16)
(13.5959 -1.11866 -6.78451e-17)
(16.4089 -0.730914 1.23887e-15)
(18.475 -1.31177 -1.93958e-15)
(24.1995 -2.69208 3.79799e-18)
(26.2512 2.35261 2.33103e-15)
(16.8608 -4.70059 -3.53949e-15)
(4.674 0.52127 2.67519e-29)
(6.59242 0.380211 0)
(8.82636 0.217422 0)
(11.2242 0.135274 -9.45128e-16)
(13.7214 -0.120288 0)
(16.8147 0.234981 0)
(18.6129 0.516776 1.01228e-15)
(23.9486 -2.27492 0)
(27.859 2.58868 0)
(10.6058 -1.49151 -1.51346e-29)
(0.755128 -0.676717 1.02054e-15)
(0.53728 -1.98946 -8.87054e-15)
(1.03543 -2.19998 8.24924e-15)
(1.50825 -2.13455 -1.12086e-14)
(1.91115 -1.89004 7.48055e-15)
(2.25879 -1.52186 -1.56012e-14)
(2.5457 -1.06557 3.91612e-15)
(2.75757 -0.552732 -4.27976e-15)
(2.85625 -0.0215291 0)
(2.9582 0.60149 -5.43477e-16)
(-0.64152 -0.519612 1.56102e-14)
(-0.693971 -1.83091 0)
(-0.273172 -1.80341 8.61918e-15)
(0.177199 -1.69347 -3.40113e-15)
(0.526438 -1.45648 -1.16687e-14)
(0.809749 -1.12117 0)
(1.03787 -0.711353 -4.54283e-15)
(1.20412 -0.251603 -2.17096e-15)
(1.26783 0.197912 1.46835e-15)
(1.37193 0.66383 -6.77702e-16)
(-1.14676 -0.513916 -1.29373e-14)
(-1.39638 -1.77518 0)
(-1.20501 -1.62062 8.04329e-15)
(-0.848118 -1.42771 7.69987e-16)
(-0.564849 -1.16574 9.798e-15)
(-0.343589 -0.85205 -4.64664e-15)
(-0.176039 -0.480812 0)
(-0.0672079 -0.0538442 5.76335e-15)
(-0.0367831 0.373578 -1.03223e-15)
(-0.0271393 0.697662 8.04521e-16)
(-1.03976 -0.463331 5.83912e-15)
(-1.63775 -1.53091 -2.76353e-15)
(-1.72678 -1.3848 6.23967e-15)
(-1.56538 -1.14884 -6.29606e-15)
(-1.40327 -0.84518 6.32196e-16)
(-1.272 -0.507866 3.57041e-15)
(-1.17457 -0.141623 -1.06833e-14)
(-1.10366 0.243015 1.86775e-15)
(-1.06857 0.603579 3.2609e-15)
(-1.05929 0.819619 8.80271e-17)
(-0.795023 -0.35566 -8.64602e-15)
(-1.51055 -1.25664 7.74856e-15)
(-1.87294 -1.15045 0)
(-1.92506 -0.930457 2.52016e-15)
(-1.89322 -0.631996 2.61633e-15)
(-1.84896 -0.312177 -3.30035e-16)
(-1.80528 0.010168 1.78115e-15)
(-1.76055 0.325667 4.31206e-15)
(-1.72088 0.593771 1.02493e-17)
(-1.69167 0.733012 4.05548e-16)
(-0.54207 -0.241645 -3.4319e-15)
(-1.20569 -0.937774 5.81926e-15)
(-1.70315 -0.860184 2.30878e-15)
(-1.92019 -0.684026 -3.80088e-15)
(-2.03142 -0.428536 -2.25356e-15)
(-2.07573 -0.15463 -2.52841e-16)
(-2.08445 0.113213 -3.92084e-15)
(-2.06317 0.359464 1.21751e-15)
(-2.02513 0.549553 4.13396e-16)
(-1.96357 0.623512 -4.26269e-16)
(-0.332395 -0.136145 0)
(-0.841647 -0.605197 -1.92598e-15)
(-1.35574 -0.528136 5.08003e-16)
(-1.66997 -0.396618 -9.06619e-16)
(-1.87366 -0.204004 1.48097e-15)
(-1.99594 0.00436239 0)
(-2.05655 0.202741 9.19096e-16)
(-2.06245 0.37385 1.42414e-15)
(-2.0319 0.491198 -1.2878e-15)
(-1.95606 0.501945 -3.46807e-17)
(-0.162064 -0.0353885 0)
(-0.498394 -0.269262 -4.93813e-16)
(-0.935106 -0.177012 3.28725e-15)
(-1.25868 -0.0794832 -2.41135e-15)
(-1.49928 0.046367 0)
(-1.66333 0.177135 -4.28752e-16)
(-1.75545 0.294522 -1.10479e-15)
(-1.78043 0.384798 8.94901e-16)
(-1.7534 0.424901 9.39645e-16)
(-1.68823 0.384654 -3.61512e-16)
(-0.0170888 0.0113967 -9.18659e-16)
(-0.222589 -0.0369035 5.05609e-16)
(-0.544021 0.0230205 4.90724e-16)
(-0.820797 0.0513852 -4.77949e-16)
(-1.03778 0.0879099 0)
(-1.18897 0.120354 4.63004e-16)
(-1.27243 0.135903 6.80242e-16)
(-1.28515 0.1281 -7.83018e-16)
(-1.24104 0.0957166 -1.65988e-16)
(-1.14037 0.0466517 1.21503e-17)
(0.489594 0.417974 -2.59767e-16)
(0.695269 0.73175 9.36068e-17)
(0.674015 0.812132 7.98803e-17)
(0.594692 0.823367 0)
(0.49841 0.846355 -3.18005e-17)
(0.409328 0.887177 0)
(0.334657 0.930946 -1.16762e-16)
(0.273503 0.959264 1.71905e-16)
(0.214812 0.963808 3.80842e-17)
(0.186309 1.02755 -1.04726e-17)
)
;

boundaryField
{
    right
    {
        type            cyclic;
    }
    left
    {
        type            cyclic;
    }
    outerWall
    {
        type            noSlip;
    }
    stirrerWall
    {
        type            noSlip;
    }
    top
    {
        type            empty;
    }
    bottom
    {
        type            empty;
    }
}


// ************************************************************************* //
