/*--------------------------------*- C++ -*----------------------------------*\
  =========                 |
  \\      /  F ield         | OpenFOAM: The Open Source CFD Toolbox
   \\    /   O peration     | Website:  https://openfoam.org
    \\  /    A nd           | Version:  10
     \\/     M anipulation  |
\*---------------------------------------------------------------------------*/
FoamFile
{
    format      ascii;
    class       volVectorField;
    location    "28000";
    object      U;
}
// * * * * * * * * * * * * * * * * * * * * * * * * * * * * * * * * * * * * * //

dimensions      [0 1 -1 0 0 0 0];

internalField   nonuniform List<vector> 
17969
(
(0.121127 1.5385 0)
(-0.0441711 1.59993 0)
(-0.0204612 1.61672 -7.54665e-18)
(-0.0190858 1.63302 8.57832e-18)
(-0.018668 1.6489 -2.7955e-18)
(-0.0174823 1.66522 -2.18859e-18)
(-0.0154957 1.68284 1.81088e-18)
(-0.0126325 1.70252 0)
(-0.00859837 1.72509 9.85632e-20)
(-0.00301946 1.7517 0)
(0.0047139 1.78413 0)
(0.0151927 1.8239 0)
(0.0283611 1.87052 0)
(0.043649 1.9215 -1.24461e-18)
(0.0600791 1.97331 1.16561e-18)
(0.0764749 2.02244 0)
(0.0918924 2.06638 -8.22259e-19)
(0.105653 2.1039 7.12108e-19)
(0.117273 2.13488 -6.23916e-19)
(0.126939 2.16045 5.67677e-19)
(0.13492 2.18184 0)
(0.141321 2.19996 0)
(0.146435 2.21559 -5.46584e-20)
(0.150526 2.22936 0)
(0.153799 2.24176 0)
(0.156428 2.25322 3.32453e-19)
(0.15856 2.26405 -6.09653e-19)
(0.160315 2.2745 2.80153e-19)
(0.161785 2.28471 2.56185e-19)
(0.163037 2.2948 -3.09969e-20)
(0.164118 2.30484 -2.7497e-19)
(0.165062 2.31489 0)
(0.165891 2.325 1.89642e-19)
(0.166619 2.33517 -4.00885e-19)
(0.167259 2.34546 1.13889e-21)
(0.167816 2.35586 3.15619e-19)
(0.168296 2.3664 -1.49773e-19)
(0.1687 2.37709 -1.76391e-19)
(0.169031 2.38796 1.0136e-19)
(0.169288 2.399 0)
(0.169472 2.41023 3.0643e-20)
(0.169582 2.42167 2.93105e-20)
(0.169616 2.43333 2.23199e-19)
(0.169574 2.44521 -2.16198e-19)
(0.169453 2.45733 -2.05653e-19)
(0.169252 2.46971 -4.76996e-20)
(0.168968 2.48235 1.92469e-19)
(0.1686 2.49526 1.83403e-19)
(0.168145 2.50846 -2.13586e-21)
(0.167602 2.52196 -1.72779e-19)
(0.166967 2.53577 -2.06271e-19)
(0.166238 2.54991 2.01456e-19)
(0.165412 2.56438 0)
(0.164487 2.5792 0)
(0.16346 2.59439 3.6304e-20)
(0.162328 2.60995 2.09278e-19)
(0.161089 2.62589 -1.3684e-19)
(0.159738 2.64224 0)
(0.158272 2.659 0)
(0.156689 2.67619 6.01086e-20)
(0.154984 2.69383 -1.20352e-19)
(0.153155 2.71191 0)
(0.151197 2.73047 0)
(0.149106 2.7495 -5.40957e-20)
(0.146879 2.76904 -1.02936e-19)
(0.144511 2.78909 5.34391e-20)
(0.141999 2.80967 9.89112e-20)
(0.139338 2.83079 0)
(0.136525 2.85247 0)
(0.133554 2.87473 0)
(0.130422 2.89758 8.26104e-20)
(0.127125 2.92105 -5.45589e-21)
(0.123658 2.94515 -1.5925e-19)
(0.120018 2.9699 0)
(0.116256 2.99497 7.04879e-20)
(0.112478 3.01964 6.60709e-20)
(0.108746 3.04359 -6.15506e-20)
(0.105064 3.06685 0)
(0.101431 3.08942 0)
(0.0978504 3.11133 0)
(0.0943307 3.13258 0)
(0.0908645 3.15316 0)
(0.0874554 3.1731 7.42345e-20)
(0.0841082 3.19239 -1.23942e-19)
(0.0808232 3.21107 8.37567e-20)
(0.0776081 3.22916 -1.48426e-20)
(0.0744771 3.24672 0)
(0.0714398 3.26382 0)
(0.0685052 3.28049 0)
(0.0656466 3.29671 -2.58642e-20)
(0.0628368 3.31243 3.47327e-20)
(0.0600692 3.32763 2.69534e-20)
(0.057335 3.34232 -2.65692e-20)
(0.054633 3.35648 1.94546e-20)
(0.0519631 3.37011 -3.73127e-20)
(0.0493265 3.38322 1.38659e-20)
(0.0467243 3.39579 0)
(0.0441583 3.40784 -6.54029e-21)
(0.0416308 3.41937 6.3893e-21)
(0.0391439 3.43036 3.28937e-22)
(0.087888 1.54276 0)
(-0.0831364 1.60289 -2.86482e-17)
(-0.0581835 1.61522 1.7977e-17)
(-0.0574221 1.62798 3.15804e-19)
(-0.0575901 1.64084 1.2615e-17)
(-0.057146 1.65396 -1.82509e-17)
(-0.0561637 1.66785 7.48144e-18)
(-0.0546625 1.68301 6.62058e-18)
(-0.0525439 1.69992 -6.31446e-18)
(-0.0496178 1.71914 -6.16974e-18)
(-0.0456069 1.74116 1.19894e-20)
(-0.0401949 1.76684 5.7248e-18)
(-0.0328333 1.79756 0)
(-0.0230299 1.83451 0)
(-0.0107945 1.87741 -5.25057e-18)
(0.00348526 1.9245 4.86062e-18)
(0.0190479 1.97309 0)
(0.0349543 2.02035 -3.68421e-18)
(0.0502716 2.06392 3.33549e-18)
(0.064366 2.10233 0)
(0.0766554 2.13502 -2.46144e-18)
(0.087036 2.16252 2.08506e-18)
(0.0957458 2.18583 6.36991e-20)
(0.102909 2.20578 0)
(0.108685 2.22315 1.73876e-18)
(0.113328 2.23849 -1.08324e-19)
(0.117039 2.25228 -2.96295e-18)
(0.119988 2.26492 1.36728e-18)
(0.122327 2.27675 -7.85675e-20)
(0.124186 2.28806 1.18909e-18)
(0.125671 2.29902 -1.00321e-18)
(0.126864 2.30979 0)
(0.12783 2.32048 7.97099e-19)
(0.128611 2.33114 -6.93591e-19)
(0.129241 2.34183 0)
(0.129741 2.35259 9.29568e-20)
(0.130127 2.36346 -8.72701e-20)
(0.130408 2.37445 -6.1284e-19)
(0.130593 2.38559 1.27813e-18)
(0.130684 2.39689 -7.82936e-20)
(0.130686 2.40838 -5.94069e-19)
(0.130598 2.42006 -6.26868e-19)
(0.130421 2.43195 1.01008e-18)
(0.130153 2.44406 -1.08546e-18)
(0.129795 2.4564 9.22778e-19)
(0.129344 2.46899 -3.89196e-19)
(0.128798 2.48184 4.21729e-19)
(0.128154 2.49497 -9.16607e-19)
(0.127409 2.50838 7.83197e-19)
(0.126562 2.52208 -7.53739e-19)
(0.125608 2.5361 3.19684e-19)
(0.124545 2.55043 -4.36422e-20)
(0.123369 2.56511 0)
(0.122077 2.58013 0)
(0.120664 2.59551 -3.92091e-20)
(0.119128 2.61126 -7.57324e-20)
(0.117464 2.6274 2.90801e-19)
(0.115667 2.64394 -4.28126e-19)
(0.113734 2.6609 -5.42667e-19)
(0.111661 2.67828 7.66864e-20)
(0.109442 2.69611 5.17319e-19)
(0.107074 2.71439 6.13272e-19)
(0.104551 2.73313 -6.03713e-19)
(0.101868 2.75237 5.75929e-20)
(0.0990206 2.7721 0)
(0.0960038 2.79234 5.43711e-20)
(0.0928125 2.81311 4.09727e-19)
(0.0894414 2.83442 -4.07681e-19)
(0.0858855 2.8563 -1.94072e-19)
(0.0821397 2.87875 -1.78805e-19)
(0.0781989 2.9018 3.65524e-19)
(0.0740581 2.92546 2.5875e-19)
(0.0697124 2.94976 3.23093e-19)
(0.0651575 2.9747 -3.23072e-19)
(0.0604564 2.99996 -7.4247e-20)
(0.0557443 3.02482 -6.96267e-20)
(0.0510947 3.04895 6.49009e-20)
(0.0465118 3.07237 1.2188e-19)
(0.0419934 3.09512 3.30037e-19)
(0.0375524 3.1172 -1.27245e-20)
(0.033186 3.13861 -1.98785e-19)
(0.0288868 3.15935 -4.50375e-20)
(0.0246699 3.17944 0)
(0.0205329 3.19889 1.94931e-20)
(0.0164726 3.21772 -1.75063e-20)
(0.0124897 3.23595 1.59898e-20)
(0.00858998 3.25359 0)
(0.00478593 3.2707 0)
(0.00109436 3.28735 -1.75843e-19)
(-0.00247603 3.3036 6.76099e-21)
(-0.00593311 3.31946 1.49795e-19)
(-0.00931315 3.33486 0)
(-0.0126355 3.34976 0)
(-0.0159075 3.36413 8.43365e-20)
(-0.0191316 3.37797 -1.50099e-19)
(-0.0223065 3.39129 7.4061e-20)
(-0.0254304 3.40407 0)
(-0.0285016 3.41632 0)
(-0.0315178 3.42804 -1.61238e-20)
(-0.0344761 3.43922 9.40884e-21)
(0.05484 1.54634 4.13084e-17)
(-0.120758 1.60536 -6.31259e-17)
(-0.0947378 1.61473 8.91913e-17)
(-0.0944161 1.62437 -2.6589e-17)
(-0.0950421 1.63479 4.80862e-19)
(-0.0951492 1.64552 0)
(-0.0948595 1.65683 2.65402e-19)
(-0.0942172 1.66903 0)
(-0.0931782 1.68248 0)
(-0.0916575 1.69757 3.99171e-19)
(-0.0895477 1.71464 1.92717e-19)
(-0.0866966 1.73392 0)
(-0.0828486 1.75566 0)
(-0.0777545 1.78039 3.39281e-19)
(-0.0709491 1.80923 -5.31665e-18)
(-0.0619375 1.84334 4.70788e-18)
(-0.0506847 1.88276 -4.59538e-18)
(-0.0374172 1.92637 4.52065e-18)
(-0.0226999 1.97211 -1.26949e-19)
(-0.00730248 2.01764 -3.83577e-18)
(0.00791346 2.0608 3.00061e-18)
(0.0222362 2.09995 3.51442e-19)
(0.0352114 2.13434 1.54277e-19)
(0.04635 2.16378 0)
(0.0557768 2.18903 0)
(0.0637445 2.21091 1.98097e-18)
(0.0702609 2.23006 -1.52396e-18)
(0.0755297 2.24707 -2.02054e-19)
(0.0797628 2.26237 -1.21302e-18)
(0.0831257 2.27634 1.39244e-18)
(0.0857647 2.28933 0)
(0.0878122 2.30163 0)
(0.0893848 2.31347 1.377e-19)
(0.0905794 2.32503 1.91212e-18)
(0.0914731 2.33643 -3.8021e-18)
(0.092124 2.34777 1.66554e-18)
(0.0925749 2.35911 1.03061e-19)
(0.0928563 2.37051 -1.93546e-19)
(0.0929901 2.38201 1.81601e-19)
(0.0929912 2.39364 8.51147e-20)
(0.0928701 2.40542 0)
(0.0926333 2.41737 7.59082e-20)
(0.0922849 2.42952 1.44443e-19)
(0.091827 2.44188 -9.53503e-19)
(0.0912603 2.45446 1.04016e-20)
(0.0905842 2.46728 1.12382e-18)
(0.0897974 2.48036 0)
(0.0888978 2.4937 -4.84763e-22)
(0.0878829 2.50733 -2.17984e-19)
(0.0867497 2.52125 0)
(0.0854947 2.53547 9.99059e-20)
(0.0841143 2.55002 -7.6453e-19)
(0.0826045 2.5649 7.4557e-19)
(0.080961 2.58012 0)
(0.0791794 2.59571 1.72006e-19)
(0.077255 2.61167 0)
(0.075183 2.62801 -1.59809e-19)
(0.0729584 2.64475 -6.10098e-19)
(0.0705758 2.66191 5.98746e-19)
(0.06803 2.6795 1.43482e-19)
(0.0653154 2.69752 0)
(0.0624263 2.716 -6.59882e-19)
(0.0593569 2.73495 1.41476e-18)
(0.0561012 2.75438 -1.23644e-20)
(0.0526531 2.77431 -2.52792e-19)
(0.0490066 2.79476 -1.28024e-19)
(0.0451555 2.81573 -8.90208e-19)
(0.0410935 2.83725 1.36423e-20)
(0.0368146 2.85932 8.3306e-19)
(0.0323126 2.88197 1.42096e-21)
(0.0275815 2.90522 0)
(0.0226151 2.92908 5.35468e-19)
(0.0174075 2.95357 1.44657e-19)
(0.0119537 2.97871 -6.8688e-19)
(0.00632904 3.00416 0)
(0.000695018 3.0292 0)
(-0.004861 3.05351 -1.39497e-19)
(-0.0103363 3.07711 3.73938e-19)
(-0.0157298 3.10003 -1.07869e-18)
(-0.0210293 3.12228 8.90132e-19)
(-0.0262433 3.14385 -5.32639e-19)
(-0.0313675 3.16474 -3.25921e-19)
(-0.0363917 3.18498 3.71264e-19)
(-0.0413183 3.20458 -3.61079e-19)
(-0.0461494 3.22357 6.1083e-19)
(-0.0508864 3.24194 -2.90926e-19)
(-0.0555302 3.25972 2.44065e-19)
(-0.0600777 3.27693 -4.59893e-19)
(-0.0645185 3.2936 1.95504e-20)
(-0.068836 3.30981 1.84751e-20)
(-0.073019 3.32564 1.84792e-19)
(-0.0770614 3.34112 0)
(-0.0809954 3.35619 1.08273e-19)
(-0.0848558 3.37077 -1.98128e-19)
(-0.0886473 3.38482 3.79229e-21)
(-0.0923739 3.39834 9.52715e-21)
(-0.0960332 3.41133 6.29417e-21)
(-0.0996225 3.42378 7.40206e-21)
(-0.103139 3.43568 2.73167e-20)
(-0.10658 3.44704 8.4484e-22)
(0.0217841 1.54903 -1.31852e-18)
(-0.157038 1.60676 -1.33586e-16)
(-0.130307 1.6149 1.48576e-19)
(-0.130266 1.62212 2.1215e-18)
(-0.13128 1.63056 3.8509e-17)
(-0.131844 1.63941 2.60602e-17)
(-0.132116 1.64874 -3.52199e-19)
(-0.132141 1.65875 -1.72328e-17)
(-0.131897 1.66968 0)
(-0.131322 1.68183 1.43528e-17)
(-0.130347 1.69551 -1.37282e-17)
(-0.128893 1.7109 0)
(-0.126869 1.72815 0)
(-0.124151 1.74739 -3.72056e-19)
(-0.120501 1.76875 3.48104e-19)
(-0.115743 1.79259 3.27969e-19)
(-0.109502 1.81978 9.82539e-18)
(-0.101289 1.85141 -9.89658e-18)
(-0.0909884 1.88777 0)
(-0.0787168 1.92824 2.72977e-19)
(-0.0648597 1.97133 8.68282e-18)
(-0.050053 2.01512 -1.44978e-17)
(-0.0350291 2.05768 6.17188e-18)
(-0.0205425 2.09738 3.52713e-19)
(-0.00711709 2.13308 4.977e-18)
(0.00481479 2.16442 -4.43638e-18)
(0.0150373 2.19165 -4.24577e-18)
(0.023726 2.21544 4.1816e-18)
(0.0310253 2.2364 6.12136e-22)
(0.036994 2.2551 -3.22477e-18)
(0.0418173 2.272 3.02657e-18)
(0.0456668 2.28743 0)
(0.0486871 2.30172 0)
(0.051007 2.31516 -2.43246e-18)
(0.0527449 2.32801 2.56273e-18)
(0.0540068 2.34046 -2.10645e-18)
(0.0548823 2.35269 1.97595e-18)
(0.0554426 2.36479 -1.60037e-18)
(0.0557423 2.37686 -2.00775e-19)
(0.0558219 2.38897 1.29466e-20)
(0.055711 2.40116 3.01322e-18)
(0.0554307 2.41348 -2.83328e-18)
(0.0549957 2.42595 1.17462e-18)
(0.0544159 2.4386 0)
(0.0536976 2.45146 0)
(0.0528445 2.46455 -1.4126e-19)
(0.0518581 2.47788 -1.07045e-18)
(0.0507385 2.49146 9.01508e-19)
(0.0494844 2.50532 -7.27701e-19)
(0.0480936 2.51946 1.17294e-18)
(0.0465631 2.53391 1.11058e-18)
(0.0448895 2.54868 -1.07467e-18)
(0.0430685 2.56378 0)
(0.0410958 2.57922 -5.83301e-19)
(0.0389662 2.59502 7.61753e-19)
(0.0366746 2.61119 0)
(0.0342154 2.62774 1.73971e-19)
(0.0315828 2.6447 1.67375e-19)
(0.0287707 2.66207 -3.24012e-19)
(0.0257728 2.67986 -1.5511e-19)
(0.0225825 2.6981 3.00528e-19)
(0.0191931 2.71679 1.14169e-18)
(0.0155978 2.73595 -1.40238e-18)
(0.0117895 2.75559 1.05813e-18)
(0.00776099 2.77573 -1.54795e-18)
(0.00350503 2.79638 1.00772e-18)
(-0.000985719 2.81756 -1.1827e-18)
(-0.00571862 2.83929 1.16638e-18)
(-0.010701 2.86157 -2.20628e-19)
(-0.0159402 2.88443 -1.0478e-18)
(-0.0214435 2.90788 8.3323e-19)
(-0.0272181 2.93194 0)
(-0.033271 2.95664 -1.8706e-19)
(-0.0396085 2.98198 0)
(-0.0461432 3.00762 0)
(-0.0526875 3.03285 0)
(-0.0591403 3.05734 7.25179e-19)
(-0.0655 3.08111 -5.69362e-19)
(-0.07176 3.10421 -2.59023e-19)
(-0.0779137 3.12663 -2.41194e-19)
(-0.0839698 3.14836 1.11555e-19)
(-0.0899177 3.16941 -1.05293e-19)
(-0.0957499 3.1898 -3.75923e-19)
(-0.101469 3.20955 3.73182e-19)
(-0.107075 3.22868 3.19723e-19)
(-0.112569 3.24721 -2.39988e-20)
(-0.117954 3.26514 -8.22803e-19)
(-0.12323 3.28249 4.45445e-20)
(-0.128396 3.29928 4.743e-19)
(-0.133444 3.31553 -5.06761e-20)
(-0.13836 3.33132 2.25495e-20)
(-0.14313 3.34673 -2.83109e-19)
(-0.147745 3.36181 2.72574e-19)
(-0.152223 3.37653 -1.36821e-20)
(-0.156605 3.39079 1.11489e-20)
(-0.160901 3.40451 1.24104e-19)
(-0.165112 3.4177 -2.26842e-19)
(-0.169234 3.43033 1.06283e-19)
(-0.173265 3.44242 4.7248e-20)
(-0.177201 3.45394 -6.87769e-20)
(-0.181038 3.4649 2.04356e-20)
(-0.184775 3.47531 1.47587e-21)
(-0.188408 3.48516 -4.19645e-20)
(-0.191934 3.49446 4.06467e-20)
(-0.0109202 1.55077 8.87416e-17)
(-0.192106 1.60686 0)
(-0.164908 1.61502 1.20408e-16)
(-0.164964 1.62078 1.13683e-18)
(-0.166271 1.62783 -9.89595e-17)
(-0.167178 1.63533 6.63627e-17)
(-0.167886 1.64321 -2.38587e-17)
(-0.168443 1.65161 0)
(-0.168821 1.66067 1.86518e-17)
(-0.168985 1.67061 -3.38883e-17)
(-0.168878 1.68169 1.5646e-17)
(-0.168435 1.69409 -4.79527e-19)
(-0.167587 1.70798 1.45074e-17)
(-0.166256 1.72349 -2.73685e-17)
(-0.164359 1.74075 1.24683e-17)
(-0.161804 1.75981 -7.46946e-19)
(-0.1584 1.78076 1.10581e-17)
(-0.153976 1.80388 -9.6714e-18)
(-0.148262 1.82978 0)
(-0.140835 1.85934 9.47263e-18)
(-0.131442 1.89308 -1.02303e-17)
(-0.120142 1.93077 -5.31784e-19)
(-0.107172 1.9714 0)
(-0.0930216 2.01343 -8.83427e-19)
(-0.0783378 2.05514 0)
(-0.0638197 2.09498 5.29668e-18)
(-0.0500801 2.13173 2.92514e-19)
(-0.0375034 2.16472 -5.05463e-18)
(-0.026509 2.19382 -2.50945e-19)
(-0.0170995 2.2195 0)
(-0.00906219 2.2423 0)
(-0.0023646 2.26271 0)
(0.0030984 2.28123 -2.64211e-18)
(0.00749143 2.2982 2.84794e-18)
(0.010956 2.31391 -3.3161e-19)
(0.0136178 2.32863 2.47691e-18)
(0.0155928 2.34262 -2.04045e-18)
(0.016989 2.3561 2.16293e-18)
(0.0179034 2.36926 -2.03664e-18)
(0.0184184 2.38223 0)
(0.0185999 2.39512 2.21283e-18)
(0.0184992 2.40801 -1.67098e-18)
(0.0181545 2.42097 1.16332e-18)
(0.0175941 2.43404 -1.10733e-18)
(0.0168382 2.44727 3.46559e-19)
(0.0159009 2.46069 -3.27126e-19)
(0.0147916 2.47432 0)
(0.013516 2.48819 -1.33135e-21)
(0.0120772 2.50232 0)
(0.0104759 2.51672 1.83539e-18)
(0.00871128 2.53142 -2.27443e-18)
(0.00678125 2.54643 2.39138e-19)
(0.00468257 2.56176 -1.8185e-18)
(0.00241114 2.57743 1.54534e-18)
(-3.77971e-05 2.59346 -2.08929e-19)
(-0.00266964 2.60985 0)
(-0.00549027 2.62663 0)
(-0.00850601 2.64381 -1.46374e-18)
(-0.0117236 2.6614 3.80034e-19)
(-0.0151501 2.67942 1.37545e-18)
(-0.0187929 2.69787 9.68981e-19)
(-0.0226596 2.71679 -1.27195e-18)
(-0.0267582 2.73617 0)
(-0.0310968 2.75603 0)
(-0.0356837 2.77639 -2.7869e-19)
(-0.0405274 2.79726 0)
(-0.0456364 2.81866 -2.61192e-19)
(-0.0510195 2.84061 7.30182e-19)
(-0.0566851 2.86311 -9.69966e-19)
(-0.0626421 2.88618 4.59687e-19)
(-0.068899 2.90985 4.40963e-19)
(-0.0754643 2.93412 4.22597e-19)
(-0.0823464 2.95902 0)
(-0.089553 2.98457 3.62849e-19)
(-0.0969848 3.01041 -3.79357e-19)
(-0.104429 3.03584 6.63488e-19)
(-0.111769 3.0605 -3.34295e-19)
(-0.119006 3.08446 1.15607e-18)
(-0.126127 3.10773 -6.7479e-20)
(-0.13313 3.13033 1.95537e-19)
(-0.140024 3.15223 -1.00275e-18)
(-0.146796 3.17344 7.64043e-19)
(-0.153439 3.19398 -6.625e-19)
(-0.159956 3.21388 0)
(-0.166345 3.23316 9.1303e-20)
(-0.172608 3.25183 6.40443e-19)
(-0.178744 3.26992 -1.26924e-19)
(-0.184756 3.28743 -4.83657e-20)
(-0.190644 3.30436 -5.22109e-19)
(-0.196408 3.32073 -1.00669e-21)
(-0.202041 3.33658 2.72778e-19)
(-0.207531 3.35196 -3.59098e-19)
(-0.212864 3.36696 2.69146e-19)
(-0.218032 3.38165 -2.73314e-19)
(-0.223039 3.396 1.82412e-19)
(-0.227925 3.40992 -1.68122e-19)
(-0.232709 3.42329 0)
(-0.237381 3.4361 0)
(-0.24194 3.44834 5.90128e-20)
(-0.246383 3.46002 -5.08668e-20)
(-0.250708 3.47112 8.21636e-22)
(-0.25491 3.48165 -2.40839e-22)
(-0.258989 3.49161 -4.09984e-20)
(-0.26294 3.501 3.96964e-20)
(-0.043072 1.55164 -4.03598e-18)
(-0.226081 1.60581 3.05877e-16)
(-0.198597 1.61445 -2.67211e-16)
(-0.198656 1.61946 9.15327e-17)
(-0.200146 1.62569 0)
(-0.201276 1.63233 0)
(-0.202276 1.63929 -1.82618e-18)
(-0.2032 1.64662 -2.34625e-17)
(-0.204029 1.65442 4.01085e-17)
(-0.204738 1.66282 -1.87877e-17)
(-0.205281 1.672 0)
(-0.205615 1.68215 1.99494e-23)
(-0.205671 1.69343 -5.19309e-19)
(-0.20539 1.70601 0)
(-0.204701 1.72 9.23982e-19)
(-0.203531 1.73554 8.64811e-19)
(-0.201808 1.75273 -8.07301e-19)
(-0.199455 1.77161 -7.46103e-19)
(-0.196333 1.79223 0)
(-0.192251 1.81478 0)
(-0.187048 1.83965 5.94515e-19)
(-0.180359 1.86755 -3.52209e-22)
(-0.171834 1.89913 5.49588e-19)
(-0.161479 1.93441 -5.05022e-22)
(-0.149419 1.97276 0)
(-0.136018 2.013 -4.3864e-19)
(-0.121818 2.05366 -1.18674e-18)
(-0.107439 2.09332 -3.56355e-19)
(-0.09352 2.13076 0)
(-0.0805407 2.16505 0)
(-0.0688258 2.19587 -5.10272e-19)
(-0.0586875 2.22333 4.63171e-19)
(-0.0500054 2.24791 2.56962e-18)
(-0.0425975 2.27007 -4.2421e-19)
(-0.0364729 2.29023 -3.99576e-19)
(-0.0315052 2.30876 -3.22083e-18)
(-0.0275518 2.32596 -2.67096e-18)
(-0.0244918 2.34206 3.15769e-18)
(-0.0222184 2.35732 -2.35383e-18)
(-0.0206273 2.37196 2.22496e-18)
(-0.0196188 2.38617 -5.18548e-19)
(-0.0191028 2.40012 0)
(-0.0190037 2.41393 4.09654e-18)
(-0.0192604 2.4277 -3.44693e-18)
(-0.0198254 2.44152 -4.02351e-19)
(-0.0206627 2.45543 3.78523e-19)
(-0.0217457 2.46949 3.58238e-19)
(-0.0230552 2.48374 -2.00855e-18)
(-0.0245782 2.49822 2.56473e-18)
(-0.026306 2.51294 0)
(-0.0282337 2.52793 -5.73718e-19)
(-0.0303592 2.54322 0)
(-0.0326826 2.55882 0)
(-0.035206 2.57475 -4.93577e-19)
(-0.0379325 2.59103 0)
(-0.0408666 2.60767 -4.4936e-19)
(-0.0440138 2.62469 4.29447e-19)
(-0.0473802 2.64211 -1.62379e-18)
(-0.0509727 2.65994 1.97605e-18)
(-0.0547987 2.67819 1.48752e-18)
(-0.0588662 2.69688 -1.81581e-18)
(-0.0631834 2.71602 6.92623e-19)
(-0.0677593 2.73564 6.44671e-19)
(-0.072603 2.75573 -1.28626e-18)
(-0.0777237 2.77633 1.20363e-18)
(-0.0831312 2.79743 -1.1863e-18)
(-0.0888354 2.81906 5.5944e-19)
(-0.0948462 2.84124 1.06038e-18)
(-0.101174 2.86397 -1.05022e-18)
(-0.107828 2.88727 -4.93154e-19)
(-0.11482 2.91116 -9.48532e-19)
(-0.122158 2.93566 4.3695e-19)
(-0.129854 2.96078 1.24548e-18)
(-0.137915 2.98654 -4.5018e-19)
(-0.146232 3.0126 1.13204e-18)
(-0.154566 3.03822 -1.50608e-18)
(-0.162787 3.06308 3.48506e-21)
(-0.170893 3.08721 -9.24524e-19)
(-0.178871 3.11067 1.53229e-18)
(-0.18672 3.13345 0)
(-0.19445 3.15552 0)
(-0.202049 3.1769 2.46144e-19)
(-0.209508 3.19761 -1.12293e-18)
(-0.216828 3.21767 8.89124e-19)
(-0.22401 3.2371 6.66748e-19)
(-0.231053 3.25593 -5.75429e-19)
(-0.237956 3.27417 5.56573e-19)
(-0.244721 3.29182 -5.58717e-19)
(-0.251347 3.30891 -6.94019e-20)
(-0.257834 3.32543 6.10335e-20)
(-0.264179 3.34139 5.39781e-20)
(-0.270377 3.35684 0)
(-0.276416 3.37182 0)
(-0.282285 3.38642 3.35329e-20)
(-0.287976 3.40071 2.82424e-20)
(-0.293486 3.41469 1.63124e-19)
(-0.298853 3.42822 -3.17416e-20)
(-0.304094 3.44118 -1.38363e-19)
(-0.309196 3.45358 6.3193e-20)
(-0.314158 3.46539 -6.44947e-20)
(-0.31898 3.47662 -7.56466e-21)
(-0.323658 3.48725 6.91767e-21)
(-0.32819 3.49731 -3.80087e-20)
(-0.332574 3.50678 -2.16971e-20)
(-0.0744994 1.55176 -8.91681e-17)
(-0.259046 1.60381 1.59764e-16)
(-0.231361 1.61306 -2.886e-16)
(-0.231408 1.61767 1.05979e-16)
(-0.233007 1.62344 2.18468e-18)
(-0.23427 1.62959 -4.66639e-17)
(-0.23545 1.63601 6.8653e-17)
(-0.236607 1.64272 -2.66157e-17)
(-0.237729 1.64977 2.31429e-17)
(-0.238797 1.65722 -2.01446e-17)
(-0.239794 1.66518 0)
(-0.240674 1.67379 5.72806e-19)
(-0.241396 1.68319 -1.84548e-17)
(-0.241913 1.69355 1.74564e-17)
(-0.242154 1.70501 -1.04555e-18)
(-0.24206 1.7177 -1.57969e-17)
(-0.241562 1.73177 1.57934e-17)
(-0.240593 1.74733 1.47169e-17)
(-0.239083 1.76445 -3.41755e-20)
(-0.236964 1.78319 -1.19265e-17)
(-0.234141 1.80357 -6.83617e-19)
(-0.230416 1.82567 6.26367e-19)
(-0.225702 1.84976 -1.74224e-18)
(-0.219701 1.8764 -5.54805e-19)
(-0.212013 1.90625 -9.5787e-18)
(-0.202583 1.93947 9.1126e-18)
(-0.191463 1.97573 -1.10904e-21)
(-0.178889 2.01419 8.65765e-19)
(-0.165296 2.05366 -7.88659e-19)
(-0.151243 2.09283 7.12726e-19)
(-0.137324 2.13054 5.7557e-18)
(-0.12409 2.16583 -5.19638e-18)
(-0.111896 2.19807 5.1681e-19)
(-0.101079 2.2272 -1.36148e-21)
(-0.0917475 2.25349 4.29743e-19)
(-0.0837315 2.27734 4.0238e-19)
(-0.0769576 2.29911 -6.42789e-18)
(-0.0713964 2.31923 4.34697e-20)
(-0.0669324 2.33797 6.08664e-18)
(-0.0634476 2.35554 0)
(-0.060837 2.37217 0)
(-0.0590037 2.38808 0)
(-0.0578524 2.40348 -4.74396e-18)
(-0.0572918 2.41852 4.00123e-18)
(-0.0572398 2.43337 0)
(-0.057627 2.44813 0)
(-0.0583975 2.46289 -3.71175e-18)
(-0.0595073 2.47773 2.75083e-18)
(-0.0609232 2.49272 2.92793e-18)
(-0.0626203 2.50788 -2.79622e-18)
(-0.0645811 2.52327 6.55105e-19)
(-0.0667937 2.53892 0)
(-0.0692505 2.55485 0)
(-0.0719479 2.57109 1.1175e-18)
(-0.0748848 2.58767 2.10713e-18)
(-0.0780625 2.60459 -1.53203e-18)
(-0.0814843 2.62189 -4.79426e-19)
(-0.0851548 2.63957 0)
(-0.08908 2.65766 -2.16919e-18)
(-0.0932667 2.67617 3.2452e-20)
(-0.0977228 2.69512 2.0108e-18)
(-0.102457 2.71451 -1.52692e-18)
(-0.107478 2.73438 7.27997e-19)
(-0.112797 2.75472 0)
(-0.118422 2.77556 0)
(-0.124366 2.79692 6.21011e-19)
(-0.13064 2.81879 -3.56781e-20)
(-0.137253 2.84121 -3.64232e-20)
(-0.14422 2.86419 -5.78893e-19)
(-0.15155 2.88773 0)
(-0.159256 2.91186 1.02984e-18)
(-0.167349 2.9366 9.88443e-19)
(-0.175842 2.96195 -1.41139e-18)
(-0.184745 2.98795 -8.87986e-19)
(-0.193936 3.01422 0)
(-0.203151 3.04005 -2.34339e-18)
(-0.212245 3.06511 1.90306e-18)
(-0.221216 3.08943 3.76365e-21)
(-0.230048 3.11307 -3.26751e-19)
(-0.238741 3.13604 3.07879e-19)
(-0.247307 3.15831 2.89881e-19)
(-0.255735 3.17987 0)
(-0.264014 3.20075 0)
(-0.272147 3.22098 0)
(-0.280131 3.24058 -8.4116e-19)
(-0.287967 3.25957 -1.3815e-19)
(-0.295653 3.27797 1.65958e-18)
(-0.303188 3.29578 -7.84913e-19)
(-0.310573 3.31302 -5.05495e-19)
(-0.317803 3.32969 5.72537e-19)
(-0.324876 3.34579 0)
(-0.331785 3.36134 3.99806e-19)
(-0.338523 3.37637 -3.87435e-19)
(-0.34508 3.39094 0)
(-0.351447 3.40514 -6.29492e-20)
(-0.357615 3.41904 -1.83629e-19)
(-0.363589 3.43261 1.76161e-19)
(-0.369399 3.4457 -1.06528e-19)
(-0.37506 3.45821 1.03296e-19)
(-0.380554 3.47014 0)
(-0.385885 3.48147 -1.64187e-20)
(-0.391052 3.49221 1.24101e-20)
(-0.396051 3.50234 3.46689e-20)
(-0.40088 3.51187 -9.34578e-20)
(-0.405538 3.52081 6.18089e-20)
(-0.105114 1.5512 2.83386e-18)
(-0.291041 1.60104 0)
(-0.263168 1.61086 -1.45337e-16)
(-0.263198 1.61519 1.15367e-16)
(-0.264855 1.62066 -1.02976e-22)
(-0.266192 1.62653 -1.65436e-18)
(-0.267475 1.63265 0)
(-0.268768 1.63902 -2.86973e-17)
(-0.270064 1.64566 2.53109e-17)
(-0.271352 1.6526 0)
(-0.272622 1.6599 1.22153e-18)
(-0.273854 1.66761 0)
(-0.275027 1.67584 6.30887e-23)
(-0.27609 1.68472 -1.78808e-17)
(-0.277009 1.69437 3.52527e-17)
(-0.277721 1.70494 -1.72774e-17)
(-0.278177 1.71657 1.66107e-17)
(-0.2783 1.7294 -3.34977e-17)
(-0.278029 1.74355 1.4841e-17)
(-0.277295 1.75913 8.6566e-19)
(-0.276032 1.77622 -8.05614e-19)
(-0.274177 1.79487 -1.03876e-17)
(-0.271663 1.81507 1.22764e-17)
(-0.268329 1.83685 1.24769e-18)
(-0.264068 1.86041 1.14772e-18)
(-0.258682 1.88616 -1.08181e-18)
(-0.251824 1.91462 1.03423e-18)
(-0.243297 1.94609 0)
(-0.233127 1.98049 -1.06284e-21)
(-0.221449 2.01725 1.18759e-21)
(-0.208597 2.05542 -7.83335e-19)
(-0.195046 2.09389 0)
(-0.181338 2.13153 0)
(-0.168029 2.16742 9.84564e-18)
(-0.155566 2.2008 -7.36079e-18)
(-0.144205 2.23139 0)
(-0.134297 2.25923 -6.87245e-18)
(-0.125768 2.28471 1.12561e-17)
(-0.118419 2.30812 -6.84083e-18)
(-0.112298 2.32981 0)
(-0.107328 2.35009 -6.05791e-18)
(-0.103402 2.36918 5.12324e-18)
(-0.100427 2.38726 1.20405e-18)
(-0.0983174 2.40455 -5.0907e-18)
(-0.0969858 2.42124 3.77001e-18)
(-0.0963437 2.4375 0)
(-0.0963069 2.4535 3.7916e-18)
(-0.0968006 2.46936 -4.51379e-18)
(-0.097762 2.48518 3.37002e-18)
(-0.0991403 2.50106 -2.41512e-18)
(-0.100895 2.51705 -3.75645e-18)
(-0.102997 2.53323 2.8701e-18)
(-0.105422 2.54962 -6.75883e-19)
(-0.108155 2.56628 1.8972e-18)
(-0.111186 2.58324 -3.6163e-20)
(-0.114509 2.60052 -2.31032e-18)
(-0.11812 2.61814 0)
(-0.122021 2.63614 -3.08718e-18)
(-0.126214 2.65453 2.94742e-18)
(-0.130705 2.67333 -1.89079e-18)
(-0.135498 2.69256 0)
(-0.140603 2.71224 8.48003e-19)
(-0.146027 2.73237 2.41974e-18)
(-0.151781 2.75299 7.40494e-19)
(-0.157876 2.7741 -3.77653e-20)
(-0.164322 2.79572 -7.2875e-19)
(-0.171133 2.81787 2.66314e-18)
(-0.17832 2.84055 -2.6215e-18)
(-0.185898 2.86379 -1.23342e-18)
(-0.193879 2.88759 2.31422e-18)
(-0.202278 2.91198 -1.72164e-18)
(-0.211107 2.93697 -2.14553e-18)
(-0.22038 2.96258 3.01727e-18)
(-0.23011 2.98882 -1.01069e-18)
(-0.240164 3.01533 0)
(-0.250251 3.04139 -8.21543e-19)
(-0.260213 3.06665 8.54346e-19)
(-0.270043 3.09116 -2.60235e-18)
(-0.279726 3.115 1.8037e-18)
(-0.289262 3.13817 -6.66179e-19)
(-0.298663 3.16064 -1.53337e-18)
(-0.307923 3.1824 7.5141e-20)
(-0.317029 3.20347 7.33e-20)
(-0.325982 3.22389 1.07068e-18)
(-0.334781 3.24367 1.16844e-18)
(-0.343425 3.26284 -6.73247e-20)
(-0.35191 3.28141 -6.42422e-19)
(-0.360235 3.29939 1.87639e-19)
(-0.368393 3.31679 -6.43498e-19)
(-0.376382 3.33361 7.8688e-19)
(-0.384194 3.34986 0)
(-0.391823 3.36552 4.45161e-19)
(-0.39926 3.38061 -7.62678e-19)
(-0.406496 3.39519 3.6767e-19)
(-0.413525 3.40932 2.96968e-19)
(-0.420346 3.4231 -2.47471e-19)
(-0.426937 3.4366 2.27081e-20)
(-0.433329 3.44974 -1.02405e-19)
(-0.439552 3.46235 1.03099e-19)
(-0.445598 3.47438 8.51875e-21)
(-0.451459 3.4858 3.86097e-21)
(-0.457134 3.49662 0)
(-0.46262 3.50683 1.54738e-21)
(-0.467912 3.51641 -3.05167e-21)
(-0.473007 3.52538 -4.4015e-21)
(-0.477905 3.53375 1.86268e-19)
(-0.482603 3.54153 -1.96142e-19)
(-0.134891 1.55002 -9.21789e-17)
(-0.322079 1.59754 0)
(-0.293995 1.60785 1.62139e-16)
(-0.293995 1.61192 -1.23209e-16)
(-0.295674 1.61716 -2.67171e-18)
(-0.297045 1.62285 3.65577e-18)
(-0.298382 1.62881 4.22484e-17)
(-0.29975 1.63499 -3.36726e-17)
(-0.301143 1.64142 -1.66448e-18)
(-0.302555 1.6481 -2.41831e-17)
(-0.303982 1.65506 2.03055e-17)
(-0.305416 1.66233 1.17078e-18)
(-0.306845 1.66995 5.79462e-23)
(-0.308249 1.678 1.09622e-18)
(-0.3096 1.68657 1.09e-18)
(-0.310865 1.69576 1.73443e-17)
(-0.311986 1.7057 -4.09281e-20)
(-0.312918 1.71651 -1.59048e-17)
(-0.313605 1.72833 0)
(-0.313972 1.74131 -9.76419e-19)
(-0.313954 1.75557 -1.28786e-17)
(-0.313483 1.77121 1.21005e-17)
(-0.312496 1.7883 1.28383e-17)
(-0.310936 1.8069 -1.19025e-17)
(-0.308748 1.82701 0)
(-0.30582 1.84862 1.24446e-18)
(-0.302004 1.87185 0)
(-0.297209 1.89696 1.05655e-18)
(-0.291145 1.92437 2.00875e-18)
(-0.283508 1.95444 -9.56962e-19)
(-0.2743 1.98723 9.02053e-19)
(-0.263586 2.02239 -1.68194e-18)
(-0.251591 2.05922 1.54948e-18)
(-0.238707 2.09679 -1.27043e-17)
(-0.225426 2.1341 1.03228e-17)
(-0.212263 2.17023 0)
(-0.199713 2.20447 8.41474e-18)
(-0.188103 2.23624 -5.76322e-18)
(-0.177715 2.2655 0)
(-0.168695 2.29247 0)
(-0.160908 2.31743 7.54404e-19)
(-0.154284 2.34065 0)
(-0.148833 2.36248 -6.73668e-19)
(-0.144485 2.38311 0)
(-0.141153 2.40271 -4.20721e-18)
(-0.138758 2.42146 4.59267e-18)
(-0.137227 2.43955 -1.08268e-18)
(-0.13648 2.45714 1.01858e-18)
(-0.136435 2.47441 0)
(-0.137016 2.49149 -9.09283e-19)
(-0.138158 2.50849 8.59083e-19)
(-0.139803 2.52551 8.16052e-19)
(-0.141907 2.54262 -4.13859e-21)
(-0.144432 2.55991 0)
(-0.147352 2.57741 2.04296e-18)
(-0.150647 2.59517 -4.0578e-20)
(-0.154302 2.61324 -2.4907e-18)
(-0.158309 2.63164 1.16778e-18)
(-0.162664 2.65041 -1.09476e-18)
(-0.167365 2.66956 1.07223e-18)
(-0.172416 2.68913 -1.98618e-18)
(-0.17782 2.70913 2.85896e-18)
(-0.183585 2.72958 -2.74129e-18)
(-0.189718 2.7505 -2.57004e-18)
(-0.196231 2.77191 1.66805e-18)
(-0.203134 2.79383 -7.87937e-19)
(-0.21044 2.81627 -2.94963e-18)
(-0.218163 2.83924 1.46391e-18)
(-0.226318 2.86277 -6.32354e-19)
(-0.23492 2.88686 3.93812e-18)
(-0.243983 2.91153 1.09423e-20)
(-0.253524 2.9368 -1.07646e-20)
(-0.263558 2.96268 -2.18671e-18)
(-0.274098 2.9892 2.1157e-18)
(-0.285001 3.01597 -3.05082e-18)
(-0.295952 3.04226 -1.831e-18)
(-0.306776 3.06774 2.69156e-18)
(-0.317461 3.09245 -1.61032e-18)
(-0.327996 3.11648 3.85298e-18)
(-0.338371 3.13986 -1.13146e-18)
(-0.348602 3.16255 1.33375e-18)
(-0.358696 3.18453 -1.33877e-18)
(-0.368636 3.20582 -1.4852e-18)
(-0.37842 3.22645 8.90792e-19)
(-0.388048 3.24643 7.58257e-19)
(-0.397513 3.26579 -1.26298e-18)
(-0.406809 3.28454 -2.23252e-19)
(-0.415928 3.3027 3.7634e-19)
(-0.424861 3.32027 -1.67621e-18)
(-0.433601 3.33725 7.03223e-19)
(-0.442142 3.35363 1.50129e-19)
(-0.450479 3.36941 0)
(-0.458608 3.38458 -5.58844e-20)
(-0.466525 3.39918 3.58838e-19)
(-0.474226 3.41327 -3.83688e-19)
(-0.481705 3.42693 -2.02634e-19)
(-0.488958 3.44028 4.03566e-19)
(-0.495967 3.45338 -1.71937e-19)
(-0.502772 3.46609 1.08337e-19)
(-0.509394 3.47821 -1.01177e-19)
(-0.51581 3.48973 -5.09547e-20)
(-0.522016 3.50062 5.79234e-20)
(-0.528008 3.51088 -7.75679e-20)
(-0.533779 3.52049 6.34389e-20)
(-0.539326 3.52947 0)
(-0.544646 3.53782 5.66917e-21)
(-0.549739 3.54556 0)
(-0.554605 3.55271 -7.77104e-21)
(-0.163841 1.54827 9.3577e-17)
(-0.352167 1.59334 -3.58679e-16)
(-0.323826 1.60403 -4.88274e-18)
(-0.323789 1.60783 1.2974e-16)
(-0.325464 1.61286 0)
(-0.326848 1.61842 -1.97488e-18)
(-0.328214 1.62427 -4.58531e-17)
(-0.329623 1.63035 6.08597e-20)
(-0.33107 1.63667 2.69336e-17)
(-0.33255 1.64323 1.51724e-18)
(-0.334064 1.65002 1.99076e-17)
(-0.335608 1.65708 -3.80062e-20)
(-0.337179 1.66443 -3.45291e-17)
(-0.338768 1.67208 1.49047e-17)
(-0.340362 1.6801 -1.66489e-17)
(-0.341943 1.68854 1.66514e-17)
(-0.343482 1.69749 0)
(-0.34495 1.70704 -2.09492e-18)
(-0.346291 1.7173 2.0924e-18)
(-0.347462 1.7284 -2.06668e-18)
(-0.348397 1.74047 3.20847e-17)
(-0.349034 1.75364 -3.08459e-17)
(-0.3493 1.76804 0)
(-0.349126 1.78378 0)
(-0.348451 1.80095 1.60212e-18)
(-0.347216 1.81957 0)
(-0.345374 1.83968 1.35792e-18)
(-0.342849 1.86124 1.86043e-17)
(-0.339493 1.88427 -2.03746e-17)
(-0.335243 1.90896 2.07992e-18)
(-0.329899 1.93563 1.95671e-18)
(-0.323152 1.96461 1.6696e-17)
(-0.314904 1.99603 -1.58459e-17)