/*--------------------------------*- C++ -*----------------------------------*\
  =========                 |
  \\      /  F ield         | OpenFOAM: The Open Source CFD Toolbox
   \\    /   O peration     | Website:  https://openfoam.org
    \\  /    A nd           | Version:  10
     \\/     M anipulation  |
\*---------------------------------------------------------------------------*/
FoamFile
{
    format      ascii;
    class       volVectorField;
    location    "28000";
    object      Urel;
}
// * * * * * * * * * * * * * * * * * * * * * * * * * * * * * * * * * * * * * //

dimensions      [0 1 -1 0 0 0 0];

internalField   nonuniform List<vector> 
17969
(
(0.14091 -0.139308 0)
(-0.024328 -0.0829691 0)
(-0.000556231 -0.0714146 -7.54665e-18)
(0.000882788 -0.0605121 8.57832e-18)
(0.00136611 -0.0501808 -2.7955e-18)
(0.00261914 -0.0395661 -2.18859e-18)
(0.00467508 -0.0278204 1.81088e-18)
(0.00760955 -0.0141818 0)
(0.0117171 0.00216751 9.85632e-20)
(0.0173715 0.0223813 0)
(0.0251825 0.0482323 0)
(0.0357412 0.0812344 0)
(0.0489918 0.120883 0)
(0.0643644 0.164699 -1.24461e-18)
(0.0808815 0.209125 1.16561e-18)
(0.0973669 0.250671 0)
(0.112877 0.286806 -8.22259e-19)
(0.126732 0.316288 7.12108e-19)
(0.13845 0.338998 -6.23916e-19)
(0.148216 0.356071 5.67677e-19)
(0.1563 0.368702 0)
(0.162807 0.377819 0)
(0.168031 0.384192 -5.46584e-20)
(0.172234 0.388425 0)
(0.175623 0.391019 0)
(0.178371 0.392387 3.32453e-19)
(0.180625 0.39284 -6.09653e-19)
(0.182506 0.392602 2.80153e-19)
(0.184106 0.391822 2.56185e-19)
(0.185492 0.390603 -3.09969e-20)
(0.186711 0.389012 -2.7497e-19)
(0.187795 0.387094 0)
(0.188769 0.384877 1.89642e-19)
(0.189648 0.382383 -4.00885e-19)
(0.190441 0.379625 1.13889e-21)
(0.191157 0.376612 3.15619e-19)
(0.191799 0.37335 -1.49773e-19)
(0.192371 0.369842 -1.76391e-19)
(0.192874 0.366091 1.0136e-19)
(0.193309 0.362099 0)
(0.193676 0.357864 3.0643e-20)
(0.193973 0.353386 2.93105e-20)
(0.194201 0.348665 2.23199e-19)
(0.194357 0.343699 -2.16198e-19)
(0.194441 0.338485 -2.05653e-19)
(0.19445 0.333022 -4.76996e-20)
(0.194383 0.327307 1.92469e-19)
(0.194238 0.321337 1.83403e-19)
(0.194013 0.315109 -2.13586e-21)
(0.193705 0.308618 -1.72779e-19)
(0.193313 0.301862 -2.06271e-19)
(0.192833 0.294836 2.01456e-19)
(0.192265 0.287535 0)
(0.191604 0.279954 0)
(0.190849 0.272088 3.6304e-20)
(0.189997 0.263931 2.09278e-19)
(0.189046 0.255476 -1.3684e-19)
(0.187991 0.246718 0)
(0.18683 0.237648 0)
(0.185561 0.228259 6.01086e-20)
(0.184179 0.218543 -1.20352e-19)
(0.182682 0.208492 0)
(0.181065 0.198097 0)
(0.179326 0.187349 -5.40957e-20)
(0.177461 0.176237 -1.02936e-19)
(0.175465 0.164753 5.34391e-20)
(0.173336 0.152886 9.89112e-20)
(0.171069 0.140626 0)
(0.168661 0.127961 0)
(0.166107 0.114882 0)
(0.163404 0.101376 8.26104e-20)
(0.160549 0.0874335 -5.45589e-21)
(0.157536 0.0730428 -1.5925e-19)
(0.154364 0.0581929 0)
(0.151075 0.043092 7.04879e-20)
(0.147765 0.0281687 6.60709e-20)
(0.144487 0.0136345 -6.15506e-20)
(0.141246 -0.000517799 0)
(0.138042 -0.0142986 0)
(0.134879 -0.0277225 0)
(0.131764 -0.040819 0)
(0.128692 -0.0536121 0)
(0.125666 -0.0661203 7.42345e-20)
(0.122691 -0.0783536 -1.23942e-19)
(0.119767 -0.0903196 8.37567e-20)
(0.116904 -0.102011 -1.48426e-20)
(0.114114 -0.113398 0)
(0.111409 -0.124437 0)
(0.108797 -0.135109 0)
(0.106252 -0.145466 -2.58642e-20)
(0.103747 -0.155578 3.47327e-20)
(0.101276 -0.165477 2.69534e-20)
(0.0988296 -0.17519 -2.65692e-20)
(0.0964074 -0.184745 1.94546e-20)
(0.0940096 -0.194162 -3.73127e-20)
(0.0916373 -0.20346 1.38659e-20)
(0.0892921 -0.212656 0)
(0.0869758 -0.221767 -6.54029e-21)
(0.084691 -0.23081 6.3893e-21)
(0.0824401 -0.2398 3.28937e-22)
(0.146659 -0.134149 0)
(-0.0241872 -0.0791177 -2.86482e-17)
(0.000949454 -0.0720182 1.7977e-17)
(0.00189985 -0.0646509 3.15804e-19)
(0.00192634 -0.0573351 1.2615e-17)
(0.00257066 -0.0499236 -1.82509e-17)
(0.00375878 -0.0419011 7.48144e-18)
(0.00547183 -0.0327838 6.62058e-18)
(0.0078084 -0.0220807 -6.31446e-18)
(0.0109588 -0.00926088 -6.16974e-18)
(0.0152005 0.0061905 1.19894e-20)
(0.0208499 0.0250977 5.7248e-18)
(0.0284557 0.0488582 0)
(0.0385105 0.0786364 0)
(0.0510045 0.114166 -5.25057e-18)
(0.0655503 0.153676 4.86062e-18)
(0.0813868 0.19446 0)
(0.0975748 0.233689 -3.68421e-18)
(0.113182 0.268996 3.33549e-18)
(0.127574 0.298901 0)
(0.140171 0.322847 -2.46144e-18)
(0.150867 0.341352 2.08506e-18)
(0.159902 0.355402 6.36991e-20)
(0.167399 0.365826 0)
(0.173519 0.37339 1.73876e-18)
(0.178515 0.378651 -1.08324e-19)
(0.18259 0.382061 -2.96295e-18)
(0.185914 0.384024 1.36728e-18)
(0.188639 0.384876 -7.85675e-20)
(0.190894 0.384876 1.18909e-18)
(0.192786 0.384214 -1.00321e-18)
(0.1944 0.383022 0)
(0.195797 0.381392 7.97099e-19)
(0.197023 0.379387 -6.93591e-19)
(0.19811 0.377047 0)
(0.19908 0.374402 9.29568e-20)
(0.19995 0.371472 -8.72701e-20)
(0.200729 0.36827 -6.1284e-19)
(0.201426 0.364804 1.27813e-18)
(0.202045 0.361082 -7.82936e-20)
(0.202588 0.357105 -5.94069e-19)
(0.203058 0.352877 -6.26868e-19)
(0.203455 0.348397 1.01008e-18)
(0.203779 0.343667 -1.08546e-18)
(0.204029 0.338685 9.22778e-19)
(0.204203 0.333449 -3.89196e-19)
(0.2043 0.327958 4.21729e-19)
(0.204318 0.322209 -9.16607e-19)
(0.204255 0.316199 7.83197e-19)
(0.204108 0.309925 -7.53739e-19)
(0.203876 0.303383 3.19684e-19)
(0.203555 0.29657 -4.36422e-20)
(0.203142 0.28948 0)
(0.202635 0.282109 0)
(0.202031 0.274453 -3.92091e-20)
(0.201326 0.266504 -7.57324e-20)
(0.200517 0.258258 2.90801e-19)
(0.199601 0.249707 -4.28126e-19)
(0.198574 0.240844 -5.42667e-19)
(0.197432 0.231663 7.66864e-20)
(0.196172 0.222156 5.17319e-19)
(0.19479 0.212313 6.13272e-19)
(0.193282 0.202127 -6.03713e-19)
(0.191643 0.191588 5.75929e-20)
(0.189871 0.180688 0)
(0.187959 0.169415 5.43711e-20)
(0.185906 0.15776 4.09727e-19)
(0.183705 0.145712 -4.07681e-19)
(0.181353 0.13326 -1.94072e-19)
(0.178846 0.120394 -1.78805e-19)
(0.17618 0.107102 3.65524e-19)
(0.173351 0.093374 2.5875e-19)
(0.170355 0.079198 3.23093e-19)
(0.167188 0.0645634 -3.23072e-19)
(0.163895 0.049676 -7.4247e-20)
(0.160572 0.0349595 -6.96267e-20)
(0.157271 0.0206247 6.49009e-20)
(0.154 0.00666643 1.2188e-19)
(0.150756 -0.00692365 3.30037e-19)
(0.147554 -0.020156 -1.27245e-20)
(0.144391 -0.0330684 -1.98785e-19)
(0.141262 -0.0456899 -4.50375e-20)
(0.138183 -0.0580257 0)
(0.135151 -0.0700852 1.94931e-20)
(0.132165 -0.0818813 -1.75063e-20)
(0.129227 -0.0934246 1.59898e-20)
(0.126342 -0.104713 0)
(0.123524 -0.115722 0)
(0.120791 -0.126403 -1.75843e-19)
(0.118153 -0.13671 6.76099e-21)
(0.115601 -0.146667 1.49795e-19)
(0.113101 -0.156356 0)
(0.110634 -0.165851 0)
(0.108194 -0.175181 8.43365e-20)
(0.105778 -0.184373 -1.50099e-19)
(0.103388 -0.193446 7.4061e-20)
(0.101028 -0.202421 0)
(0.0986985 -0.211318 0)
(0.0964033 -0.220156 -1.61238e-20)
(0.0941458 -0.228953 9.40884e-21)
(0.151449 -0.128838 4.13084e-17)
(-0.0238556 -0.0749023 -6.31259e-17)
(0.00246647 -0.0707661 8.91913e-17)
(0.00309888 -0.0665085 -2.6589e-17)
(0.00279265 -0.0616284 4.80862e-19)
(0.00301444 -0.0565937 0)
(0.0036426 -0.0511533 2.65402e-19)
(0.00463322 -0.0449849 0)
(0.00603045 -0.0377409 0)
(0.00791987 -0.0290384 3.99171e-19)
(0.0104089 -0.0185365 1.92717e-19)
(0.0136503 -0.00601749 0)
(0.0178999 0.00876078 0)
(0.0234072 0.0263313 3.39281e-19)
(0.0306376 0.0478101 -5.31665e-18)
(0.0400866 0.074344 4.70788e-18)
(0.0517894 0.105973 -4.59538e-18)
(0.0655199 0.141552 4.52065e-18)
(0.0807136 0.179044 -1.26949e-19)
(0.0966012 0.216087 -3.83577e-18)
(0.112321 0.250504 3.00061e-18)
(0.127163 0.280671 3.51442e-19)
(0.140672 0.305807 1.54277e-19)
(0.15236 0.325731 0)
(0.162352 0.34119 0)
(0.170901 0.352999 1.98097e-18)
(0.178016 0.361784 -1.52396e-18)
(0.183901 0.368122 -2.02054e-19)
(0.188767 0.372448 -1.21302e-18)
(0.192782 0.375132 1.39244e-18)
(0.196091 0.376507 0)
(0.198829 0.376856 0)
(0.201111 0.3764 1.377e-19)
(0.203036 0.375304 1.91212e-18)
(0.204681 0.373686 -3.8021e-18)
(0.206105 0.37163 1.66554e-18)
(0.207352 0.369193 1.03061e-19)
(0.208452 0.366415 -1.93546e-19)
(0.209427 0.363324 1.81601e-19)
(0.210295 0.35994 8.51147e-20)
(0.211065 0.356275 0)
(0.211746 0.352338 7.59082e-20)
(0.212341 0.348135 1.44443e-19)
(0.212855 0.34367 -9.53503e-19)
(0.213287 0.338944 1.04016e-20)
(0.213639 0.333958 1.12382e-18)
(0.21391 0.328711 0)
(0.214099 0.323201 -4.84763e-22)
(0.214203 0.317428 -2.17984e-19)
(0.214222 0.311389 0)
(0.214153 0.305079 9.99059e-20)
(0.213992 0.298497 -7.6453e-19)
(0.213737 0.291637 7.4557e-19)
(0.213384 0.284495 0)
(0.212931 0.277067 1.72006e-19)
(0.212374 0.269347 0)
(0.211708 0.261328 -1.59809e-19)
(0.21093 0.253006 -6.10098e-19)
(0.210036 0.244372 5.98746e-19)
(0.209022 0.23542 1.43482e-19)
(0.207884 0.226143 0)
(0.206616 0.216531 -6.59882e-19)
(0.205215 0.206577 1.41476e-18)
(0.203676 0.196271 -1.23644e-20)
(0.201994 0.185603 -2.52792e-19)
(0.200165 0.174565 -1.28024e-19)
(0.198184 0.163145 -8.90208e-19)
(0.196046 0.151333 1.36423e-20)
(0.193746 0.139118 8.3306e-19)
(0.191281 0.126488 1.42096e-21)
(0.188645 0.113433 0)
(0.185835 0.0999414 5.35468e-19)
(0.182845 0.0860019 1.44657e-19)
(0.179674 0.071604 -6.8688e-19)
(0.176364 0.0569504 0)
(0.173012 0.0424599 0)
(0.169674 0.0283428 -1.39497e-19)
(0.166355 0.0145976 3.73938e-19)
(0.163056 0.00121977 -1.07869e-18)
(0.159793 -0.0118103 8.90132e-19)
(0.156558 -0.0245258 -5.32639e-19)
(0.153358 -0.036957 -3.25921e-19)
(0.150203 -0.0491082 3.71264e-19)
(0.147094 -0.0609848 -3.61079e-19)
(0.144029 -0.0725962 6.1083e-19)
(0.141008 -0.0839555 -2.90926e-19)
(0.138033 -0.0950751 2.44065e-19)
(0.135106 -0.105958 -4.59893e-19)
(0.132242 -0.116584 1.95504e-20)
(0.129456 -0.126907 1.84751e-20)
(0.126761 -0.13687 1.84792e-19)
(0.124166 -0.146456 0)
(0.121638 -0.155745 1.08273e-19)
(0.119144 -0.164845 -1.98128e-19)
(0.116681 -0.173804 3.79229e-21)
(0.114246 -0.182646 9.52715e-21)
(0.111841 -0.191395 6.29417e-21)
(0.109471 -0.200073 7.40206e-21)
(0.10714 -0.208703 2.73167e-20)
(0.104851 -0.217303 8.4484e-22)
(0.155097 -0.123647 -1.31852e-18)
(-0.0233197 -0.0709972 -1.33586e-16)
(0.00382803 -0.0680789 1.48576e-19)
(0.00429832 -0.0662345 2.1215e-18)
(0.00372539 -0.0633246 3.8509e-17)
(0.00361541 -0.0601606 2.60602e-17)
(0.00380989 -0.0566868 -3.52199e-19)
(0.00426524 -0.0527062 -1.72328e-17)
(0.00500397 -0.0479735 0)
(0.00608754 -0.0421932 1.43528e-17)
(0.00758653 -0.0350829 -1.37282e-17)
(0.00957873 -0.0264438 0)
(0.0121571 -0.0161312 0)
(0.0154447 -0.00404541 -3.72056e-19)
(0.0196819 0.00996129 3.48104e-19)
(0.0250435 0.0262384 3.27969e-19)
(0.0319053 0.0456447 9.82539e-18)
(0.0407566 0.069263 -9.89658e-18)
(0.0517151 0.0973857 0)
(0.064663 0.129374 2.72977e-19)
(0.0792161 0.163743 8.68282e-18)
(0.0947387 0.198555 -1.44978e-17)
(0.110499 0.231885 6.17188e-18)
(0.125744 0.262084 3.52713e-19)
(0.139949 0.288005 4.977e-18)
(0.152684 0.309282 -4.43638e-18)
(0.163732 0.326164 -4.24577e-18)
(0.17327 0.339307 4.1816e-18)
(0.181443 0.349311 6.12136e-22)
(0.188311 0.356741 -3.22477e-18)
(0.19406 0.362035 3.02657e-18)
(0.198861 0.365531 0)
(0.202861 0.367542 0)
(0.206189 0.368351 -2.43246e-18)
(0.208964 0.368201 2.56273e-18)
(0.211293 0.367284 -2.10645e-18)
(0.213266 0.365744 1.97595e-18)
(0.214956 0.363689 -1.60037e-18)
(0.216418 0.361193 -2.00775e-19)
(0.217693 0.358312 1.29466e-20)
(0.218812 0.355082 3.01322e-18)
(0.219798 0.351532 -2.83328e-18)
(0.220665 0.34768 1.17462e-18)
(0.221425 0.343538 0)
(0.222086 0.339116 0)
(0.222651 0.334418 -1.4126e-19)
(0.223124 0.329449 -1.07045e-18)
(0.223506 0.324209 9.01508e-19)
(0.223797 0.318699 -7.27701e-19)
(0.223996 0.312917 1.17294e-18)
(0.224102 0.306862 1.11058e-18)
(0.224111 0.300532 -1.07467e-18)
(0.224022 0.293922 0)
(0.223831 0.28703 -5.83301e-19)
(0.223534 0.27985 7.61753e-19)
(0.223129 0.272379 0)
(0.22261 0.264609 1.73971e-19)
(0.221974 0.256535 1.67375e-19)
(0.221216 0.248151 -3.24012e-19)
(0.220332 0.23945 -1.5511e-19)
(0.219317 0.230424 3.00528e-19)
(0.218165 0.221065 1.14169e-18)
(0.216872 0.211365 -1.40238e-18)
(0.215432 0.201314 1.05813e-18)
(0.213841 0.190903 -1.54795e-18)
(0.212093 0.180122 1.00772e-18)
(0.210182 0.16896 -1.1827e-18)
(0.208104 0.157407 1.16638e-18)
(0.205853 0.145452 -2.20628e-19)
(0.203424 0.133082 -1.0478e-18)
(0.200812 0.120287 8.3323e-19)
(0.198013 0.107055 0)
(0.195021 0.0933749 -1.8706e-19)
(0.191833 0.079236 0)
(0.188493 0.0648379 0)
(0.185097 0.050594 0)
(0.181705 0.036714 7.25179e-19)
(0.17832 0.0232004 -5.69362e-19)
(0.174952 0.0100546 -2.59023e-19)
(0.171608 -0.00275043 -2.41194e-19)
(0.168283 -0.0152538 1.11555e-19)
(0.16499 -0.02748 -1.05293e-19)
(0.161737 -0.0394319 -3.75923e-19)
(0.158526 -0.0511134 3.73182e-19)
(0.155357 -0.0625308 3.19723e-19)
(0.152231 -0.0736939 -2.39988e-20)
(0.149148 -0.0846162 -8.22803e-19)
(0.14611 -0.0953115 4.45445e-20)
(0.143119 -0.105786 4.743e-19)
(0.140184 -0.116025 -5.06761e-20)
(0.137322 -0.125986 2.25495e-20)
(0.134549 -0.135607 -2.83109e-19)
(0.131874 -0.144846 2.72574e-19)
(0.129282 -0.153766 -1.36821e-20)
(0.126733 -0.162487 1.11489e-20)
(0.124218 -0.171093 1.24104e-19)
(0.121739 -0.179613 -2.26842e-19)
(0.1193 -0.188072 1.06283e-19)
(0.116904 -0.196492 4.7248e-20)
(0.114558 -0.204896 -6.87769e-20)
(0.112266 -0.2133 2.04356e-20)
(0.110031 -0.22172 1.47587e-21)
(0.107858 -0.230164 -4.19645e-20)
(0.105749 -0.23864 4.06467e-20)
(0.157982 -0.118703 8.87416e-17)
(-0.0226899 -0.0676825 0)
(0.00503566 -0.0647339 1.20408e-16)
(0.00552277 -0.0643416 1.13683e-18)
(0.00477537 -0.0628082 -9.89595e-17)
(0.00444295 -0.0609927 6.63627e-17)
(0.00432712 -0.0589488 -2.38587e-17)
(0.00437874 -0.0565676 0)
(0.004627 -0.0536927 1.86518e-17)
(0.00510744 -0.0501127 -3.38883e-17)
(0.00587829 -0.0455883 1.5646e-17)
(0.00700349 -0.0399228 -4.79527e-19)
(0.00855321 -0.0329656 1.45074e-17)
(0.0106063 -0.0245841 -2.73685e-17)
(0.0132471 -0.0146692 1.24683e-17)
(0.0165668 -0.00315793 -7.46946e-19)
(0.0207567 0.0100217 1.10581e-17)
(0.0259903 0.0251463 -9.6714e-18)
(0.032537 0.0428224 0)
(0.0408217 0.0639217 9.47263e-18)
(0.0510958 0.0889598 -1.02303e-17)
(0.0633037 0.117692 -5.31784e-19)
(0.0772072 0.149102 0)
(0.0923175 0.181649 -8.83427e-19)
(0.107989 0.213604 0)
(0.123524 0.243403 5.29668e-18)
(0.13831 0.26982 2.92514e-19)
(0.151963 0.292182 -5.05463e-18)
(0.164065 0.31035 -2.50945e-19)
(0.174614 0.324772 0)
(0.183823 0.336 0)
(0.191727 0.344502 0)
(0.198431 0.350768 -2.64211e-18)
(0.204101 0.355127 2.84794e-18)
(0.208879 0.357858 -3.3161e-19)
(0.212893 0.359228 2.47691e-18)
(0.216259 0.359484 -2.04045e-18)
(0.219086 0.358836 2.16293e-18)
(0.221472 0.357454 -2.03664e-18)
(0.223502 0.355464 0)
(0.225243 0.352962 2.21283e-18)
(0.226745 0.350019 -1.67098e-18)
(0.228051 0.346685 1.16332e-18)
(0.229188 0.342995 -1.10733e-18)
(0.230179 0.338976 3.46559e-19)
(0.231039 0.334646 -3.27126e-19)
(0.231779 0.330018 0)
(0.232406 0.325099 -1.33135e-21)
(0.232925 0.319895 0)
(0.233337 0.314409 1.83539e-18)
(0.233645 0.308641 -2.27443e-18)
(0.233847 0.302592 2.39138e-19)
(0.233943 0.29626 -1.8185e-18)
(0.233928 0.289642 1.54534e-18)
(0.233802 0.282734 -2.08929e-19)
(0.23356 0.275534 0)
(0.233198 0.268035 0)
(0.232712 0.260233 -1.46374e-18)
(0.232097 0.25212 3.80034e-19)
(0.231348 0.243692 1.37545e-18)
(0.230461 0.234939 9.68981e-19)
(0.229429 0.225855 -1.27195e-18)
(0.228247 0.216431 0)
(0.22691 0.206658 0)
(0.225411 0.196526 -2.7869e-19)
(0.223744 0.186025 0)
(0.221904 0.175146 -2.61192e-19)
(0.219885 0.163875 7.30182e-19)
(0.21768 0.152203 -9.69966e-19)
(0.215283 0.140118 4.59687e-19)
(0.21269 0.127607 4.40963e-19)
(0.209894 0.114659 4.22597e-19)
(0.20689 0.101262 0)
(0.203674 0.0874055 3.62849e-19)
(0.200289 0.0732859 -3.79357e-19)
(0.196835 0.05931 6.63488e-19)
(0.193372 0.0456868 -3.34295e-19)
(0.189904 0.0324232 1.15607e-18)
(0.186446 0.0195262 -6.7479e-20)
(0.183004 0.00696604 1.95537e-19)
(0.17957 -0.00530444 -1.00275e-18)
(0.176161 -0.0173061 7.64043e-19)
(0.172786 -0.0290406 -6.625e-19)
(0.169446 -0.040511 0)
(0.166144 -0.0517217 9.1303e-20)
(0.162883 -0.0626797 6.40443e-19)
(0.159663 -0.0733956 -1.26924e-19)
(0.156486 -0.0838834 -4.83657e-20)
(0.153352 -0.0941579 -5.22109e-19)
(0.150267 -0.104227 -1.00669e-21)
(0.147236 -0.114079 2.72778e-19)
(0.144275 -0.123674 -3.59098e-19)
(0.141401 -0.132952 2.69146e-19)
(0.138622 -0.141861 -2.73314e-19)
(0.135937 -0.150436 1.82412e-19)
(0.133308 -0.158813 -1.68122e-19)
(0.130719 -0.167106 0)
(0.128179 -0.175349 0)
(0.125692 -0.183565 5.90128e-20)
(0.123262 -0.191777 -5.08668e-20)
(0.120896 -0.200005 8.21636e-22)
(0.118595 -0.208264 -2.40839e-22)
(0.116366 -0.216566 -4.09984e-20)
(0.114212 -0.224919 3.96964e-20)
(0.160325 -0.113994 -4.03598e-18)
(-0.0220666 -0.0648874 3.05877e-16)
(0.00605393 -0.0614452 -2.67211e-16)
(0.0066483 -0.0617847 9.15327e-17)
(0.00583175 -0.0610625 0)
(0.00539463 -0.060088 0)
(0.0051069 -0.0589593 -1.82618e-18)
(0.00491656 -0.0576244 -2.34625e-17)
(0.00484163 -0.0559954 4.01085e-17)
(0.00490873 -0.0539467 -1.87877e-17)
(0.00516462 -0.051303 0)
(0.0056517 -0.0478757 1.99494e-23)
(0.0064411 -0.0435075 -5.19309e-19)
(0.00759208 -0.0380519 0)
(0.00917633 -0.0313767 9.23982e-19)
(0.0112668 -0.0233688 8.64811e-19)
(0.0139375 -0.0139372 -8.07301e-19)
(0.0172652 -0.00303161 -7.46103e-19)
(0.0213904 0.00938426 0)
(0.0265041 0.023488 0)
(0.0327693 0.0396738 5.94515e-19)
(0.0405505 0.0586392 -3.52209e-22)
(0.0501997 0.0810201 5.49588e-19)
(0.0617112 0.106844 -5.05022e-22)
(0.0749604 0.135459 0)
(0.0895865 0.165675 -4.3864e-19)
(0.105046 0.196033 -1.18674e-18)
(0.120721 0.225092 -3.56355e-19)
(0.135973 0.251617 0)
(0.150325 0.274679 0)
(0.163451 0.293951 -5.10272e-19)
(0.175042 0.30953 4.63171e-19)
(0.185219 0.321889 2.56962e-18)
(0.194164 0.331463 -4.2421e-19)
(0.201871 0.338676 -3.99576e-19)
(0.208466 0.343897 -3.22083e-18)
(0.214095 0.34739 -2.67096e-18)
(0.218878 0.349395 3.15769e-18)
(0.222924 0.350147 -2.35383e-18)
(0.22634 0.349859 2.22496e-18)
(0.229225 0.348716 -5.18548e-19)
(0.231672 0.346865 0)
(0.233758 0.34442 4.09654e-18)
(0.235546 0.341468 -3.44693e-18)
(0.237085 0.338072 -4.02351e-19)
(0.238412 0.334278 3.78523e-19)
(0.239555 0.330123 3.58238e-19)
(0.240537 0.325629 -2.00855e-18)
(0.241371 0.320815 2.56473e-18)
(0.242069 0.315692 0)
(0.242637 0.310268 -5.73718e-19)
(0.243079 0.304548 0)
(0.243398 0.298533 0)
(0.243593 0.292226 -4.93577e-19)
(0.243663 0.285623 0)
(0.243606 0.278723 -4.4936e-19)
(0.24342 0.271523 4.29447e-19)
(0.2431 0.264018 -1.62379e-18)
(0.242641 0.256202 1.97605e-18)
(0.24204 0.248071 1.48752e-18)
(0.241291 0.239616 -1.81581e-18)
(0.240388 0.23083 6.92623e-19)
(0.239324 0.221706 6.44671e-19)
(0.238095 0.212234 -1.28626e-18)
(0.236693 0.202405 1.20363e-18)
(0.235111 0.192209 -1.1863e-18)
(0.233343 0.181636 5.5944e-19)
(0.231383 0.170673 1.06038e-18)
(0.229222 0.159309 -1.05022e-18)
(0.226856 0.147533 -4.93154e-19)
(0.224276 0.135331 -9.48532e-19)
(0.221476 0.122692 4.3695e-19)
(0.218451 0.109603 1.24548e-18)
(0.215195 0.0960549 -4.5018e-19)
(0.211751 0.0822379 1.13204e-18)
(0.208222 0.0685523 -1.50608e-18)
(0.204671 0.0552061 3.48506e-21)
(0.201103 0.0422104 -9.24524e-19)
(0.197536 0.0295788 1.53229e-18)
(0.193975 0.0172832 0)
(0.190411 0.00526884 0)
(0.186862 -0.00648589 2.46144e-19)
(0.18334 -0.0179817 -1.12293e-18)
(0.179845 -0.0292207 8.89124e-19)
(0.176381 -0.0402064 6.66748e-19)
(0.172952 -0.0509442 -5.75429e-19)
(0.169561 -0.0614426 5.56573e-19)
(0.16621 -0.0717137 -5.58717e-19)
(0.162902 -0.0817728 -6.94019e-20)
(0.15964 -0.0916356 6.10335e-20)
(0.156428 -0.10131 5.39781e-20)
(0.153276 -0.110785 0)
(0.150197 -0.120023 0)
(0.147206 -0.128962 3.35329e-20)
(0.144312 -0.137551 2.82424e-20)
(0.141519 -0.145811 1.63124e-19)
(0.138795 -0.153895 -3.17416e-20)
(0.136121 -0.161934 -1.38363e-19)
(0.133514 -0.169956 6.3193e-20)
(0.130977 -0.177987 -6.44947e-20)
(0.128513 -0.186046 -7.56466e-21)
(0.126126 -0.194151 6.91767e-21)
(0.123821 -0.202317 -3.80087e-20)
(0.121601 -0.210553 -2.16971e-20)
(0.162318 -0.109467 -8.91681e-17)
(-0.0215096 -0.0624578 1.59764e-16)
(0.00691601 -0.0583955 -2.886e-16)
(0.00763048 -0.0591212 1.05979e-16)
(0.00681528 -0.0588495 2.18468e-18)
(0.00635856 -0.0583497 -4.66639e-17)
(0.00600798 -0.0577455 6.8653e-17)
(0.0057046 -0.057018 -2.66157e-17)
(0.00546152 -0.0561238 2.31429e-17)
(0.00529693 -0.0550004 -2.01446e-17)
(0.00522934 -0.0535545 0)
(0.00530605 -0.051654 5.72806e-19)
(0.00556806 -0.0491468 -1.84548e-17)
(0.00606386 -0.0458874 1.74564e-17)
(0.00686497 -0.0417341 -1.04555e-18)
(0.00803167 -0.0365504 -1.57969e-17)
(0.00963205 -0.0302114 1.57934e-17)
(0.0117367 -0.0226123 1.47169e-17)
(0.0144147 -0.0136738 -3.41755e-20)
(0.0177344 -0.00335312 -1.19265e-17)
(0.0217939 0.00835984 -6.83617e-19)
(0.0267906 0.0215498 6.26367e-19)
(0.0328132 0.0364701 -1.74224e-18)
(0.0401615 0.0536729 -5.54805e-19)
(0.0492344 0.0738083 -9.5787e-18)
(0.0600905 0.0970387 9.1126e-18)
(0.0726764 0.123023 -1.10904e-21)
(0.0867594 0.150904 8.65765e-19)
(0.101906 0.179494 -7.88659e-19)
(0.117556 0.207474 7.12726e-19)
(0.133118 0.23366 5.7557e-18)
(0.148044 0.257098 -5.19638e-18)
(0.161978 0.277152 5.1681e-19)
(0.174585 0.293728 -1.36148e-21)
(0.185759 0.30711 4.29743e-19)
(0.19567 0.317681 4.0238e-19)
(0.204394 0.325786 -6.42789e-18)
(0.211961 0.331845 4.34697e-20)
(0.21849 0.336116 6.08664e-18)
(0.224098 0.338804 0)
(0.228894 0.34012 0)
(0.232976 0.340272 0)
(0.236441 0.33945 -4.74396e-18)
(0.239382 0.337816 4.00123e-18)
(0.241883 0.335498 0)
(0.244016 0.332597 0)
(0.245838 0.329192 -3.71175e-18)
(0.247396 0.32534 2.75083e-18)
(0.248725 0.321086 2.92793e-18)
(0.249851 0.316461 -2.79622e-18)
(0.250796 0.311489 6.55105e-19)
(0.251573 0.306185 0)
(0.252192 0.300561 0)
(0.25266 0.294624 1.1175e-18)
(0.252979 0.288378 2.10713e-18)
(0.253152 0.281824 -1.53203e-18)
(0.253177 0.274962 -4.79426e-19)
(0.253054 0.26779 0)
(0.252778 0.260303 -2.16919e-18)
(0.252346 0.252499 3.2452e-20)
(0.251753 0.24437 2.0108e-18)
(0.250994 0.23591 -1.52692e-18)
(0.250062 0.227113 7.27997e-19)
(0.248951 0.217969 0)
(0.247655 0.208469 0)
(0.246166 0.198603 6.21011e-19)
(0.244476 0.188362 -3.56781e-20)
(0.242578 0.177733 -3.64232e-20)
(0.240464 0.166704 -5.78893e-19)
(0.238126 0.155263 0)
(0.235556 0.143398 1.02984e-18)
(0.232747 0.131095 9.88443e-19)
(0.229692 0.118342 -1.41139e-18)
(0.226384 0.105128 -8.87986e-19)
(0.222867 0.0916396 0)
(0.219246 0.0782678 -2.34339e-18)
(0.215589 0.0652192 1.90306e-18)
(0.211903 0.0525094 3.76365e-21)
(0.208207 0.0401593 -3.26751e-19)
(0.204505 0.028149 3.07879e-19)
(0.20079 0.0164151 2.89881e-19)
(0.197078 0.00493151 0)
(0.193381 -0.00630225 0)
(0.189703 -0.0172873 0)
(0.186048 -0.0280262 -8.4116e-19)
(0.18242 -0.0385234 -1.3815e-19)
(0.178823 -0.0487861 1.65958e-18)
(0.175262 -0.0588256 -7.84913e-19)
(0.17174 -0.0686576 -5.05495e-19)
(0.168265 -0.0783005 5.72537e-19)
(0.164841 -0.0877718 0)
(0.161478 -0.0970784 3.99806e-19)
(0.158187 -0.106206 -3.87435e-19)
(0.15498 -0.115112 0)
(0.151869 -0.123731 -6.29492e-20)
(0.148865 -0.132009 -1.83629e-19)
(0.145967 -0.139993 1.76161e-19)
(0.143147 -0.147855 -1.06528e-19)
(0.140392 -0.155703 1.03296e-19)
(0.137721 -0.163564 0)
(0.135134 -0.171464 -1.64187e-20)
(0.132635 -0.179423 1.24101e-20)
(0.130229 -0.18746 3.46689e-20)
(0.127919 -0.195585 -9.34578e-20)
(0.125711 -0.203806 6.18089e-20)
(0.164072 -0.105097 2.83386e-18)
(-0.0210371 -0.0602901 0)
(0.00767675 -0.0556375 -1.45337e-16)
(0.00851311 -0.0566297 1.15367e-16)
(0.00774652 -0.0566354 -1.02976e-22)
(0.00732633 -0.0563986 -1.65436e-18)
(0.00698653 -0.0560754 0)
(0.0066636 -0.0556717 -2.86973e-17)
(0.00636633 -0.0551694 2.53109e-17)
(0.00610505 -0.0545411 0)
(0.00589247 -0.0537451 1.22153e-18)
(0.00574766 -0.0527161 0)
(0.00569338 -0.0513581 6.30887e-23)
(0.0057813 -0.0495562 -1.78808e-17)
(0.00604689 -0.0471845 3.52527e-17)
(0.00655345 -0.044107 -1.72774e-17)
(0.00735161 -0.0401855 1.66107e-17)
(0.00851862 -0.0352897 -3.34977e-17)
(0.0101172 -0.0292988 1.4841e-17)
(0.0122171 -0.022113 8.6566e-19)
(0.0148852 -0.01366 -8.05614e-19)
(0.0181856 -0.0039001 -1.03876e-17)
(0.0221878 0.0071617 1.22764e-17)
(0.0270516 0.019528 1.24769e-18)
(0.0328874 0.0334072 1.14772e-18)
(0.0398941 0.0491958 -1.08181e-18)
(0.0484194 0.0674072 1.03423e-18)
(0.0586612 0.0883366 0)
(0.0705961 0.111894 -1.06284e-21)
(0.0840897 0.137487 1.18759e-21)
(0.0988101 0.164172 -7.83335e-19)
(0.114284 0.190824 0)
(0.12997 0.216313 0)
(0.145313 0.239686 9.84564e-18)
(0.159871 0.260204 -7.36079e-18)
(0.173385 0.277545 0)
(0.18551 0.291765 -6.87245e-18)
(0.19632 0.303222 1.12561e-17)
(0.206016 0.312211 -6.84083e-18)
(0.214551 0.319059 0)
(0.222005 0.324069 -6.05791e-18)
(0.228486 0.327444 5.12324e-18)
(0.234091 0.329366 1.20405e-18)
(0.238906 0.330023 -5.0907e-18)
(0.243022 0.329597 3.77001e-18)
(0.246528 0.328254 0)
(0.249512 0.326135 3.7916e-18)
(0.252051 0.323354 -4.51379e-18)
(0.254209 0.32 3.37002e-18)
(0.256041 0.316143 -2.41512e-18)
(0.257589 0.311837 -3.75645e-18)
(0.258885 0.307122 2.8701e-18)
(0.259957 0.302026 -6.75883e-19)
(0.260821 0.296572 1.8972e-18)
(0.261491 0.290775 -3.6163e-20)
(0.261977 0.284643 -2.31032e-18)
(0.262284 0.278184 0)
(0.262414 0.271399 -3.08718e-18)
(0.262369 0.264291 2.94742e-18)
(0.262147 0.256856 -1.89079e-18)
(0.261745 0.249092 0)
(0.261158 0.240995 8.48003e-19)
(0.260383 0.232557 2.41974e-18)
(0.259412 0.223772 7.40494e-19)
(0.258238 0.214631 -3.77653e-20)
(0.256855 0.205126 -7.2875e-19)
(0.255255 0.195246 2.66314e-18)
(0.253427 0.18498 -2.6215e-18)
(0.251365 0.174316 -1.23342e-18)
(0.249058 0.163241 2.31422e-18)
(0.246498 0.151742 -1.72164e-18)
(0.243676 0.139805 -2.14553e-18)
(0.240584 0.127418 3.01727e-18)
(0.237213 0.114568 -1.01069e-18)
(0.233609 0.101435 0)
(0.22988 0.0884024 -8.21543e-19)
(0.226099 0.0756728 8.54346e-19)
(0.222275 0.0632665 -2.60235e-18)
(0.218429 0.0512133 1.8037e-18)
(0.214568 0.0395088 -6.66179e-19)
(0.210681 0.0280808 -1.53337e-18)
(0.206781 0.0168943 7.5141e-20)
(0.202884 0.00594852 7.33e-20)
(0.198994 -0.00475704 1.07068e-18)
(0.195116 -0.0152242 1.16844e-18)
(0.191255 -0.0254565 -6.73247e-20)
(0.187418 -0.0354609 -6.42422e-19)
(0.183611 -0.045249 1.87639e-19)
(0.179843 -0.0548375 -6.43498e-19)
(0.176122 -0.0642476 7.8688e-19)
(0.172458 -0.0735031 0)
(0.168861 -0.0826237 4.45161e-19)
(0.165341 -0.0916128 -7.62678e-19)
(0.161913 -0.100446 3.6767e-19)
(0.158585 -0.109067 2.96968e-19)
(0.155362 -0.117397 -2.47471e-19)
(0.152267 -0.125383 2.27081e-20)
(0.149273 -0.133131 -1.02405e-19)
(0.146352 -0.140823 1.03099e-19)
(0.143516 -0.148527 8.51875e-21)
(0.140774 -0.156275 3.86097e-21)
(0.138131 -0.164095 0)
(0.135593 -0.172008 1.54738e-21)
(0.133165 -0.18003 -3.05167e-21)
(0.130853 -0.188171 -4.4015e-21)
(0.128661 -0.196434 1.86268e-19)
(0.126593 -0.204818 -1.96142e-19)
(0.165636 -0.100884 -9.21789e-17)
(-0.020639 -0.0583808 0)
(0.00838484 -0.0532254 1.62139e-16)
(0.00935138 -0.0544619 -1.23209e-16)
(0.00866692 -0.0546784 -2.67171e-18)
(0.00831871 -0.0546004 3.65577e-18)
(0.00803454 -0.0544252 4.22484e-17)
(0.00774978 -0.0541825 -3.36726e-17)
(0.00747179 -0.0538714 -1.66448e-18)
(0.00720653 -0.0534823 -2.41831e-17)
(0.00695932 -0.0529983 2.03055e-17)
(0.00673885 -0.0523929 1.17078e-18)
(0.00655909 -0.0516248 5.79462e-23)
(0.00644035 -0.0506291 1.09622e-18)
(0.00641232 -0.0493177 1.09e-18)
(0.00650756 -0.0475913 1.73443e-17)
(0.00678657 -0.0453401 -4.09281e-20)
(0.00729417 -0.0424351 -1.59048e-17)
(0.00808956 -0.0387415 0)
(0.00924774 -0.0341308 -9.76419e-19)
(0.0108343 -0.0284847 -1.28786e-17)
(0.0129188 -0.0217049 1.21005e-17)
(0.0155667 -0.0137221 1.28383e-17)
(0.0188358 -0.00449897 -1.19025e-17)
(0.0227821 0.00596241 0)
(0.0275187 0.0176453 1.24446e-18)
(0.0331959 0.0306609 0)
(0.0399061 0.0452601 1.05655e-18)
(0.0479407 0.0618495 2.00875e-18)
(0.0576044 0.0807982 -9.56962e-19)
(0.0688983 0.10214 9.02053e-19)
(0.0817589 0.125524 -1.68194e-18)
(0.0959614 0.150235 1.54948e-18)
(0.111117 0.175339 -1.27043e-17)
(0.126736 0.199816 1.03228e-17)
(0.142304 0.22275 0)
(0.157328 0.243404 8.41474e-18)
(0.171485 0.261204 -5.76322e-18)
(0.184492 0.276085 0)
(0.196208 0.288264 0)
(0.206769 0.298009 7.54404e-19)
(0.216246 0.305568 0)
(0.224633 0.31128 -6.73668e-19)
(0.232001 0.315333 0)
(0.238442 0.317879 -4.20721e-18)
(0.244034 0.319082 4.59267e-18)
(0.248855 0.319112 -1.08268e-18)
(0.252988 0.31813 1.01858e-18)
(0.256516 0.316283 0)
(0.259518 0.313691 -9.09283e-19)
(0.262064 0.310454 8.59083e-19)
(0.264212 0.306653 8.16052e-19)
(0.266012 0.302349 -4.13859e-21)
(0.267503 0.297591 0)
(0.268716 0.292415 2.04296e-18)
(0.269673 0.286847 -4.0578e-20)
(0.270392 0.280906 -2.4907e-18)
(0.270886 0.274607 1.16778e-18)
(0.271162 0.267957 -1.09476e-18)
(0.271225 0.260962 1.07223e-18)
(0.271077 0.253623 -1.98618e-18)
(0.270717 0.24594 2.85896e-18)
(0.270143 0.237909 -2.74129e-18)
(0.269349 0.229526 -2.57004e-18)
(0.26833 0.220784 1.66805e-18)
(0.26708 0.211677 -7.87937e-19)
(0.265591 0.202194 -2.94963e-18)
(0.263852 0.192327 1.46391e-18)
(0.261854 0.182061 -6.32354e-19)
(0.259588 0.171386 3.93812e-18)
(0.257043 0.160287 1.09423e-20)
(0.254209 0.148751 -1.07646e-20)
(0.251076 0.136762 -2.18671e-18)
(0.247635 0.124309 2.1157e-18)
(0.243932 0.111565 -3.05082e-18)
(0.24008 0.098899 -1.831e-18)
(0.236156 0.0865115 2.69156e-18)
(0.232176 0.0744267 -1.61032e-18)
(0.228159 0.0626833 3.85298e-18)
(0.224118 0.0513016 -1.13146e-18)
(0.220045 0.0402053 1.33375e-18)
(0.215934 0.0293456 -1.33877e-18)
(0.21181 0.0187182 -1.4852e-18)
(0.207678 0.00832214 8.90792e-19)
(0.203544 -0.00184469 7.58257e-19)
(0.199418 -0.0117863 -1.26298e-18)
(0.195312 -0.0215108 -2.23252e-19)
(0.191237 -0.0310322 3.7634e-19)
(0.187205 -0.0403682 -1.67621e-18)
(0.18323 -0.0495395 7.03223e-19)
(0.17932 -0.0585715 1.50129e-19)
(0.175484 -0.0674927 0)
(0.171729 -0.0763213 -5.58844e-20)
(0.168063 -0.0850519 3.58838e-19)
(0.164494 -0.093646 -3.83688e-19)
(0.161031 -0.102025 -2.02634e-19)
(0.157682 -0.110091 4.03566e-19)
(0.154466 -0.117807 -1.71937e-19)
(0.151348 -0.12534 1.08337e-19)
(0.148309 -0.13288 -1.01177e-19)
(0.145376 -0.140476 -5.09547e-20)
(0.142555 -0.148161 5.79234e-20)
(0.139854 -0.155961 -7.75679e-20)
(0.13728 -0.163894 6.34389e-20)
(0.134841 -0.171972 0)
(0.132541 -0.180198 5.66917e-21)
(0.130384 -0.188571 0)
(0.128371 -0.197084 -7.77104e-21)
(0.167023 -0.0968338 9.3577e-17)