/*--------------------------------*- C++ -*----------------------------------*\
  =========                 |
  \\      /  F ield         | OpenFOAM: The Open Source CFD Toolbox
   \\    /   O peration     | Website:  https://openfoam.org
    \\  /    A nd           | Version:  10
     \\/     M anipulation  |
\*---------------------------------------------------------------------------*/
FoamFile
{
    format      ascii;
    class       volScalarField;
    location    "47000";
    object      Co;
}
// * * * * * * * * * * * * * * * * * * * * * * * * * * * * * * * * * * * * * //

dimensions      [0 0 0 0 0 0 0];

internalField   nonuniform List<scalar> 
17808
(
6750.38
6247.48
6025.51
5874.27
5758.58
5664.89
5586
5517.72
5457.42
5403.34
5354.24
5309.21
5267.58
5228.82
5192.52
5158.35
5126.04
5095.37
5066.15
5038.23
5011.48
4985.79
4961.06
4937.2
4914.14
4891.82
4870.18
4849.16
4828.72
4808.82
4789.42
4770.5
4752.01
4733.93
4716.25
4698.92
4681.93
4665.27
4648.91
4632.84
4617.05
4601.5
4586.21
4571.14
4556.3
4541.66
4527.22
4512.97
4498.9
4485
4471.26
4457.68
4444.24
4430.95
4417.78
4404.74
4391.83
4379.02
4366.33
4353.74
4341.24
4328.84
4316.53
4304.3
4292.15
4280.07
4268.06
4256.11
4244.23
4232.4
4220.62
4208.89
4197.21
4185.57
4173.96
4162.38
4150.84
4139.31
4127.81
4116.33
4104.85
4093.39
4081.93
4070.47
4059.01
4047.54
4036.05
4024.55
4013.03
4001.49
3989.91
3978.29
6543.6
6049.6
5832.44
5686.35
5575.91
5487.11
5412.63
5348.26
5291.4
5240.33
5193.87
5151.17
5111.59
5074.66
5040.01
5007.32
4976.36
4946.93
4918.86
4892
4866.25
4841.49
4817.63
4794.6
4772.33
4750.76
4729.83
4709.49
4689.72
4670.45
4651.67
4633.33
4615.42
4597.89
4580.74
4563.94
4547.47
4531.3
4515.43
4499.84
4484.5
4469.42
4454.57
4439.94
4425.53
4411.32
4397.3
4383.46
4369.79
4356.29
4342.94
4329.75
4316.7
4303.78
4290.99
4278.32
4265.77
4253.34
4241
4228.77
4216.63
4204.58
4192.62
4180.73
4168.93
4157.19
4145.52
4133.92
4122.37
4110.88
4099.44
4088.04
4076.69
4065.38
4054.1
4042.85
4031.64
4020.44
4009.27
3998.11
3986.96
3975.83
3964.69
3953.56
3942.43
3931.28
3920.13
3908.96
3897.77
3886.55
3875.3
3864.02
6354.01
5873.93
5662.12
5519.12
5411.01
5324.21
5251.63
5189.12
5134.08
5084.78
5040.02
4998.94
4960.91
4925.43
4892.14
4860.74
4830.98
4802.68
4775.67
4749.82
4725.01
4701.15
4678.14
4655.92
4634.41
4613.58
4593.35
4573.69
4554.56
4535.92
4517.74
4499.98
4482.63
4465.66
4449.04
4432.75
4416.78
4401.11
4385.71
4370.59
4355.71
4341.07
4326.66
4312.47
4298.47
4284.68
4271.06
4257.63
4244.36
4231.24
4218.28
4205.47
4192.79
4180.24
4167.82
4155.52
4143.33
4131.24
4119.26
4107.38
4095.59
4083.88
4072.26
4060.71
4049.24
4037.84
4026.5
4015.23
4004.01
3992.84
3981.73
3970.66
3959.63
3948.64
3937.68
3926.76
3915.86
3904.98
3894.13
3883.29
3872.46
3861.64
3850.83
3840.01
3829.19
3818.37
3807.53
3796.68
3785.81
3774.91
3763.99
3753.03
6169.76
5703.2
5497.31
5358.34
5253.23
5168.76
5098.1
5037.26
4983.72
4935.81
4892.36
4852.54
4815.7
4781.39
4749.21
4718.87
4690.14
4662.83
4636.76
4611.81
4587.87
4564.84
4542.62
4521.16
4500.39
4480.26
4460.71
4441.7
4423.2
4405.16
4387.57
4370.38
4353.58
4337.14
4321.04
4305.26
4289.78
4274.59
4259.66
4244.99
4230.56
4216.36
4202.38
4188.61
4175.03
4161.64
4148.42
4135.38
4122.49
4109.76
4097.18
4084.74
4072.42
4060.24
4048.17
4036.22
4024.38
4012.65
4001.01
3989.46
3978.01
3966.64
3955.35
3944.13
3932.99
3921.91
3910.9
3899.94
3889.04
3878.2
3867.4
3856.64
3845.93
3835.25
3824.61
3813.99
3803.4
3792.84
3782.29
3771.76
3761.24
3750.73
3740.23
3729.72
3719.21
3708.7
3698.17
3687.63
3677.07
3666.48
3655.87
3645.23
5991.23
5537.64
5337.15
5201.98
5099.79
5017.72
4949.1
4890.04
4838.08
4791.61
4749.47
4710.87
4675.18
4641.95
4610.8
4581.44
4553.65
4527.24
4502.04
4477.92
4454.78
4432.51
4411.04
4390.3
4370.22
4350.75
4331.84
4313.46
4295.56
4278.11
4261.08
4244.45
4228.18
4212.26
4196.66
4181.37
4166.37
4151.64
4137.18
4122.95
4108.96
4095.19
4081.63
4068.26
4055.09
4042.1
4029.27
4016.61
4004.1
3991.75
3979.53
3967.45
3955.49
3943.66
3931.95
3920.34
3908.84
3897.44
3886.14
3874.92
3863.8
3852.75
3841.78
3830.89
3820.06
3809.3
3798.6
3787.96
3777.37
3766.84
3756.35
3745.9
3735.49
3725.12
3714.78
3704.46
3694.18
3683.92
3673.67
3663.44
3653.22
3643.01
3632.8
3622.6
3612.39
3602.18
3591.95
3581.71
3571.45
3561.17
3550.86
3540.52
5818.34
5377.64
5182.54
5051.05
4951.61
4871.77
4805.04
4747.63
4697.15
4652.02
4611.13
4573.68
4539.07
4506.85
4476.67
4448.23
4421.32
4395.75
4371.36
4348.02
4325.62
4304.08
4283.31
4263.24
4243.81
4224.98
4206.68
4188.89
4171.57
4154.68
4138.2
4122.09
4106.34
4090.92
4075.81
4061
4046.46
4032.19
4018.17
4004.38
3990.81
3977.46
3964.31
3951.34
3938.56
3925.96
3913.51
3901.23
3889.09
3877.1
3865.24
3853.51
3841.9
3830.41
3819.04
3807.77
3796.6
3785.53
3774.55
3763.66
3752.85
3742.13
3731.47
3720.89
3710.38
3699.92
3689.53
3679.19
3668.91
3658.67
3648.48
3638.33
3628.22
3618.14
3608.1
3598.08
3588.09
3578.12
3568.17
3558.23
3548.3
3538.38
3528.47
3518.55
3508.64
3498.71
3488.78
3478.83
3468.87
3458.88
3448.86
3438.82
5650.67
5222.59
5032.92
4905.09
4808.39
4730.74
4665.85
4610.01
4560.92
4517.05
4477.31
4440.92
4407.31
4376.04
4346.75
4319.16
4293.07
4268.27
4244.63
4222.02
4200.33
4179.46
4159.34
4139.91
4121.1
4102.86
4085.15
4067.93
4051.15
4034.8
4018.84
4003.24
3987.98
3973.04
3958.41
3944.06
3929.97
3916.14
3902.55
3889.18
3876.03
3863.08
3850.33
3837.75
3825.36
3813.13
3801.05
3789.13
3777.35
3765.71
3754.2
3742.82
3731.55
3720.4
3709.35
3698.41
3687.57
3676.82
3666.16
3655.58
3645.09
3634.67
3624.32
3614.04
3603.83
3593.68
3583.58
3573.54
3563.55
3553.61
3543.71
3533.85
3524.03
3514.24
3504.48
3494.75
3485.04
3475.36
3465.69
3456.04
3446.39
3436.76
3427.13
3417.49
3407.86
3398.22
3388.57
3378.91
3369.23
3359.52
3349.8
3340.04
5487.94
5072.13
4887.8
4763.55
4669.55
4594.07
4530.98
4476.7
4428.97
4386.32
4347.69
4312.33
4279.68
4249.29
4220.85
4194.07
4168.74
4144.68
4121.75
4099.82
4078.78
4058.55
4039.05
4020.22
4001.99
3984.32
3967.16
3950.47
3934.22
3918.38
3902.91
3887.8
3873.02
3858.55
3844.37
3830.46
3816.81
3803.4
3790.23
3777.27
3764.52
3751.96
3739.59
3727.4
3715.38
3703.51
3691.8
3680.23
3668.81
3657.51
3646.34
3635.29
3624.35
3613.53
3602.81
3592.18
3581.66
3571.22
3560.87
3550.6
3540.41
3530.29
3520.24
3510.26
3500.34
3490.48
3480.67
3470.92
3461.22
3451.56
3441.94
3432.36
3422.82
3413.32
3403.84
3394.38
3384.96
3375.55
3366.15
3356.78
3347.41
3338.05
3328.69
3319.34
3309.98
3300.62
3291.24
3281.85
3272.45
3263.03
3253.58
3244.1
5329.96
4926.08
4746.96
4626.21
4534.84
4461.48
4400.16
4347.39
4301.01
4259.55
4222.01
4187.64
4155.91
4126.4
4098.77
4072.76
4048.16
4024.81
4002.55
3981.27
3960.86
3941.23
3922.32
3904.06
3886.38
3869.25
3852.62
3836.44
3820.69
3805.33
3790.35
3775.7
3761.37
3747.35
3733.6
3720.12
3706.89
3693.89
3681.12
3668.56
3656.19
3644.02
3632.02
3620.2
3608.54
3597.03
3585.67
3574.44
3563.36
3552.4
3541.56
3530.83
3520.22
3509.71
3499.31
3488.99
3478.77
3468.64
3458.59
3448.62
3438.72
3428.9
3419.14
3409.44
3399.81
3390.23
3380.71
3371.24
3361.81
3352.43
3343.09
3333.79
3324.52
3315.29
3306.08
3296.9
3287.74
3278.6
3269.48
3260.37
3251.27
3242.17
3233.09
3224
3214.91
3205.81
3196.71
3187.59
3178.45
3169.3
3160.12
3150.91
5176.58
4784.3
4610.26
4492.92
4404.13
4332.84
4273.24
4221.96
4176.87
4136.58
4100.1
4066.7
4035.87
4007.19
3980.35
3955.09
3931.2
3908.52
3886.91
3866.24
3846.43
3827.39
3809.04
3791.32
3774.17
3757.56
3741.42
3725.74
3710.46
3695.57
3681.04
3666.84
3652.95
3639.35
3626.03
3612.96
3600.13
3587.53
3575.14
3562.96
3550.97
3539.16
3527.53
3516.06
3504.75
3493.59
3482.57
3471.68
3460.92
3450.29
3439.77
3429.36
3419.06
3408.86
3398.76
3388.75
3378.83
3368.99
3359.24
3349.56
3339.95
3330.41
3320.93
3311.52
3302.16
3292.86
3283.61
3274.42
3265.26
3256.15
3247.08
3238.04
3229.04
3220.07
3211.13
3202.21
3193.31
3184.43
3175.57
3166.72
3157.88
3149.05
3140.22
3131.4
3122.57
3113.73
3104.89
3096.03
3087.15
3078.26
3069.34
3060.4
5027.66
4646.64
4477.57
4363.55
4277.27
4207.99
4150.08
4100.24
4056.43
4017.28
3981.82
3949.37
3919.41
3891.54
3865.46
3840.92
3817.71
3795.68
3774.7
3754.63
3735.4
3716.91
3699.1
3681.9
3665.26
3649.13
3633.48
3618.26
3603.45
3589
3574.91
3561.14
3547.66
3534.48
3521.55
3508.88
3496.44
3484.22
3472.21
3460.39
3448.77
3437.32
3426.03
3414.91
3403.94
3393.11
3382.42
3371.85
3361.42
3351.1
3340.89
3330.79
3320.8
3310.9
3301.1
3291.38
3281.75
3272.2
3262.73
3253.33
3244
3234.74
3225.54
3216.4
3207.31
3198.28
3189.3
3180.37
3171.48
3162.63
3153.82
3145.04
3136.3
3127.59
3118.9
3110.24
3101.6
3092.97
3084.36
3075.77
3067.18
3058.6
3050.03
3041.45
3032.88
3024.29
3015.7
3007.1
2998.48
2989.84
2981.18
2972.49
4883.05
4512.98
4348.74
4237.96
4154.12
4086.81
4030.54
3982.11
3939.54
3901.49
3867.04
3835.5
3806.39
3779.31
3753.97
3730.13
3707.58
3686.19
3665.8
3646.31
3627.63
3609.68
3592.39
3575.69
3559.54
3543.89
3528.7
3513.93
3499.55
3485.54
3471.86
3458.5
3445.43
3432.64
3420.1
3407.81
3395.74
3383.89
3372.24
3360.78
3349.5
3338.39
3327.45
3316.66
3306.01
3295.51
3285.14
3274.89
3264.76
3254.75
3244.85
3235.05
3225.35
3215.74
3206.22
3196.8
3187.45
3178.18
3168.98
3159.86
3150.8
3141.81
3132.87
3124
3115.18
3106.41
3097.69
3089.01
3080.38
3071.79
3063.23
3054.71
3046.22
3037.75
3029.32
3020.9
3012.51
3004.13
2995.77
2987.42
2979.08
2970.75
2962.42
2954.09
2945.76
2937.42
2929.08
2920.72
2912.35
2903.95
2895.54
2887.1
4742.63
4383.19
4223.66
4116.02
4034.56
3969.17
3914.49
3867.44
3826.07
3789.1
3755.62
3724.98
3696.69
3670.38
3645.76
3622.6
3600.7
3579.91
3560.1
3541.18
3523.04
3505.6
3488.81
3472.59
3456.91
3441.72
3426.97
3412.63
3398.68
3385.08
3371.81
3358.84
3346.16
3333.75
3321.58
3309.66
3297.95
3286.45
3275.15
3264.03
3253.09
3242.31
3231.7
3221.23
3210.9
3200.71
3190.64
3180.7
3170.88
3161.16
3151.55
3142.04
3132.63
3123.31
3114.07
3104.92
3095.84
3086.85
3077.92
3069.06
3060.27
3051.54
3042.87
3034.25
3025.69
3017.17
3008.7
3000.28
2991.89
2983.55
2975.24
2966.96
2958.72
2950.5
2942.3
2934.13
2925.98
2917.84
2909.72
2901.61
2893.51
2885.42
2877.33
2869.24
2861.14
2853.04
2844.94
2836.82
2828.69
2820.54
2812.36
2804.17
4606.26
4257.15
4102.19
3997.61
3918.48
3854.94
3801.82
3756.11
3715.92
3679.99
3647.46
3617.69
3590.21
3564.65
3540.72
3518.22
3496.94
3476.75
3457.51
3439.12
3421.5
3404.57
3388.26
3372.51
3357.28
3342.53
3328.21
3314.29
3300.75
3287.54
3274.66
3262.08
3249.77
3237.72
3225.92
3214.34
3202.98
3191.83
3180.86
3170.07
3159.46
3149
3138.7
3128.54
3118.52
3108.63
3098.87
3089.22
3079.68
3070.26
3060.93
3051.7
3042.57
3033.52
3024.56
3015.67
3006.87
2998.13
2989.47
2980.87
2972.33
2963.86
2955.44
2947.07
2938.76
2930.49
2922.27
2914.09
2905.94
2897.84
2889.77
2881.73
2873.72
2865.74
2857.78
2849.85
2841.93
2834.03
2826.14
2818.26
2810.4
2802.54
2794.68
2786.82
2778.96
2771.09
2763.22
2755.33
2747.43
2739.51
2731.58
2723.61
4473.83
4134.76
3984.24
3882.64
3805.76
3744.04
3692.43
3648.01
3608.97
3574.06
3542.46
3513.53
3486.83
3461.99
3438.75
3416.89
3396.22
3376.6
3357.91
3340.05
3322.93
3306.48
3290.64
3275.35
3260.56
3246.23
3232.33
3218.81
3205.66
3192.84
3180.34
3168.12
3156.17
3144.48
3133.02
3121.79
3110.76
3099.93
3089.29
3078.82
3068.52
3058.37
3048.38
3038.52
3028.8
3019.2
3009.72
3000.36
2991.11
2981.96
2972.91
2963.95
2955.09
2946.31
2937.61
2928.99
2920.44
2911.96
2903.55
2895.2
2886.92
2878.69
2870.51
2862.39
2854.32
2846.29
2838.31
2830.36
2822.46
2814.59
2806.75
2798.95
2791.17
2783.42
2775.69
2767.98
2760.29
2752.62
2744.96
2737.31
2729.67
2722.03
2714.4
2706.76
2699.13
2691.49
2683.84
2676.18
2668.51
2660.82
2653.11
2645.37
4345.22
4015.89
3869.69
3771
3696.31
3636.34
3586.2
3543.05
3505.12
3471.21
3440.51
3412.4
3386.46
3362.33
3339.75
3318.51
3298.43
3279.37
3261.21
3243.86
3227.23
3211.25
3195.87
3181.01
3166.65
3152.74
3139.23
3126.11
3113.34
3100.89
3088.75
3076.89
3065.29
3053.93
3042.81
3031.91
3021.21
3010.7
3000.36
2990.2
2980.21
2970.36
2960.66
2951.09
2941.65
2932.34
2923.14
2914.06
2905.08
2896.2
2887.42
2878.73
2870.12
2861.6
2853.15
2844.79
2836.49
2828.26
2820.1
2811.99
2803.95
2795.96
2788.03
2780.14
2772.3
2764.51
2756.76
2749.04
2741.37
2733.73
2726.12
2718.54
2710.99
2703.46
2695.95
2688.47
2681
2673.55
2666.1
2658.68
2651.25
2643.84
2636.42
2629.01
2621.59
2614.17
2606.74
2599.3
2591.85
2584.38
2576.89
2569.38
4220.31
3900.45
3758.45
3662.57
3590.02
3531.76
3483.05
3441.14
3404.28
3371.34
3341.51
3314.21
3289
3265.56
3243.63
3222.99
3203.48
3184.96
3167.32
3150.47
3134.32
3118.8
3103.85
3089.42
3075.47
3061.96
3048.84
3036.1
3023.69
3011.61
2999.82
2988.3
2977.04
2966.01
2955.22
2944.63
2934.24
2924.04
2914.01
2904.15
2894.44
2884.88
2875.46
2866.18
2857.02
2847.98
2839.06
2830.24
2821.52
2812.9
2804.38
2795.94
2787.59
2779.32
2771.12
2763
2754.95
2746.96
2739.03
2731.17
2723.36
2715.61
2707.9
2700.25
2692.64
2685.07
2677.54
2670.05
2662.6
2655.18
2647.79
2640.43
2633.1
2625.79
2618.5
2611.23
2603.98
2596.74
2589.51
2582.3
2575.09
2567.89
2560.68
2553.48
2546.28
2539.07
2531.86
2524.63
4099.01
3788.34
3650.41
3557.28
3486.8
3430.2
3382.89
3342.17
3306.36
3274.36
3245.38
3218.86
3194.37
3171.6
3150.29
3130.24
3111.28
3093.3
3076.16
3059.79
3044.1
3029.02
3014.5
3000.49
2986.94
2973.81
2961.07
2948.7
2936.65
2924.91
2913.46
2902.28
2891.34
2880.64
2870.15
2859.87
2849.79
2839.88
2830.14
2820.57
2811.15
2801.87
2792.73
2783.72
2774.82
2766.05
2757.39
2748.83
2740.37
2732
2723.73
2715.54
2707.43
2699.4
2691.45
2683.56
2675.75
2667.99
2660.3
2652.66
2645.08
2637.55
2630.08
2622.64
2615.25
2607.91
2600.6
2593.33
2586.09
2578.89
2571.72
2564.57
2557.45
2550.35
2543.27
2536.21
2529.17
2522.14
2515.12
2508.11
2501.11
2494.11
2487.12
2480.13
2473.13
2466.13
2459.12
2452.1
3981.19
3679.45
3545.49
3455.03
3386.56
3331.58
3285.61
3246.05
3211.28
3180.19
3152.03
3126.27
3102.48
3080.36
3059.65
3040.18
3021.76
3004.29
2987.64
2971.74
2956.5
2941.85
2927.75
2914.13
2900.97
2888.22
2875.85
2863.83
2852.13
2840.73
2829.61
2818.74
2808.12
2797.73
2787.55
2777.57
2767.77
2758.16
2748.7
2739.41
2730.26
2721.25
2712.38
2703.63
2695
2686.48
2678.07
2669.76
2661.55
2653.43
2645.4
2637.45
2629.58
2621.78
2614.06
2606.41
2598.82
2591.29
2583.82
2576.41
2569.05
2561.74
2554.48
2547.27
2540.09
2532.96
2525.87
2518.81
2511.78
2504.79
2497.82
2490.88
2483.96
2477.07
2470.2
2463.34
2456.5
2449.68
2442.86
2436.05
2429.26
2422.46
2415.67
2408.88
2402.08
2395.28
2388.47
2381.66
3866.77
3573.71
3443.59
3355.72
3289.21
3235.8
3191.15
3152.72
3118.93
3088.73
3061.38
3036.36
3013.25
2991.75
2971.64
2952.72
2934.83
2917.86
2901.69
2886.24
2871.43
2857.2
2843.5
2830.28
2817.49
2805.11
2793.09
2781.41
2770.05
2758.98
2748.18
2737.63
2727.32
2717.22
2707.34
2697.64
2688.13
2678.79
2669.61
2660.59
2651.71
2642.96
2634.34
2625.85
2617.47
2609.2
2601.03
2592.97
2585
2577.11
2569.32
2561.6
2553.96
2546.39
2538.9
2531.47
2524.1
2516.79
2509.54
2502.35
2495.2
2488.11
2481.06
2474.05
2467.09
2460.16
2453.28
2446.42
2439.6
2432.81
2426.04
2419.3
2412.59
2405.9
2399.22
2392.56
2385.92
2379.29
2372.67
2366.06
2359.46
2352.86
2346.27
2339.67
2333.07
3755.64
3471
3344.62
3259.27
3194.66
3142.78
3099.4
3062.08
3029.26
2999.92
2973.35
2949.04
2926.59
2905.71
2886.17
2867.79
2850.42
2833.93
2818.22
2803.21
2788.82
2775.01
2761.7
2748.85
2736.43
2724.4
2712.73
2701.39
2690.35
2679.6
2669.1
2658.86
2648.84
2639.04
2629.44
2620.03
2610.79
2601.72
2592.81
2584.04
2575.42
2566.93
2558.56
2550.31
2542.18
2534.15
2526.22
2518.39
2510.65
2502.99
2495.42
2487.93
2480.52
2473.17
2465.89
2458.68
2451.53
2444.43
2437.4
2430.41
2423.47
2416.59
2409.74
2402.94
2396.18
2389.46
2382.77
2376.11
2369.49
2362.89
2356.33
2349.78
2343.26
2336.76
2330.28
2323.82
2317.37
2310.93
2304.5
2298.08
2291.67
2285.26
2278.86
2272.45
2266.04
3647.71
3371.25
3248.51
3165.6
3102.84
3052.44
3010.31
2974.05
2942.16
2913.67
2887.86
2864.24
2842.43
2822.15
2803.17
2785.32
2768.44
2752.42
2737.16
2722.58
2708.61
2695.18
2682.25
2669.78
2657.71
2646.03
2634.69
2623.67
2612.95
2602.51
2592.32
2582.37
2572.64
2563.12
2553.79
2544.65
2535.68
2526.87
2518.22
2509.71
2501.33
2493.08
2484.96
2476.95
2469.05
2461.26
2453.56
2445.95
2438.44
2431.01
2423.66
2416.39
2409.19
2402.05
2394.99
2387.99
2381.04
2374.15
2367.32
2360.54
2353.81
2347.12
2340.47
2333.87
2327.3
2320.78
2314.28
2307.82
2301.39
2294.99
2288.61
2282.26
2275.93
2269.61
2263.32
2257.04
2250.78
2244.53
2238.29
2232.05
2225.83
2219.6
2213.38
2207.16
2200.93
3542.88
3274.38
3155.16
3074.63
3013.67
2964.71
2923.78
2888.55
2857.58
2829.9
2804.83
2781.89
2760.7
2741
2722.57
2705.22
2688.83
2673.26
2658.44
2644.28
2630.71
2617.67
2605.11
2592.99
2581.27
2569.92
2558.9
2548.2
2537.79
2527.64
2517.75
2508.08
2498.63
2489.39
2480.33
2471.45
2462.74
2454.18
2445.78
2437.51
2429.38
2421.37
2413.48
2405.71
2398.04
2390.47
2382.99
2375.61
2368.31
2361.1
2353.96
2346.9
2339.91
2332.98
2326.12
2319.32
2312.58
2305.89
2299.26
2292.68
2286.14
2279.64
2273.19
2266.78
2260.41
2254.07
2247.76
2241.49
2235.25
2229.03
2222.84
2216.67
2210.52
2204.39
2198.28
2192.18
2186.1
2180.03
2173.97
2167.92
2161.87
2155.82
2149.78
2143.74
2137.69
3441.07
3180.28
3064.49
2986.27
2927.06
2879.5
2839.74
2805.52
2775.44
2748.55
2724.2
2701.91
2681.33
2662.2
2644.29
2627.44
2611.51
2596.39
2582
2568.24
2555.05
2542.39
2530.19
2518.41
2507.03
2496
2485.31
2474.91
2464.8
2454.94
2445.33
2435.94
2426.76
2417.78
2408.99
2400.36
2391.9
2383.59
2375.43
2367.4
2359.51
2351.73
2344.07
2336.51
2329.07
2321.71
2314.46
2307.29
2300.2
2293.2
2286.27
2279.41
2272.62
2265.9
2259.24
2252.64
2246.09
2239.6
2233.16
2226.76
2220.41
2214.11
2207.85
2201.62
2195.43
2189.28
2183.16
2177.07
2171
2164.96
2158.95
2152.96
2146.99
2141.04
2135.11
2129.19
2123.28
2117.39
2111.5
2105.62
2099.75
2093.88
2088.01
2082.14
2076.27
3342.19
3088.9
2976.43
2900.46
2842.94
2796.75
2758.12
2724.89
2695.66
2669.54
2645.89
2624.24
2604.25
2585.66
2568.26
2551.9
2536.42
2521.74
2507.75
2494.39
2481.58
2469.28
2457.43
2445.99
2434.94
2424.23
2413.83
2403.74
2393.91
2384.34
2375
2365.88
2356.97
2348.25
2339.7
2331.33
2323.11
2315.04
2307.11
2299.32
2291.65
2284.09
2276.65
2269.32
2262.08
2254.95
2247.9
2240.93
2234.05
2227.25
2220.52
2213.86
2207.27
2200.74
2194.28
2187.87
2181.51
2175.21
2168.95
2162.74
2156.58
2150.46
2144.38
2138.33
2132.32
2126.35
2120.4
2114.49
2108.6
2102.74
2096.9
2091.08
2085.29
2079.51
2073.75
2068
2062.26
2056.54
2050.82
2045.11
2039.41
2033.71
2028.01
2022.31
2016.61
3246.15
3000.14
2890.91
2817.11
2761.24
2716.37
2678.86
2646.57
2618.18
2592.81
2569.83
2548.8
2529.39
2511.33
2494.43
2478.53
2463.5
2449.24
2435.65
2422.67
2410.23
2398.28
2386.77
2375.66
2364.92
2354.52
2344.42
2334.61
2325.07
2315.77
2306.7
2297.85
2289.19
2280.71
2272.42
2264.28
2256.3
2248.46
2240.76
2233.19
2225.74
2218.41
2211.18
2204.06
2197.03
2190.1
2183.25
2176.49
2169.81
2163.21
2156.67
2150.21
2143.8
2137.46
2131.18
2124.96
2118.79
2112.67
2106.59
2100.56
2094.58
2088.64
2082.73
2076.86
2071.03
2065.22
2059.45
2053.71
2047.99
2042.3
2036.63
2030.98
2025.35
2019.74
2014.15
2008.57
2003
1997.44
1991.89
1986.34
1980.8
1975.27
1969.73
1964.2
1958.66
3152.87
2913.93
2807.84
2736.17
2681.9
2638.31
2601.87
2570.51
2542.93
2518.29
2495.97
2475.54
2456.68
2439.14
2422.72
2407.28
2392.68
2378.83
2365.63
2353.02
2340.94
2329.33
2318.14
2307.35
2296.92
2286.82
2277.01
2267.48
2258.21
2249.18
2240.37
2231.77
2223.36
2215.13
2207.07
2199.17
2191.42
2183.8
2176.33
2168.97
2161.74
2154.61
2147.59
2140.68
2133.85
2127.12
2120.47
2113.91
2107.42
2101
2094.66
2088.38
2082.16
2076.01
2069.91
2063.86
2057.87
2051.93
2046.03
2040.17
2034.36
2028.59
2022.86
2017.16
2011.49
2005.86
2000.25
1994.68
1989.13
1983.6
1978.09
1972.61
1967.14
1961.69
1956.26
1950.84
1945.43
1940.03
1934.64
1929.26
1923.88
1918.5
1913.13
1907.75
1902.37
3062.27
2830.21
2727.16
2657.55
2604.84
2562.5
2527.1
2496.63
2469.85
2445.91
2424.23
2404.39
2386.07
2369.03
2353.08
2338.08
2323.9
2310.44
2297.62
2285.37
2273.64
2262.36
2251.5
2241.02
2230.88
2221.07
2211.54
2202.29
2193.28
2184.51
2175.96
2167.6
2159.43
2151.44
2143.61
2135.93
2128.4
2121.01
2113.75
2106.6
2099.57
2092.66
2085.84
2079.12
2072.49
2065.95
2059.5
2053.12
2046.82
2040.59
2034.43
2028.33
2022.29
2016.32
2010.39
2004.52
1998.7
1992.93
1987.2
1981.52
1975.88
1970.27
1964.7
1959.17
1953.67
1948.2
1942.75
1937.34
1931.95
1926.58
1921.24
1915.91
1910.6
1905.31
1900.03
1894.77
1889.52
1884.28
1879.04
1873.81
1868.59
1863.37
1858.15
1852.93
1847.7
2974.28
2748.89
2648.8
2581.19
2529.99
2488.87
2454.48
2424.89
2398.87
2375.61
2354.55
2335.28
2317.49
2300.94
2285.45
2270.88
2257.1
2244.03
2231.58
2219.68
2208.28
2197.32
2186.77
2176.59
2166.75
2157.21
2147.96
2138.97
2130.23
2121.7
2113.39
2105.28
2097.34
2089.58
2081.97
2074.52
2067.2
2060.02
2052.97
2046.03
2039.2
2032.48
2025.86
2019.34
2012.9
2006.55
2000.28
1994.09
1987.97
1981.92
1975.93
1970.01
1964.15
1958.34
1952.59
1946.89
1941.24
1935.63
1930.07
1924.55
1919.07
1913.63
1908.22
1902.85
1897.51
1892.19
1886.91
1881.65
1876.41
1871.2
1866.01
1860.84
1855.69
1850.55
1845.42
1840.31
1835.21
1830.12
1825.04
1819.96
1814.89
1809.82
1804.75
1799.68
1794.61
2888.81
2669.9
2572.7
2507.02
2457.29
2417.35
2383.95
2355.2
2329.93
2307.34
2286.89
2268.16
2250.88
2234.8
2219.76
2205.6
2192.22
2179.53
2167.43
2155.87
2144.8
2134.16
2123.91
2114.02
2104.46
2095.2
2086.21
2077.48
2068.98
2060.71
2052.63
2044.75
2037.04
2029.5
2022.11
2014.87
2007.77
2000.79
1993.94
1987.2
1980.57
1974.05
1967.62
1961.28
1955.03
1948.86
1942.77
1936.75
1930.81
1924.93
1919.12
1913.37
1907.68
1902.04
1896.45
1890.92
1885.43
1879.98
1874.58
1869.22
1863.9
1858.62
1853.36
1848.15
1842.96
1837.8
1832.67
1827.56
1822.48
1817.42
1812.37
1807.35
1802.35
1797.36
1792.38
1787.42
1782.46
1777.52
1772.58
1767.65
1762.73
1757.8
1752.88
1747.96
1743.03
2805.8
2593.19
2498.78
2434.99
2386.69
2347.89
2315.45
2287.53
2262.98
2241.03
2221.16
2202.98
2186.19
2170.57
2155.96
2142.21
2129.21
2116.88
2105.13
2093.91
2083.15
2072.81
2062.86
2053.25
2043.96
2034.97
2026.24
2017.76
2009.51
2001.47
1993.62
1985.97
1978.48
1971.15
1963.98
1956.95
1950.05
1943.27
1936.61
1930.07
1923.63
1917.29
1911.04
1904.89
1898.82
1892.83
1886.91
1881.07
1875.3
1869.59
1863.95
1858.36
1852.83
1847.35
1841.93
1836.55
1831.22
1825.94
1820.69
1815.48
1810.32
1805.18
1800.08
1795.02
1789.98
1784.97
1779.98
1775.02
1770.09
1765.17
1760.28
1755.4
1750.54
1745.69
1740.86
1736.04
1731.23
1726.43
1721.64
1716.85
1712.06
1707.28
1702.5
1697.72
1692.93
2725.18
2518.68
2426.99
2365.03
2318.12
2280.43
2248.92
2221.79
2197.95
2176.63
2157.33
2139.67
2123.36
2108.19
2094
2080.64
2068.02
2056.04
2044.63
2033.72
2023.27
2013.23
2003.56
1994.23
1985.21
1976.47
1967.99
1959.76
1951.74
1943.93
1936.31
1928.87
1921.6
1914.49
1907.52
1900.69
1893.98
1887.4
1880.94
1874.58
1868.33
1862.17
1856.1
1850.12
1844.23
1838.41
1832.66
1826.99
1821.38
1815.84
1810.36
1804.93
1799.56
1794.24
1788.97
1783.75
1778.58
1773.44
1768.35
1763.29
1758.27
1753.29
1748.33
1743.41
1738.52
1733.65
1728.81
1724
1719.2
1714.43
1709.68
1704.94
1700.22
1695.52
1690.82
1686.14
1681.47
1676.81
1672.15
1667.5
1662.86
1658.21
1653.57
1648.92
1644.28
2646.88
2446.32
2357.26
2297.08
2251.51
2214.91
2184.3
2157.95
2134.79
2114.09
2095.34
2078.18
2062.34
2047.6
2033.82
2020.84
2008.58
1996.94
1985.86
1975.27
1965.12
1955.36
1945.97
1936.91
1928.15
1919.66
1911.42
1903.42
1895.64
1888.05
1880.65
1873.43
1866.36
1859.45
1852.68
1846.05
1839.54
1833.15
1826.87
1820.69
1814.62
1808.63
1802.74
1796.93
1791.21
1785.56
1779.98
1774.46
1769.02
1763.64
1758.31
1753.04
1747.83
1742.66
1737.54
1732.47
1727.44
1722.46
1717.51
1712.6
1707.73
1702.88
1698.07
1693.29
1688.54
1683.82
1679.12
1674.44
1669.78
1665.15
1660.53
1655.93
1651.35
1646.78
1642.22
1637.68
1633.14
1628.61
1624.09
1619.57
1615.06
1610.55
1606.04
1601.53
1597.02
2570.82
2376.03
2289.53
2231.09
2186.83
2151.27
2121.54
2095.95
2073.45
2053.34
2035.13
2018.46
2003.07
1988.76
1975.37
1962.77
1950.86
1939.55
1928.79
1918.5
1908.64
1899.16
1890.04
1881.24
1872.73
1864.48
1856.48
1848.71
1841.15
1833.78
1826.59
1819.57
1812.71
1806
1799.42
1792.98
1786.66
1780.45
1774.35
1768.35
1762.45
1756.64
1750.92
1745.28
1739.71
1734.22
1728.8
1723.45
1718.16
1712.93
1707.76
1702.64
1697.58
1692.56
1687.59
1682.67
1677.78
1672.94
1668.13
1663.37
1658.63
1653.93
1649.26
1644.62
1640
1635.41
1630.85
1626.31
1621.78
1617.28
1612.8
1608.33
1603.88
1599.44
1595.02
1590.6
1586.2
1581.8
1577.41
1573.02
1568.64
1564.26
1559.88
1555.5
1551.12
2496.96
2307.77
2223.75
2166.99
2124
2089.46
2060.58
2035.73
2013.87
1994.34
1976.65
1960.45
1945.51
1931.61
1918.6
1906.36
1894.79
1883.81
1873.35
1863.36
1853.78
1844.58
1835.72
1827.17
1818.9
1810.89
1803.12
1795.57
1788.23
1781.07
1774.09
1767.27
1760.61
1754.09
1747.7
1741.44
1735.3
1729.27
1723.34
1717.52
1711.79
1706.14
1700.58
1695.1
1689.7
1684.37
1679.11
1673.91
1668.77
1663.69
1658.67
1653.7
1648.78
1643.9
1639.08
1634.29
1629.55
1624.85
1620.18
1615.55
1610.95
1606.38
1601.85
1597.34
1592.86
1588.4
1583.97
1579.55
1575.16
1570.79
1566.44
1562.1
1557.77
1553.46
1549.17
1544.88
1540.6
1536.33
1532.06
1527.81
1523.55
1519.3
1515.04
1510.79
1506.53
2425.21
2241.46
2159.86
2104.73
2062.97
2029.43
2001.39
1977.24
1956.02
1937.04
1919.85
1904.13
1889.6
1876.1
1863.46
1851.57
1840.34
1829.67
1819.51
1809.81
1800.5
1791.57
1782.96
1774.65
1766.62
1758.84
1751.3
1743.96
1736.83
1729.88
1723.1
1716.47
1710
1703.67
1697.46
1691.38
1685.42
1679.56
1673.8
1668.15
1662.58
1657.1
1651.7
1646.38
1641.13
1635.95
1630.84
1625.79
1620.8
1615.86
1610.98
1606.16
1601.38
1596.65
1591.96
1587.31
1582.7
1578.14
1573.6
1569.1
1564.64
1560.2
1555.8
1551.42
1547.07
1542.74
1538.43
1534.15
1529.88
1525.64
1521.41
1517.19
1512.99
1508.81
1504.63
1500.47
1496.31
1492.17
1488.03
1483.89
1479.76
1475.62
1471.49
1467.36
2355.53
2177.06
2097.81
2044.26
2003.71
1971.13
1943.89
1920.44
1899.82
1881.39
1864.7
1849.42
1835.32
1822.2
1809.92
1798.37
1787.45
1777.09
1767.22
1757.8
1748.76
1740.08
1731.72
1723.65
1715.85
1708.29
1700.96
1693.84
1686.91
1680.16
1673.57
1667.14
1660.85
1654.7
1648.67
1642.77
1636.97
1631.28
1625.69
1620.2
1614.79
1609.46
1604.22
1599.05
1593.95
1588.92
1583.96
1579.05
1574.2
1569.41
1564.67
1559.98
1555.34
1550.75
1546.19
1541.68
1537.21
1532.77
1528.37
1524
1519.66
1515.35
1511.07
1506.82
1502.59
1498.39
1494.21
1490.04
1485.9
1481.78
1477.67
1473.58
1469.5
1465.44
1461.38
1457.34
1453.3
1449.27
1445.25
1441.23
1437.22
1433.21
1429.19
1425.18
2287.84
2114.51
2037.54
1985.53
1946.15
1914.51
1888.05
1865.27
1845.25
1827.34
1811.13
1796.29
1782.59
1769.85
1757.93
1746.71
1736.1
1726.03
1716.45
1707.28
1698.5
1690.07
1681.95
1674.11
1666.54
1659.2
1652.08
1645.16
1638.43
1631.87
1625.47
1619.22
1613.11
1607.14
1601.29
1595.55
1589.92
1584.39
1578.96
1573.62
1568.37
1563.2
1558.11
1553.09
1548.13
1543.25
1538.42
1533.66
1528.95
1524.3
1519.7
1515.14
1510.63
1506.17
1501.74
1497.36
1493.02
1488.71
1484.43
1480.19
1475.97
1471.79
1467.63
1463.5
1459.4
1455.31
1451.25
1447.21
1443.19
1439.18
1435.19
1431.22
1427.26
1423.31
1419.37
1415.44
1411.52
1407.61
1403.71
1399.8
1395.9
1392.01
1388.11
1384.21
2222.11
2053.76
1979
1928.49
1890.24
1859.51
1833.81
1811.69
1792.24
1774.85
1759.1
1744.69
1731.39
1719.01
1707.43
1696.53
1686.23
1676.45
1667.14
1658.24
1649.71
1641.52
1633.63
1626.01
1618.65
1611.52
1604.6
1597.88
1591.34
1584.97
1578.75
1572.68
1566.75
1560.95
1555.26
1549.69
1544.22
1538.85
1533.58
1528.39
1523.29
1518.27
1513.32
1508.44
1503.63
1498.89
1494.2
1489.58
1485
1480.48
1476.01
1471.59
1467.21
1462.87
1458.57
1454.32
1450.1
1445.91
1441.76
1437.64
1433.54
1429.48
1425.44
1421.43
1417.44
1413.48
1409.53
1405.61
1401.7
1397.81
1393.94
1390.08
1386.23
1382.39
1378.57
1374.75
1370.95
1367.15
1363.35
1359.56
1355.78
1351.99
1348.21
1344.42
2158.26
1994.76
1922.15
1873.09
1835.93
1806.09
1781.13
1759.64
1740.75
1723.86
1708.57
1694.57
1681.65
1669.63
1658.38
1647.79
1637.79
1628.29
1619.25
1610.61
1602.32
1594.37
1586.7
1579.31
1572.15
1565.23
1558.51
1551.98
1545.62
1539.43
1533.39
1527.5
1521.73
1516.09
1510.57
1505.15
1499.84
1494.62
1489.5
1484.46
1479.51
1474.63
1469.82
1465.08
1460.41
1455.8
1451.25
1446.76
1442.32
1437.93
1433.58
1429.29
1425.03
1420.82
1416.65
1412.51
1408.41
1404.35
1400.31
1396.31
1392.33
1388.39
1384.47
1380.57
1376.7
1372.84
1369.01
1365.2
1361.4
1357.63
1353.86
1350.11
1346.38
1342.65
1338.94
1335.23
1331.54
1327.85
1324.16
1320.48
1316.8
1313.13
1309.45
1305.77
2096.25
1937.45
1866.93
1819.28
1783.19
1754.2
1729.96
1709.09
1690.74
1674.34
1659.49
1645.89
1633.34
1621.66
1610.74
1600.46
1590.74
1581.52
1572.74
1564.34
1556.3
1548.57
1541.13
1533.94
1527
1520.27
1513.74
1507.4
1501.23
1495.22
1489.35
1483.62
1478.03
1472.55
1467.18
1461.92
1456.76
1451.7
1446.72
1441.83
1437.01
1432.27
1427.6
1423
1418.46
1413.98
1409.56
1405.19
1400.87
1396.61
1392.39
1388.21
1384.08
1379.99
1375.94
1371.92
1367.93
1363.99
1360.07
1356.18
1352.32
1348.48
1344.67
1340.89
1337.13
1333.39
1329.67
1325.96
1322.28
1318.61
1314.95
1311.31
1307.69
1304.07
1300.46
1296.86
1293.28
1289.69
1286.11
1282.54
1278.97
1275.4
1271.84
1268.27
2036.01
1881.79
1813.29
1767.01
1731.97
1703.81
1680.26
1660
1642.17
1626.24
1611.82
1598.61
1586.42
1575.08
1564.47
1554.48
1545.05
1536.09
1527.56
1519.41
1511.59
1504.09
1496.86
1489.88
1483.14
1476.6
1470.26
1464.1
1458.11
1452.27
1446.57
1441.01
1435.57
1430.25
1425.04
1419.94
1414.92
1410
1405.17
1400.42
1395.74
1391.14
1386.6
1382.13
1377.72
1373.37
1369.08
1364.84
1360.65
1356.5
1352.4
1348.35
1344.34
1340.36
1336.42
1332.52
1328.65
1324.82
1321.01
1317.24
1313.49
1309.76
1306.06
1302.39
1298.73
1295.1
1291.49
1287.89
1284.31
1280.75
1277.2
1273.66
1270.14
1266.63
1263.12
1259.63
1256.14
1252.66
1249.19
1245.72
1242.25
1238.79
1235.32
1231.86
1977.51
1827.72
1761.2
1716.25
1682.21
1654.87
1632
1612.31
1595
1579.53
1565.51
1552.69
1540.85
1529.83
1519.53
1509.83
1500.67
1491.97
1483.68
1475.76
1468.17
1460.88
1453.86
1447.09
1440.54
1434.19
1428.03
1422.05
1416.23
1410.56
1405.03
1399.62
1394.34
1389.18
1384.12
1379.15
1374.29
1369.51
1364.81
1360.2