/*--------------------------------*- C++ -*----------------------------------*\
  =========                 |
  \\      /  F ield         | OpenFOAM: The Open Source CFD Toolbox
   \\    /   O peration     | Website:  https://openfoam.org
    \\  /    A nd           | Version:  10
     \\/     M anipulation  |
\*---------------------------------------------------------------------------*/
FoamFile
{
    format      ascii;
    class       volScalarField;
    location    "47000";
    object      nut;
}
// * * * * * * * * * * * * * * * * * * * * * * * * * * * * * * * * * * * * * //

dimensions      [0 2 -1 0 0 0 0];

internalField   nonuniform List<scalar> 
17808
(
2.88524e-06
2.11084e-05
3.6775e-05
5.20398e-05
6.81424e-05
8.48171e-05
0.000101948
0.000119477
0.000137371
0.000155612
0.000174187
0.000193091
0.00021232
0.000231872
0.000251748
0.000271948
0.000292475
0.000313332
0.00033452
0.000356045
0.000377909
0.000400117
0.000422674
0.000445583
0.000468849
0.000492478
0.000516474
0.000540842
0.000565589
0.000590718
0.000616236
0.000642149
0.000668462
0.00069518
0.00072231
0.000749857
0.000777828
0.000806228
0.000835064
0.000864341
0.000894065
0.000924243
0.00095488
0.000985984
0.00101756
0.00104961
0.00108215
0.00111517
0.00114869
0.00118272
0.00121725
0.00125229
0.00128785
0.00132393
0.00136053
0.00139768
0.00143535
0.00147357
0.00151234
0.00155165
0.00159152
0.00163194
0.00167292
0.00171446
0.00175656
0.00179922
0.00184243
0.00188621
0.00193054
0.00197542
0.00202086
0.00206685
0.00211338
0.00216045
0.00220805
0.00225617
0.00230481
0.00235395
0.00240358
0.00245369
0.00250426
0.00255527
0.0026067
0.00265853
0.00271075
0.00276331
0.0028162
0.00286938
0.00292282
0.00297647
0.00303031
0.00308429
2.87552e-06
2.14013e-05
3.6758e-05
5.20243e-05
6.81235e-05
8.47949e-05
0.000101923
0.000119449
0.000137341
0.00015558
0.000174154
0.000193057
0.000212285
0.000231837
0.000251713
0.000271913
0.000292441
0.000313297
0.000334487
0.000356012
0.000377876
0.000400085
0.000422642
0.000445551
0.000468818
0.000492448
0.000516444
0.000540813
0.00056556
0.00059069
0.000616209
0.000642123
0.000668436
0.000695155
0.000722285
0.000749833
0.000777805
0.000806205
0.000835041
0.000864319
0.000894044
0.000924222
0.00095486
0.000985964
0.00101754
0.00104959
0.00108213
0.00111516
0.00114868
0.0011827
0.00121723
0.00125227
0.00128783
0.00132391
0.00136052
0.00139766
0.00143534
0.00147356
0.00151232
0.00155164
0.00159151
0.00163193
0.00167291
0.00171445
0.00175655
0.00179921
0.00184242
0.0018862
0.00193053
0.00197541
0.00202085
0.00206684
0.00211337
0.00216044
0.00220804
0.00225617
0.00230481
0.00235395
0.00240358
0.00245369
0.00250425
0.00255527
0.0026067
0.00265853
0.00271075
0.00276331
0.0028162
0.00286938
0.00292282
0.00297648
0.00303032
0.00308429
2.87074e-06
2.14691e-05
3.67369e-05
5.20043e-05
6.81016e-05
8.47719e-05
0.000101899
0.000119424
0.000137315
0.000155553
0.000174127
0.000193029
0.000212257
0.000231809
0.000251685
0.000271886
0.000292413
0.00031327
0.000334459
0.000355985
0.00037785
0.000400059
0.000422616
0.000445526
0.000468793
0.000492423
0.00051642
0.00054079
0.000565537
0.000590668
0.000616187
0.000642101
0.000668415
0.000695134
0.000722265
0.000749813
0.000777785
0.000806186
0.000835023
0.000864301
0.000894026
0.000924205
0.000954844
0.000985948
0.00101752
0.00104958
0.00108211
0.00111514
0.00114866
0.00118269
0.00121722
0.00125226
0.00128782
0.0013239
0.00136051
0.00139765
0.00143533
0.00147355
0.00151232
0.00155163
0.0015915
0.00163192
0.0016729
0.00171444
0.00175654
0.0017992
0.00184242
0.00188619
0.00193052
0.00197541
0.00202085
0.00206684
0.00211337
0.00216044
0.00220804
0.00225617
0.00230481
0.00235395
0.00240358
0.00245369
0.00250426
0.00255527
0.0026067
0.00265854
0.00271075
0.00276332
0.00281621
0.00286939
0.00292283
0.00297649
0.00303033
0.0030843
2.86995e-06
2.14502e-05
3.67219e-05
5.19872e-05
6.80824e-05
8.47516e-05
0.000101878
0.000119402
0.000137292
0.000155529
0.000174103
0.000193005
0.000212233
0.000231785
0.00025166
0.000271861
0.000292389
0.000313246
0.000334436
0.000355962
0.000377827
0.000400036
0.000422594
0.000445504
0.000468772
0.000492402
0.000516399
0.000540769
0.000565517
0.000590648
0.000616168
0.000642082
0.000668396
0.000695116
0.000722247
0.000749796
0.000777768
0.00080617
0.000835007
0.000864285
0.000894011
0.00092419
0.000954829
0.000985934
0.00101751
0.00104956
0.0010821
0.00111513
0.00114865
0.00118268
0.00121721
0.00125225
0.00128781
0.00132389
0.0013605
0.00139764
0.00143532
0.00147354
0.00151231
0.00155162
0.00159149
0.00163191
0.0016729
0.00171444
0.00175654
0.0017992
0.00184241
0.00188619
0.00193052
0.00197541
0.00202085
0.00206684
0.00211337
0.00216044
0.00220804
0.00225617
0.00230481
0.00235395
0.00240358
0.00245369
0.00250426
0.00255527
0.00260671
0.00265854
0.00271076
0.00276332
0.00281621
0.0028694
0.00292283
0.00297649
0.00303033
0.00308431
2.86968e-06
2.1442e-05
3.67131e-05
5.19754e-05
6.80696e-05
8.47379e-05
0.000101863
0.000119386
0.000137275
0.000155511
0.000174084
0.000192985
0.000212213
0.000231764
0.00025164
0.000271841
0.000292368
0.000313226
0.000334416
0.000355942
0.000377807
0.000400017
0.000422575
0.000445485
0.000468753
0.000492384
0.000516381
0.000540752
0.0005655
0.000590631
0.000616151
0.000642066
0.00066838
0.0006951
0.000722232
0.000749781
0.000777753
0.000806155
0.000834992
0.000864271
0.000893997
0.000924177
0.000954816
0.000985921
0.0010175
0.00104955
0.00108209
0.00111512
0.00114864
0.00118266
0.00121719
0.00125224
0.0012878
0.00132388
0.00136049
0.00139763
0.00143531
0.00147353
0.0015123
0.00155162
0.00159148
0.00163191
0.00167289
0.00171443
0.00175653
0.00179919
0.00184241
0.00188618
0.00193052
0.0019754
0.00202084
0.00206683
0.00211337
0.00216044
0.00220804
0.00225617
0.00230481
0.00235395
0.00240358
0.00245369
0.00250426
0.00255528
0.00260671
0.00265855
0.00271076
0.00276333
0.00281622
0.0028694
0.00292284
0.0029765
0.00303034
0.00308432
2.86935e-06
2.14391e-05
3.67072e-05
5.19663e-05
6.80598e-05
8.47272e-05
0.000101851
0.000119373
0.000137262
0.000155497
0.000174068
0.000192969
0.000212196
0.000231747
0.000251622
0.000271823
0.000292351
0.000313208
0.000334398
0.000355924
0.00037779
0.0004
0.000422558
0.000445469
0.000468737
0.000492368
0.000516366
0.000540736
0.000565484
0.000590616
0.000616136
0.000642051
0.000668366
0.000695086
0.000722218
0.000749767
0.00077774
0.000806142
0.00083498
0.000864259
0.000893985
0.000924165
0.000954804
0.00098591
0.00101749
0.00104954
0.00108208
0.00111511
0.00114863
0.00118265
0.00121719
0.00125223
0.00128779
0.00132387
0.00136048
0.00139763
0.00143531
0.00147353
0.00151229
0.00155161
0.00159148
0.0016319
0.00167289
0.00171443
0.00175653
0.00179919
0.0018424
0.00188618
0.00193051
0.0019754
0.00202084
0.00206683
0.00211337
0.00216044
0.00220804
0.00225617
0.00230481
0.00235395
0.00240359
0.0024537
0.00250427
0.00255528
0.00260671
0.00265855
0.00271077
0.00276334
0.00281623
0.00286941
0.00292285
0.00297651
0.00303035
0.00308433
2.86929e-06
2.1435e-05
3.67028e-05
5.19587e-05
6.80514e-05
8.4718e-05
0.000101841
0.000119363
0.00013725
0.000155485
0.000174055
0.000192955
0.000212182
0.000231732
0.000251607
0.000271808
0.000292335
0.000313192
0.000334382
0.000355909
0.000377775
0.000399984
0.000422543
0.000445454
0.000468722
0.000492353
0.000516351
0.000540722
0.000565471
0.000590603
0.000616123
0.000642038
0.000668353
0.000695074
0.000722206
0.000749755
0.000777728
0.000806131
0.000834968
0.000864248
0.000893974
0.000924154
0.000954794
0.0009859
0.00101748
0.00104953
0.00108207
0.0011151
0.00114862
0.00118265
0.00121718
0.00125222
0.00128778
0.00132387
0.00136048
0.00139762
0.0014353
0.00147352
0.00151229
0.00155161
0.00159147
0.0016319
0.00167288
0.00171442
0.00175652
0.00179918
0.0018424
0.00188618
0.00193051
0.0019754
0.00202084
0.00206683
0.00211337
0.00216044
0.00220804
0.00225617
0.00230481
0.00235395
0.00240359
0.0024537
0.00250427
0.00255528
0.00260672
0.00265856
0.00271077
0.00276334
0.00281623
0.00286942
0.00292286
0.00297652
0.00303036
0.00308434
2.86949e-06
2.14315e-05
3.66999e-05
5.19525e-05
6.80442e-05
8.47099e-05
0.000101833
0.000119354
0.00013724
0.000155474
0.000174044
0.000192943
0.000212169
0.000231719
0.000251594
0.000271794
0.000292321
0.000313178
0.000334368
0.000355895
0.000377761
0.000399971
0.000422529
0.00044544
0.000468709
0.00049234
0.000516338
0.000540709
0.000565458
0.00059059
0.000616111
0.000642026
0.000668342
0.000695062
0.000722195
0.000749745
0.000777718
0.00080612
0.000834958
0.000864238
0.000893965
0.000924145
0.000954785
0.000985891
0.00101747
0.00104952
0.00108206
0.00111509
0.00114861
0.00118264
0.00121717
0.00125221
0.00128778
0.00132386
0.00136047
0.00139761
0.00143529
0.00147352
0.00151228
0.0015516
0.00159147
0.00163189
0.00167288
0.00171442
0.00175652
0.00179918
0.0018424
0.00188617
0.00193051
0.0019754
0.00202084
0.00206683
0.00211337
0.00216044
0.00220804
0.00225617
0.00230481
0.00235396
0.00240359
0.0024537
0.00250427
0.00255529
0.00260672
0.00265856
0.00271078
0.00276335
0.00281624
0.00286942
0.00292286
0.00297653
0.00303037
0.00308435
2.86981e-06
2.14294e-05
3.66981e-05
5.19477e-05
6.80381e-05
8.47031e-05
0.000101825
0.000119346
0.000137232
0.000155465
0.000174034
0.000192933
0.000212158
0.000231708
0.000251582
0.000271782
0.000292309
0.000313166
0.000334356
0.000355882
0.000377748
0.000399958
0.000422517
0.000445428
0.000468697
0.000492328
0.000516327
0.000540698
0.000565447
0.000590579
0.0006161
0.000642016
0.000668331
0.000695052
0.000722185
0.000749735
0.000777708
0.000806111
0.00083495
0.000864229
0.000893956
0.000924137
0.000954777
0.000985883
0.00101746
0.00104952
0.00108206
0.00111508
0.00114861
0.00118263
0.00121716
0.00125221
0.00128777
0.00132385
0.00136047
0.00139761
0.00143529
0.00147351
0.00151228
0.0015516
0.00159147
0.00163189
0.00167287
0.00171441
0.00175651
0.00179917
0.00184239
0.00188617
0.00193051
0.0019754
0.00202084
0.00206683
0.00211337
0.00216044
0.00220804
0.00225617
0.00230481
0.00235396
0.00240359
0.0024537
0.00250428
0.00255529
0.00260673
0.00265857
0.00271079
0.00276335
0.00281625
0.00286943
0.00292287
0.00297653
0.00303038
0.00308436
2.87015e-06
2.14281e-05
3.66974e-05
5.19441e-05
6.8033e-05
8.46971e-05
0.000101819
0.000119339
0.000137225
0.000155457
0.000174026
0.000192924
0.000212149
0.000231698
0.000251572
0.000271771
0.000292298
0.000313155
0.000334344
0.00035587
0.000377737
0.000399947
0.000422505
0.000445417
0.000468686
0.000492317
0.000516316
0.000540687
0.000565437
0.000590569
0.00061609
0.000642006
0.000668322
0.000695043
0.000722176
0.000749726
0.0007777
0.000806103
0.000834941
0.000864221
0.000893949
0.000924129
0.00095477
0.000985876
0.00101745
0.00104951
0.00108205
0.00111508
0.0011486
0.00118263
0.00121716
0.0012522
0.00128776
0.00132385
0.00136046
0.0013976
0.00143529
0.00147351
0.00151228
0.00155159
0.00159146
0.00163189
0.00167287
0.00171441
0.00175651
0.00179917
0.00184239
0.00188617
0.0019305
0.0019754
0.00202084
0.00206683
0.00211337
0.00216044
0.00220805
0.00225617
0.00230482
0.00235396
0.0024036
0.00245371
0.00250428
0.0025553
0.00260673
0.00265857
0.00271079
0.00276336
0.00281625
0.00286944
0.00292288
0.00297654
0.00303039
0.00308436
2.87052e-06
2.14274e-05
3.66973e-05
5.19414e-05
6.80287e-05
8.4692e-05
0.000101813
0.000119333
0.000137218
0.00015545
0.000174019
0.000192916
0.00021214
0.000231689
0.000251562
0.000271761
0.000292288
0.000313145
0.000334334
0.00035586
0.000377726
0.000399936
0.000422495
0.000445406
0.000468675
0.000492307
0.000516306
0.000540677
0.000565427
0.00059056
0.000616081
0.000641997
0.000668313
0.000695034
0.000722167
0.000749718
0.000777692
0.000806095
0.000834934
0.000864214
0.000893942
0.000924123
0.000954763
0.00098587
0.00101745
0.0010495
0.00108204
0.00111507
0.0011486
0.00118262
0.00121715
0.0012522
0.00128776
0.00132384
0.00136046
0.0013976
0.00143528
0.00147351
0.00151227
0.00155159
0.00159146
0.00163189
0.00167287
0.00171441
0.00175651
0.00179917
0.00184239
0.00188617
0.0019305
0.00197539
0.00202084
0.00206683
0.00211337
0.00216044
0.00220805
0.00225618
0.00230482
0.00235396
0.0024036
0.00245371
0.00250428
0.0025553
0.00260674
0.00265858
0.0027108
0.00276337
0.00281626
0.00286945
0.00292289
0.00297655
0.00303039
0.00308437
2.87089e-06
2.1427e-05
3.66979e-05
5.19396e-05
6.80251e-05
8.46875e-05
0.000101808
0.000119328
0.000137212
0.000155444
0.000174012
0.000192909
0.000212133
0.000231681
0.000251554
0.000271753
0.000292279
0.000313136
0.000334325
0.000355851
0.000377717
0.000399927
0.000422485
0.000445397
0.000468666
0.000492298
0.000516297
0.000540668
0.000565418
0.000590551
0.000616073
0.000641989
0.000668305
0.000695026
0.00072216
0.000749711
0.000777685
0.000806088
0.000834927
0.000864207
0.000893935
0.000924117
0.000954758
0.000985864
0.00101744
0.0010495
0.00108204
0.00111507
0.00114859
0.00118262
0.00121715
0.00125219
0.00128776
0.00132384
0.00136045
0.0013976
0.00143528
0.0014735
0.00151227
0.00155159
0.00159146
0.00163189
0.00167287
0.00171441
0.00175651
0.00179917
0.00184239
0.00188617
0.0019305
0.00197539
0.00202084
0.00206683
0.00211337
0.00216044
0.00220805
0.00225618
0.00230482
0.00235397
0.0024036
0.00245372
0.00250429
0.00255531
0.00260674
0.00265859
0.0027108
0.00276338
0.00281627
0.00286945
0.0029229
0.00297656
0.0030304
0.00308438
2.87126e-06
2.1427e-05
3.6699e-05
5.19386e-05
6.80223e-05
8.46836e-05
0.000101804
0.000119323
0.000137207
0.000155439
0.000174006
0.000192903
0.000212126
0.000231674
0.000251547
0.000271745
0.000292271
0.000313127
0.000334317
0.000355842
0.000377708
0.000399918
0.000422477
0.000445388
0.000468657
0.000492289
0.000516288
0.00054066
0.00056541
0.000590543
0.000616065
0.000641981
0.000668297
0.000695019
0.000722153
0.000749704
0.000777678
0.000806082
0.000834921
0.000864201
0.000893929
0.000924111
0.000954752
0.000985859
0.00101744
0.00104949
0.00108203
0.00111506
0.00114859
0.00118261
0.00121715
0.00125219
0.00128775
0.00132384
0.00136045
0.0013976
0.00143528
0.0014735
0.00151227
0.00155159
0.00159146
0.00163188
0.00167287
0.00171441
0.00175651
0.00179917
0.00184239
0.00188617
0.0019305
0.0019754
0.00202084
0.00206683
0.00211337
0.00216045
0.00220805
0.00225618
0.00230483
0.00235397
0.00240361
0.00245372
0.0025043
0.00255531
0.00260675
0.00265859
0.00271081
0.00276338
0.00281628
0.00286946
0.00292291
0.00297657
0.00303041
0.0030844
2.87161e-06
2.14273e-05
3.67005e-05
5.19382e-05
6.80202e-05
8.46804e-05
0.0001018
0.000119318
0.000137203
0.000155434
0.000174001
0.000192898
0.00021212
0.000231668
0.00025154
0.000271738
0.000292264
0.00031312
0.000334309
0.000355835
0.0003777
0.00039991
0.000422469
0.00044538
0.000468649
0.000492281
0.00051628
0.000540652
0.000565402
0.000590535
0.000616057
0.000641974
0.00066829
0.000695012
0.000722146
0.000749697
0.000777672
0.000806076
0.000834915
0.000864196
0.000893924
0.000924106
0.000954747
0.000985854
0.00101743
0.00104949
0.00108203
0.00111506
0.00114858
0.00118261
0.00121714
0.00125219
0.00128775
0.00132384
0.00136045
0.00139759
0.00143528
0.0014735
0.00151227
0.00155159
0.00159146
0.00163188
0.00167287
0.00171441
0.00175651
0.00179917
0.00184239
0.00188617
0.0019305
0.0019754
0.00202084
0.00206683
0.00211337
0.00216045
0.00220806
0.00225619
0.00230483
0.00235398
0.00240361
0.00245373
0.0025043
0.00255532
0.00260676
0.0026586
0.00271082
0.00276339
0.00281629
0.00286947
0.00292292
0.00297658
0.00303042
0.00308441
2.87194e-06
2.14278e-05
3.67024e-05
5.19383e-05
6.80186e-05
8.46777e-05
0.000101797
0.000119315
0.000137199
0.00015543
0.000173996
0.000192893
0.000212115
0.000231662
0.000251534
0.000271732
0.000292257
0.000313113
0.000334302
0.000355828
0.000377693
0.000399903
0.000422462
0.000445373
0.000468642
0.000492274
0.000516273
0.000540645
0.000565395
0.000590528
0.00061605
0.000641967
0.000668283
0.000695006
0.00072214
0.000749691
0.000777666
0.00080607
0.00083491
0.00086419
0.000893919
0.000924101
0.000954743
0.00098585
0.00101743
0.00104949
0.00108203
0.00111506
0.00114858
0.00118261
0.00121714
0.00125219
0.00128775
0.00132383
0.00136045
0.00139759
0.00143528
0.0014735
0.00151227
0.00155159
0.00159146
0.00163188
0.00167287
0.00171441
0.00175651
0.00179917
0.00184239
0.00188617
0.00193051
0.0019754
0.00202084
0.00206684
0.00211337
0.00216045
0.00220806
0.00225619
0.00230483
0.00235398
0.00240362
0.00245373
0.00250431
0.00255532
0.00260676
0.00265861
0.00271083
0.0027634
0.00281629
0.00286948
0.00292293
0.00297659
0.00303043
0.00308442
2.87225e-06
2.14284e-05
3.67044e-05
5.1939e-05
6.80177e-05
8.46755e-05
0.000101794
0.000119311
0.000137195
0.000155426
0.000173992
0.000192888
0.00021211
0.000231657
0.000251529
0.000271726
0.000292252
0.000313107
0.000334296
0.000355821
0.000377687
0.000399896
0.000422455
0.000445366
0.000468636
0.000492267
0.000516267
0.000540639
0.000565389
0.000590522
0.000616044
0.000641961
0.000668277
0.000695
0.000722134
0.000749685
0.00077766
0.000806065
0.000834904
0.000864186
0.000893914
0.000924097
0.000954738
0.000985846
0.00101743
0.00104948
0.00108202
0.00111505
0.00114858
0.00118261
0.00121714
0.00125218
0.00128775
0.00132383
0.00136045
0.00139759
0.00143528
0.0014735
0.00151227
0.00155159
0.00159146
0.00163188
0.00167287
0.00171441
0.00175651
0.00179917
0.00184239
0.00188617
0.00193051
0.0019754
0.00202084
0.00206684
0.00211338
0.00216045
0.00220806
0.00225619
0.00230484
0.00235399
0.00240362
0.00245374
0.00250431
0.00255533
0.00260677
0.00265861
0.00271084
0.00276341
0.0028163
0.00286949
0.00292293
0.0029766
0.00303044
0.00308443
2.87253e-06
2.14292e-05
3.67067e-05
5.19401e-05
6.80172e-05
8.46738e-05
0.000101791
0.000119308
0.000137191
0.000155422
0.000173988
0.000192884
0.000212106
0.000231652
0.000251524
0.000271721
0.000292246
0.000313102
0.00033429
0.000355815
0.000377681
0.00039989
0.000422449
0.00044536
0.000468629
0.000492261
0.00051626
0.000540632
0.000565383
0.000590516
0.000616038
0.000641955
0.000668272
0.000694994
0.000722128
0.00074968
0.000777655
0.00080606
0.0008349
0.000864181
0.00089391
0.000924092
0.000954735
0.000985842
0.00101742
0.00104948
0.00108202
0.00111505
0.00114858
0.0011826
0.00121714
0.00125218
0.00128775
0.00132383
0.00136045
0.00139759
0.00143528
0.0014735
0.00151227
0.00155159
0.00159146
0.00163189
0.00167287
0.00171441
0.00175651
0.00179917
0.00184239
0.00188617
0.00193051
0.0019754
0.00202085
0.00206684
0.00211338
0.00216046
0.00220807
0.0022562
0.00230484
0.00235399
0.00240363
0.00245374
0.00250432
0.00255534
0.00260678
0.00265862
0.00271084
0.00276342
0.00281631
0.0028695
2.87279e-06
2.14301e-05
3.67091e-05
5.19416e-05
6.80173e-05
8.46727e-05
0.000101789
0.000119305
0.000137188
0.000155419
0.000173985
0.00019288
0.000212102
0.000231648
0.000251519
0.000271716
0.000292241
0.000313096
0.000334285
0.00035581
0.000377675
0.000399885
0.000422443
0.000445355
0.000468624
0.000492255
0.000516255
0.000540627
0.000565377
0.00059051
0.000616033
0.00064195
0.000668266
0.000694989
0.000722123
0.000749675
0.000777651
0.000806055
0.000834895
0.000864177
0.000893906
0.000924089
0.000954731
0.000985839
0.00101742
0.00104948
0.00108202
0.00111505
0.00114857
0.0011826
0.00121713
0.00125218
0.00128774
0.00132383
0.00136044
0.00139759
0.00143527
0.0014735
0.00151227
0.00155159
0.00159146
0.00163189
0.00167287
0.00171441
0.00175651
0.00179917
0.00184239
0.00188617
0.00193051
0.0019754
0.00202085
0.00206685
0.00211338
0.00216046
0.00220807
0.0022562
0.00230485
0.002354
0.00240364
0.00245375
0.00250433
0.00255535
0.00260679
0.00265863
0.00271085
0.00276343
0.00281632
0.00286951
2.87303e-06
2.14311e-05
3.67116e-05
5.19434e-05
6.80178e-05
8.46719e-05
0.000101787
0.000119303
0.000137186
0.000155416
0.000173982
0.000192877
0.000212098
0.000231644
0.000251515
0.000271712
0.000292237
0.000313092
0.00033428
0.000355805
0.00037767
0.00039988
0.000422438
0.000445349
0.000468619
0.00049225
0.00051625
0.000540622
0.000565372
0.000590505
0.000616028
0.000641945
0.000668262
0.000694984
0.000722119
0.000749671
0.000777646
0.000806051
0.000834891
0.000864173
0.000893902
0.000924085
0.000954728
0.000985836
0.00101742
0.00104947
0.00108201
0.00111505
0.00114857
0.0011826
0.00121713
0.00125218
0.00128774
0.00132383
0.00136044
0.00139759
0.00143528
0.0014735
0.00151227
0.00155159
0.00159146
0.00163189
0.00167287
0.00171441
0.00175651
0.00179917
0.0018424
0.00188618
0.00193051
0.00197541
0.00202085
0.00206685
0.00211339
0.00216047
0.00220808
0.00225621
0.00230486
0.002354
0.00240364
0.00245376
0.00250434
0.00255535
0.0026068
0.00265864
0.00271086
0.00276343
0.00281633
0.00286951
2.87324e-06
2.14321e-05
3.67142e-05
5.19455e-05
6.80187e-05
8.46717e-05
0.000101786
0.000119301
0.000137183
0.000155413
0.000173979
0.000192874
0.000212095
0.000231641
0.000251512
0.000271708
0.000292233
0.000313088
0.000334276
0.0003558
0.000377666
0.000399875
0.000422433
0.000445345
0.000468614
0.000492245
0.000516245
0.000540617
0.000565367
0.000590501
0.000616023
0.00064194
0.000668257
0.00069498
0.000722115
0.000749667
0.000777642
0.000806047
0.000834888
0.000864169
0.000893899
0.000924082
0.000954725
0.000985833
0.00101741
0.00104947
0.00108201
0.00111504
0.00114857
0.0011826
0.00121713
0.00125218
0.00128774
0.00132383
0.00136044
0.00139759
0.00143528
0.0014735
0.00151227
0.00155159
0.00159146
0.00163189
0.00167287
0.00171441
0.00175651
0.00179918
0.0018424
0.00188618
0.00193052
0.00197541
0.00202086
0.00206685
0.00211339
0.00216047
0.00220808
0.00225622
0.00230486
0.00235401
0.00240365
0.00245377
0.00250434
0.00255536
0.00260681
0.00265865
0.00271087
2.87344e-06
2.14332e-05
3.67167e-05
5.19478e-05
6.80199e-05
8.46718e-05
0.000101785
0.0001193
0.000137181
0.000155411
0.000173976
0.000192871
0.000212092
0.000231638
0.000251508
0.000271705
0.000292229
0.000313084
0.000334272
0.000355796
0.000377661
0.000399871
0.000422429
0.00044534
0.000468609
0.000492241
0.00051624
0.000540613
0.000565363
0.000590496
0.000616019
0.000641936
0.000668253
0.000694976
0.000722111
0.000749663
0.000777639
0.000806044
0.000834884
0.000864166
0.000893896
0.000924079
0.000954722
0.00098583
0.00101741
0.00104947
0.00108201
0.00111504
0.00114857
0.0011826
0.00121713
0.00125218
0.00128774
0.00132383
0.00136044
0.00139759
0.00143528
0.0014735
0.00151227
0.00155159
0.00159146
0.00163189
0.00167287
0.00171442
0.00175652
0.00179918
0.0018424
0.00188618
0.00193052
0.00197541
0.00202086
0.00206686
0.0021134
0.00216048
0.00220809
0.00225622
0.00230487
0.00235402
0.00240366
0.00245378
0.00250435
0.00255537
0.00260682
0.00265866
0.00271088
2.87362e-06
2.14344e-05
3.67193e-05
5.19502e-05
6.80215e-05
8.46723e-05
0.000101785
0.000119299
0.00013718
0.000155409
0.000173974
0.000192868
0.000212089
0.000231635
0.000251505
0.000271702
0.000292226
0.00031308
0.000334268
0.000355793
0.000377658
0.000399867
0.000422425
0.000445336
0.000468605
0.000492237
0.000516236
0.000540609
0.000565359
0.000590493
0.000616015
0.000641932
0.000668249
0.000694972
0.000722107
0.000749659
0.000777635
0.00080604
0.000834881
0.000864163
0.000893893
0.000924076
0.000954719
0.000985828
0.00101741
0.00104947
0.00108201
0.00111504
0.00114857
0.0011826
0.00121713
0.00125218
0.00128774
0.00132383
0.00136044
0.00139759
0.00143528
0.0014735
0.00151227
0.00155159
0.00159147
0.00163189
0.00167288
0.00171442
0.00175652
0.00179918
0.0018424
0.00188618
0.00193052
0.00197542
0.00202087
0.00206686
0.0021134
0.00216048
0.00220809
0.00225623
0.00230488
0.00235403
0.00240367
0.00245378
0.00250436
0.00255538
0.00260683
0.00265867
0.00271089
2.87379e-06
2.14356e-05
3.67219e-05
5.19529e-05
6.80234e-05
8.46732e-05
0.000101785
0.000119298
0.000137178
0.000155407
0.000173972
0.000192866
0.000212087
0.000231632
0.000251503
0.000271699
0.000292223
0.000313077
0.000334265
0.000355789
0.000377654
0.000399863
0.000422421
0.000445333
0.000468602
0.000492233
0.000516233
0.000540605
0.000565355
0.000590489
0.000616012
0.000641929
0.000668246
0.000694969
0.000722104
0.000749656
0.000777632
0.000806037
0.000834878
0.000864161
0.00089389
0.000924074
0.000954717
0.000985826
0.00101741
0.00104947
0.00108201
0.00111504
0.00114857
0.00118259
0.00121713
0.00125218
0.00128774
0.00132383
0.00136045
0.00139759
0.00143528
0.0014735
0.00151228
0.0015516
0.00159147
0.0016319
0.00167288
0.00171442
0.00175652
0.00179918
0.00184241
0.00188619
0.00193053
0.00197542
0.00202087
0.00206687
0.00211341
0.00216049
0.0022081
0.00225624
0.00230488
0.00235403
0.00240368
0.00245379
0.00250437
0.00255539
0.00260684
0.00265868
0.0027109
2.87394e-06
2.14368e-05
3.67244e-05
5.19556e-05
6.80256e-05
8.46744e-05
0.000101785
0.000119297
0.000137177
0.000155405
0.00017397
0.000192864
0.000212085
0.00023163
0.0002515
0.000271696
0.00029222
0.000313074
0.000334262
0.000355786
0.000377651
0.00039986
0.000422418
0.000445329
0.000468598
0.00049223
0.000516229
0.000540602
0.000565352
0.000590486
0.000616008
0.000641926
0.000668243
0.000694966
0.000722101
0.000749653
0.000777629
0.000806035
0.000834876
0.000864158
0.000893888
0.000924072
0.000954715
0.000985824
0.00101741
0.00104946
0.00108201
0.00111504
0.00114857
0.00118259
0.00121713
0.00125218
0.00128774
0.00132383
0.00136045
0.00139759
0.00143528
0.00147351
0.00151228
0.0015516
0.00159147
0.0016319
0.00167288
0.00171442
0.00175653
0.00179919
0.00184241
0.00188619
0.00193053
0.00197543
0.00202088
0.00206687
0.00211342
0.0021605
0.00220811
0.00225624
0.00230489
0.00235404
0.00240369
0.0024538
0.00250438
0.0025554
0.00260685
0.00265869
0.00271091
2.87408e-06
2.14381e-05
3.67269e-05
5.19585e-05
6.80279e-05
8.46759e-05
0.000101786
0.000119297
0.000137177
0.000155404
0.000173968
0.000192862
0.000212083
0.000231628
0.000251498
0.000271694
0.000292217
0.000313071
0.000334259
0.000355783
0.000377648
0.000399857
0.000422415
0.000445326
0.000468595
0.000492227
0.000516226
0.000540599
0.000565349
0.000590483
0.000616005
0.000641923
0.00066824
0.000694963
0.000722098
0.000749651
0.000777627
0.000806032
0.000834874
0.000864156
0.000893886
0.00092407
0.000954714
0.000985823
0.0010174
0.00104946
0.00108201
0.00111504
0.00114857
0.00118259
0.00121713
0.00125218
0.00128774
0.00132383
0.00136045
0.0013976
0.00143528
0.00147351
0.00151228
0.0015516
0.00159147
0.0016319
0.00167288
0.00171443
0.00175653
0.00179919
0.00184241
0.0018862
0.00193054
0.00197543
0.00202088
0.00206688
0.00211342
0.0021605
0.00220812
0.00225625
0.0023049
0.00235405
0.0024037
0.00245381
0.00250439
0.00255542
0.00260686
0.0026587
0.00271092
2.87421e-06
2.14393e-05
3.67293e-05
5.19614e-05
6.80305e-05
8.46778e-05
0.000101787
0.000119297
0.000137176
0.000155403
0.000173967
0.000192861
0.000212081
0.000231626
0.000251496
0.000271691
0.000292215
0.000313069
0.000334256
0.00035578
0.000377645
0.000399854
0.000422412
0.000445323
0.000468592
0.000492224
0.000516224
0.000540596
0.000565346
0.00059048
0.000616003
0.00064192
0.000668238
0.000694961
0.000722096
0.000749649
0.000777625
0.00080603
0.000834872
0.000864154
0.000893885
0.000924068
0.000954712
0.000985822
0.0010174
0.00104946
0.001082
0.00111504
0.00114856
0.00118259
0.00121713
0.00125218
0.00128774
0.00132383
0.00136045
0.0013976
0.00143528
0.00147351
0.00151228
0.0015516
0.00159148
0.0016319
0.00167289
0.00171443
0.00175653
0.0017992
0.00184242
0.0018862
0.00193054
0.00197544
0.00202089
0.00206689
0.00211343
0.00216051
0.00220812
0.00225626
0.00230491
0.00235406
0.00240371
0.00245383
0.00250441
0.00255543
0.00260687
0.00265871
0.00271093
2.87434e-06
2.14406e-05
3.67317e-05
5.19643e-05
6.80332e-05
8.46798e-05
0.000101788
0.000119298
0.000137176
0.000155403
0.000173966
0.000192859
0.000212079
0.000231624
0.000251494
0.000271689
0.000292213
0.000313067
0.000334254
0.000355778
0.000377643
0.000399852
0.00042241
0.000445321
0.00046859
0.000492221
0.000516221
0.000540593
0.000565344
0.000590478
0.000616
0.000641918
0.000668235
0.000694959
0.000722094
0.000749647
0.000777623
0.000806029
0.00083487
0.000864153
0.000893883
0.000924067
0.000954711
0.000985821
0.0010174
0.00104946
0.001082
0.00111504
0.00114856
0.00118259
0.00121713
0.00125218
0.00128774
0.00132383
0.00136045
0.0013976
0.00143528
0.00147351
0.00151228
0.00155161
0.00159148
0.00163191
0.00167289
0.00171443
0.00175654
0.0017992
0.00184242
0.00188621
0.00193055
0.00197544
0.00202089
0.00206689
0.00211344
0.00216052
0.00220813
0.00225627
0.00230492
0.00235407
0.00240372
0.00245384
0.00250442
0.00255544
0.00260688
0.00265873
0.00271094
2.87445e-06
2.14419e-05
3.6734e-05
5.19673e-05
6.80361e-05
8.46821e-05
0.00010179
0.000119299
0.000137176
0.000155402
0.000173965
0.000192858
0.000212078
0.000231623
0.000251492
0.000271687
0.000292211
0.000313065
0.000334252
0.000355776
0.00037764
0.000399849
0.000422407
0.000445318
0.000468587
0.000492219
0.000516219
0.000540591
0.000565341
0.000590475
0.000615998
0.000641916
0.000668233
0.000694957
0.000722092
0.000749645
0.000777621
0.000806027
0.000834868
0.000864151
0.000893882
0.000924066
0.00095471
0.00098582
0.0010174
0.00104946
0.001082
0.00111504
0.00114856
0.00118259
0.00121713
0.00125218
0.00128775
0.00132383
0.00136045
0.0013976
0.00143529
0.00147351
0.00151229
0.00155161
0.00159148
0.00163191
0.00167289
0.00171444
0.00175654
0.0017992
0.00184243
0.00188621
0.00193055
0.00197545
0.0020209
0.0020669
0.00211344
0.00216053
0.00220814
0.00225628
0.00230493
0.00235408
0.00240373
0.00245385
0.00250443
0.00255545
0.0026069
0.00265874
0.00271096
2.87456e-06
2.14432e-05
3.67363e-05
5.19703e-05
6.8039e-05
8.46846e-05
0.000101791
0.0001193
0.000137177
0.000155402
0.000173965
0.000192858
0.000212077
0.000231621
0.000251491
0.000271686
0.000292209
0.000313063
0.00033425
0.000355774
0.000377638
0.000399847
0.000422405
0.000445316
0.000468585
0.000492217
0.000516217
0.000540589
0.000565339
0.000590473
0.000615996
0.000641914
0.000668232
0.000694955
0.00072209
0.000749643
0.00077762
0.000806026
0.000834867
0.00086415
0.000893881
0.000924065
0.000954709
0.000985819
0.0010174
0.00104946
0.001082
0.00111504
0.00114857
0.0011826
0.00121713
0.00125218
0.00128775
0.00132384
0.00136045
0.0013976
0.00143529
0.00147352
0.00151229
0.00155161
0.00159149
0.00163191
0.0016729
0.00171444
0.00175655
0.00179921
0.00184243
0.00188622
0.00193056
0.00197546
0.00202091
0.00206691
0.00211345
0.00216053
0.00220815
0.00225629
0.00230494