/*--------------------------------*- C++ -*----------------------------------*\
  =========                 |
  \\      /  F ield         | OpenFOAM: The Open Source CFD Toolbox
   \\    /   O peration     | Website:  https://openfoam.org
    \\  /    A nd           | Version:  10
     \\/     M anipulation  |
\*---------------------------------------------------------------------------*/
FoamFile
{
    format      ascii;
    class       volScalarField;
    location    "47000";
    object      yPlus;
}
// * * * * * * * * * * * * * * * * * * * * * * * * * * * * * * * * * * * * * //

dimensions      [0 0 0 0 0 0 0];

internalField   uniform 0;

boundaryField
{
    right
    {
        type            cyclic;
    }
    left
    {
        type            cyclic;
    }
    outerWall
    {
        type            calculated;
        value           nonuniform List<scalar> 
200
(
19.6898
19.6838
19.6836
19.6841
19.6851
19.6869
19.6892
19.6916
19.694
19.6964
19.6988
19.701
19.703
19.705
19.7067
19.7084
19.7099
19.7113
19.7125
19.7137
19.7148
19.7158
19.7167
19.7176
19.7184
19.7192
19.7199
19.7206
19.7213
19.7219
19.7226
19.7232
19.7238
19.7243
19.7249
19.7255
19.726
19.7265
19.7271
19.7276
19.7281
19.7286
19.7291
19.7296
19.7301
19.7306
19.7311
19.7315
19.732
19.7324
19.7329
19.7333
19.7337
19.7341
19.7345
19.7348
19.7351
19.7355
19.7357
19.736
19.7362
19.7364
19.7366
19.7367
19.7368
19.7369
19.7369
19.7368
19.7367
19.7366
19.7347
19.7319
19.7282
19.7255
19.7191
19.717
19.7178
19.7196
19.7212
19.7213
19.6747
19.6781
19.6868
19.6959
19.7049
19.714
19.723
19.7316
19.7396
19.7471
19.754
19.7603
19.766
19.7711
19.7757
19.7797
19.7832
19.7862
19.7887
19.7906
19.7921
19.7932
19.7938
19.7939
19.7936
19.7928
19.7917
19.79
19.7879
19.7853
19.7822
19.7786
19.7744
19.7696
19.764
19.7574
19.7497
19.7404
19.7286
19.7101
19.7227
19.7267
19.7288
19.73
19.7309
19.7304
19.7271
19.7233
19.7206
19.7192
19.7187
19.7192
19.7208
19.7227
19.7245
19.7261
19.7274
19.7285
19.7294
19.7301
19.7308
19.7312
19.7317
19.732
19.7323
19.7325
19.7327
19.7328
19.7329
19.733
19.733
19.733
19.733
19.733
19.733
19.7329
19.7328
19.7327
19.7326
19.7325
19.7324
19.7322
19.732
19.7319
19.7317
19.7315
19.7313
19.731
19.7308
19.7305
19.7302
19.73
19.7297
19.7293
19.729
19.7287
19.7283
19.7279
19.7275
19.7271
19.7266
19.7261
19.7256
19.725
19.7244
19.7237
19.723
19.7222
19.7214
19.7204
19.7193
19.7181
19.7167
19.7151
19.7131
19.7107
19.7077
19.7035
19.6976
19.6853
)
;
    }
    stirrerWall
    {
        type            calculated;
        value           nonuniform List<scalar> 0();
    }
    top
    {
        type            empty;
    }
    bottom
    {
        type            empty;
    }
    procBoundary2to3
    {
        type            processor;
        value           uniform 0;
    }
}


// ************************************************************************* //
