/*--------------------------------*- C++ -*----------------------------------*\
  =========                 |
  \\      /  F ield         | OpenFOAM: The Open Source CFD Toolbox
   \\    /   O peration     | Website:  https://openfoam.org
    \\  /    A nd           | Version:  10
     \\/     M anipulation  |
\*---------------------------------------------------------------------------*/
FoamFile
{
    format      ascii;
    class       volScalarField;
    location    "41000";
    object      nut;
}
// * * * * * * * * * * * * * * * * * * * * * * * * * * * * * * * * * * * * * //

dimensions      [0 2 -1 0 0 0 0];

internalField   nonuniform List<scalar> 
17981
(
0.00103854
0.00103735
0.0010384
0.0010417
0.00104721
0.00105483
0.00106443
0.00107582
0.00108881
0.00110318
0.00111871
0.00113519
0.00115243
0.00117022
0.0011884
0.00120681
0.00122532
0.00124382
0.00126221
0.00128039
0.00129831
0.0013159
0.00133312
0.00134994
0.00136632
0.00138226
0.00139773
0.00141273
0.00142726
0.00144132
0.00145492
0.00146805
0.00148074
0.00149299
0.00150481
0.00151621
0.0015272
0.0015378
0.00154802
0.00155787
0.00156736
0.0015765
0.00158532
0.00159382
0.001602
0.0016099
0.0016175
0.00162484
0.001006
0.00100622
0.00100867
0.00101337
0.00102027
0.00102928
0.00104024
0.00105297
0.00106726
0.00108288
0.00109961
0.00111722
0.00113551
0.00115429
0.00117338
0.00119263
0.0012119
0.00123108
0.00125007
0.00126879
0.00128718
0.00130517
0.00132274
0.00133985
0.00135647
0.0013726
0.00138822
0.00140333
0.00141792
0.00143201
0.00144561
0.00145872
0.00147135
0.00148353
0.00149525
0.00150654
0.00151741
0.00152786
0.00153793
0.00154761
0.00155693
0.00156589
0.00157452
0.00158283
0.00159082
0.00159852
0.00160593
0.00161306
0.000973478
0.000975394
0.000979529
0.000985896
0.000994443
0.00100506
0.00101759
0.00103183
0.00104757
0.00106456
0.00108258
0.0011014
0.0011208
0.00114059
0.00116061
0.00118069
0.0012007
0.00122053
0.0012401
0.00125931
0.00127811
0.00129646
0.00131431
0.00133164
0.00134844
0.00136468
0.00138037
0.00139551
0.0014101
0.00142415
0.00143767
0.00145068
0.00146319
0.00147522
0.00148678
0.00149788
0.00150855
0.0015188
0.00152865
0.0015381
0.00154719
0.00155591
0.0015643
0.00157236
0.0015801
0.00158755
0.00159471
0.00160159
0.000969994
0.000982424
0.000996696
0.0010126
0.00102991
0.00104837
0.00106775
0.00108782
0.00110836
0.00112918
0.00115011
0.00117099
0.00119171
0.00121215
0.00123222
0.00125186
0.00127101
0.00128962
0.00130768
0.00132515
0.00134202
0.0013583
0.00137398
0.00138906
0.00140355
0.00141748
0.00143084
0.00144367
0.00145598
0.00146778
0.0014791
0.00148995
0.00150035
0.00151032
0.00151987
0.00152904
0.00153782
0.00154625
0.00155433
0.00156209
0.00156953
0.00157667
0.00158353
0.00159012
0.000947161
0.000961585
0.000977754
0.000995446
0.00101442
0.00103442
0.0010552
0.00107654
0.00109822
0.00112004
0.00114184
0.00116348
0.00118483
0.0012058
0.0012263
0.00124628
0.00126568
0.00128447
0.00130263
0.00132014
0.001337
0.00135321
0.00136877
0.00138369
0.001398
0.0014117
0.00142482
0.00143737
0.00144939
0.00146088
0.00147187
0.00148239
0.00149244
0.00150206
0.00151126
0.00152006
0.00152848
0.00153654
0.00154426
0.00155165
0.00155873
0.00156551
0.00157202
0.00157826
0.0009262
0.000942766
0.00096095
0.000980517
0.00100121
0.00102278
0.00104498
0.00106756
0.00109033
0.0011131
0.00113571
0.00115801
0.00117991
0.00120131
0.00122214
0.00124234
0.00126188
0.00128074
0.00129888
0.00131632
0.00133305
0.00134908
0.00136442
0.00137908
0.00139309
0.00140647
0.00141924
0.00143142
0.00144305
0.00145414
0.00146472
0.00147481
0.00148444
0.00149362
0.00150239
0.00151076
0.00151875
0.00152638
0.00153367
0.00154064
0.0015473
0.00155368
0.00155978
0.00156562
0.000926167
0.000946443
0.000967929
0.000990364
0.00101349
0.00103705
0.00106083
0.00108462
0.00110825
0.00113155
0.00115442
0.00117675
0.00119845
0.00121948
0.00123978
0.00125933
0.00127811
0.00129612
0.00131336
0.00132983
0.00134556
0.00136055
0.00137484
0.00138844
0.00140138
0.0014137
0.00142542
0.00143656
0.00144716
0.00145724
0.00146683
0.00147595
0.00148463
0.00149289
0.00150075
0.00150824
0.00151538
0.00152219
0.00152868
0.00153487
0.00154079
0.00154644
0.00155184
0.000957718
0.000981857
0.00100648
0.00103133
0.00105621
0.0010809
0.00110526
0.00112914
0.00115242
0.00117503
0.0011969
0.00121798
0.00123823
0.00125765
0.00127622
0.00129395
0.00131085
0.00132694
0.00134223
0.00135676
0.00137055
0.00138363
0.00139603
0.00140779
0.00141894
0.0014295
0.00143952
0.00144901
0.00145802
0.00146655
0.00147465
0.00148234
0.00148964
0.00149657
0.00150315
0.00150942
0.00151538
0.00152106
0.00152646
0.00153162
0.00153654
0.000975557
0.00100157
0.0010276
0.00105343
0.00107889
0.00110383
0.00112812
0.00115166
0.00117439
0.00119626
0.00121723
0.00123728
0.00125641
0.00127462
0.00129193
0.00130835
0.00132392
0.00133865
0.00135259
0.00136576
0.0013782
0.00138996
0.00140106
0.00141154
0.00142143
0.00143078
0.00143961
0.00144795
0.00145583
0.00146328
0.00147032
0.00147699
0.00148331
0.00148929
0.00149496
0.00150035
0.00150546
0.00151032
0.00151495
0.00151935
0.00102553
0.00105216
0.00107821
0.00110355
0.00112807
0.0011517
0.00117437
0.00119607
0.00121676
0.00123644
0.00125513
0.00127283
0.00128957
0.00130537
0.00132028
0.00133433
0.00134755
0.00135999
0.00137169
0.00138269
0.00139303
0.00140276
0.0014119
0.0014205
0.00142858
0.00143619
0.00144334
0.00145008
0.00145643
0.00146242
0.00146807
0.00147341
0.00147845
0.00148322
0.00148774
0.00149202
0.00149608
0.00149994
0.00112853
0.00115204
0.00117448
0.00119582
0.00121606
0.00123521
0.00125329
0.00127033
0.00128635
0.00130141
0.00131553
0.00132877
0.00134116
0.00135276
0.00136362
0.00137378
0.00138328
0.00139216
0.00140048
0.00140825
0.00141553
0.00142235
0.00142873
0.00143471
0.00144032
0.00144558
0.00145053
0.00145518
0.00145956
0.00146369
0.00146758
0.00147126
0.00147474
0.00147804
0.00112896
0.00115217
0.00117418
0.00119498
0.0012146
0.00123306
0.00125038
0.0012666
0.00128178
0.00129595
0.00130917
0.00132149
0.00133295
0.00134362
0.00135355
0.00136278
0.00137137
0.00137935
0.00138678
0.00139368
0.0014001
0.00140608
0.00141164
0.00141683
0.00142166
0.00142617
0.00143039
0.00143434
0.00143804
0.00144151
0.00144477
0.00144783
0.00145073
0.00145346
0.00112884
0.00115154
0.00117293
0.00119302
0.00121185
0.00122945
0.00124587
0.00126115
0.00127536
0.00128853
0.00130074
0.00131204
0.00132249
0.00133215
0.00134107
0.00134932
0.00135693
0.00136396
0.00137045
0.00137644
0.00138197
0.00138708
0.0013918
0.00139617
0.00140021
0.00140396
0.00140744
0.00141068
0.00141369
0.0014165
0.00141913
0.00142159
0.0014239
0.00142607
0.00112761
0.0011496
0.00117018
0.0011894
0.00120728
0.00122389
0.00123927
0.0012535
0.00126662
0.0012787
0.00128981
0.00130001
0.00130938
0.00131797
0.00132584
0.00133306
0.00133966
0.0013457
0.00135123
0.00135628
0.00136091
0.00136514
0.00136901
0.00137256
0.00137582
0.00137881
0.00138156
0.00138409
0.00138643
0.0013886
0.00139061
0.00139248
0.00139423
0.00139587
0.0011458
0.00116542
0.0011836
0.00120041
0.0012159
0.00123014
0.0012432
0.00125516
0.00126607
0.00127601
0.00128507
0.00129331
0.0013008
0.0013076
0.00131376
0.00131933
0.00132438
0.00132894
0.00133306
0.00133679
0.00134015
0.00134319
0.00134593
0.00134842
0.00135067
0.00135271
0.00135457
0.00135626
0.00135782
0.00135924
0.00136056
0.00136178
0.00136291
0.00113962
0.00115813
0.00117516
0.00119079
0.00120507
0.00121809
0.00122993
0.00124066
0.00125035
0.0012591
0.00126698
0.00127408
0.00128046
0.00128617
0.00129128
0.00129584
0.0012999
0.00130352
0.00130673
0.00130957
0.00131209
0.00131433
0.0013163
0.00131805
0.0013196
0.00132098
0.0013222
0.00132329
0.00132427
0.00132516
0.00132596
0.0013267
0.00132738
0.00113061
0.00114791
0.00116371
0.00117808
0.00119111
0.00120286
0.00121344
0.00122291
0.00123137
0.00123892
0.00124564
0.00125161
0.00125688
0.00126153
0.00126561
0.00126918
0.0012723
0.001275
0.00127734
0.00127935
0.00128107
0.00128255
0.0012838
0.00128487
0.00128577
0.00128653
0.00128718
0.00128772
0.00128819
0.00128858
0.00128893
0.00128924
0.00128952
0.00113442
0.00114895
0.00116204
0.00117379
0.00118428
0.0011936
0.00120183
0.00120908
0.00121546
0.00122105
0.00122591
0.00123012
0.00123375
0.00123685
0.00123948
0.00124169
0.00124354
0.00124506
0.0012463
0.00124729
0.00124807
0.00124867
0.00124912
0.00124944
0.00124965
0.00124978
0.00124984
0.00124986
0.00124983
0.00124979
0.00124974
0.00124968
0.00110169
0.00111289
0.00112375
0.00113453
0.00114552
0.00115701
0.00116895
0.00118044
0.00118878
0.00119328
0.0011971
0.0012003
0.00120297
0.00120515
0.00120691
0.00120829
0.00120936
0.00121014
0.00121068
0.00121101
0.00121117
0.00121119
0.00121109
0.0012109
0.00121064
0.00121033
0.00120999
0.00120963
0.00120926
0.00120889
0.00120855
0.00120823
0.00106279
0.00107077
0.00107857
0.00108649
0.00109478
0.00110359
0.00111283
0.00112221
0.00113143
0.00114029
0.00114891
0.00115747
0.00116544
0.00117069
0.00117167
0.00117232
0.00117269
0.00117282
0.00117275
0.00117251
0.00117215
0.00117168
0.00117112
0.00117051
0.00116987
0.0011692
0.00116853
0.00116787
0.00116723
0.00116662
0.00116606
0.00116554
0.00102839
0.00103327
0.00103821
0.00104366
0.00104992
0.00105709
0.00106487
0.00107281
0.00108061
0.00108815
0.00109546
0.00110268
0.00110988
0.001117
0.00112378
0.00112976
0.00113379
0.0011335
0.00113292
0.00113221
0.00113141
0.00113054
0.00112962
0.00112868
0.00112773
0.00112679
0.00112588
0.001125
0.00112417
0.00112339
0.00112269
0.00112205
0.00100016
0.00100149
0.00100298
0.00100526
0.00100877
0.00101368
0.00101971
0.00102641
0.00103344
0.00104058
0.00104764
0.00105454
0.00106119
0.00106754
0.00107357
0.00107929
0.00108451
0.0010888
0.00109133
0.00109067
0.00108951
0.00108832
0.00108712
0.00108592
0.00108475
0.00108362
0.00108253
0.00108151
0.00108056
0.00107968
0.0010789
0.0010782
0.000976129
0.000973915
0.00097178
0.000970624
0.000971081
0.000973435
0.000977452
0.000982623
0.000988536
0.000994896
0.00100148
0.00100813
0.00101469
0.00102106
0.00102711
0.00103274
0.00103782
0.0010422
0.0010456
0.00104751
0.00104701
0.00104557
0.00104415
0.00104277
0.00104144
0.00104017
0.00103898
0.00103787
0.00103686
0.00103595
0.00103514
0.00103444
0.00095527
0.000949592
0.000943761
0.000938921
0.000935977
0.000935423
0.000937148
0.000940669
0.000945475
0.00095115
0.000957353
0.000963809
0.000970294
0.000976635
0.000982694
0.000988347
0.00099347
0.000997908
0.00100145
0.00100378
0.00100437
0.00100275
0.00100117
0.000999657
0.000998222
0.000996876
0.000995629
0.000994491
0.000993466
0.000992562
0.000991782
0.000991129
0.000939031
0.00092948
0.000919574
0.000910678
0.000903913
0.000899962
0.000898983
0.000900557
0.000904065
0.000908968
0.000914798
0.000921153
0.0009277
0.000934172
0.000940364
0.000946113
0.000951278
0.000955712
0.000959217
0.000961479
0.000961944
0.000960187
0.000958504
0.000956911
0.00095542
0.000954042
0.000952786
0.000951659
0.000950667
0.000949813
0.000949101
0.000948533
0.000925771
0.000914358
0.000900339
0.000886823
0.000875554
0.000867581
0.00086334
0.000862532
0.000864455
0.000868424
0.000873815
0.000880075
0.00088674
0.00089343
0.000899856
0.000905796
0.000911073
0.000915507
0.000918845
0.000920643
0.000920004
0.000918156
0.00091641
0.000914778
0.000913273
0.000911903
0.000910676
0.000909598
0.000908674
0.000907907
0.000907297
0.000906847
0.000903019
0.000899875
0.000885344
0.00086788
0.00085175
0.000839071
0.000830772
0.000826889
0.000826763
0.00082951
0.000834312
0.000840436
0.000847248
0.000854229
0.00086097
0.000867162
0.000872561
0.000876932
0.00087992
0.000880762
0.000878752
0.000876853
0.000875081
0.000873447
0.000871963
0.000870635
0.000869471
0.000868474
0.000867649
0.000866997
0.000866518
0.000866213
0.000872102
0.000873845
0.000869584
0.000852441
0.000832552
0.000814975
0.000801955
0.000794195
0.000791317
0.000792357
0.000796276
0.00080212
0.00080905
0.000816362
0.000823494
0.000830011
0.00083556
0.000839757
0.000841899
0.000840401
0.000838348
0.000836432
0.000834667
0.000833065
0.000831632
0.000830377
0.000829303
0.000828415
0.000827715
0.000827203
0.000826879
0.000826742
0.000841072
0.00084191
0.000841932
0.00083568
0.00081644
0.000795226
0.000777366
0.000765009
0.000758548
0.000757225
0.000759808
0.000765107
0.00077204
0.000779678
0.000787253
0.000794135
0.000799734
0.000803261
0.0008032
0.000800986
0.000798921
0.000797019
0.000795292
0.000793749
0.000792396
0.000791239
0.000790282
0.000789526
0.000788973
0.000788622
0.000788472
0.00078852
0.000810155
0.000809392
0.000807984
0.000799055
0.000778344
0.000756885
0.000739829
0.000729024
0.000724477
0.000725108
0.000729463
0.000736174
0.00074403
0.000751992
0.000759173
0.000764692
0.000767234
0.000764848
0.000762624
0.000760576
0.000758716
0.000757054
0.000755595
0.000754347
0.000753311
0.000752491
0.000751887
0.0007515
0.000751327
0.000751366
0.000751615
0.000778836
0.00077732
0.000775229
0.000772659
0.000760684
0.000739185
0.000718496
0.0007032
0.000694676
0.000692521
0.000695348
0.000701496
0.00070943
0.000717751
0.000725122
0.000729997
0.000730003
0.000727604
0.000725395
0.00072339
0.000721596
0.000720022
0.000718671
0.000717549
0.000716655
0.000715991
0.000715557
0.000715351
0.000715371
0.000715613
0.000716073
0.000748169
0.000745924
0.000743175
0.000740015
0.000736529
0.000721455
0.000699913
0.000680952
0.000668252
0.000662563
0.000663061
0.000668072
0.000675698
0.000684152
0.000691653
0.000696034
0.000693927
0.000691534
0.000689361
0.000687419
0.000685712
0.000684246
0.000683023
0.000682044
0.000681309
0.000680818
0.000680569
0.000680558
0.000680782
0.000681236
0.000681917
0.000718356
0.000715398
0.000712004
0.000708266
0.000704267
0.000700087
0.000682155
0.000661449
0.000645092
0.000635598
0.000633039
0.00063619
0.000643051
0.000651326
0.000658567
0.000661664
0.00065905
0.000656679
0.000654559
0.000652695
0.000651092
0.000649751
0.000648671
0.000647852
0.000647291
0.000646985
0.000646932
0.000647127
0.000647565
0.000648241
0.000649151
0.000677573
0.000673057
0.000668423
0.000662221
0.000643465
0.00062478
0.000611667
0.000605638
0.000606153
0.000611533
0.000619245
0.000626094
0.00062802
0.000625403
0.000623064
0.000621008
0.000619237
0.000617751
0.000616547
0.000615623
0.000614975
0.000614598
0.000614489
0.000614641
0.00061505
0.000615709
0.000616614
0.000617757
0.000648067
0.000643023
0.000637923
0.000632837
0.000623797
0.000606157
0.000590478
0.000581006
0.00057842
0.000581538
0.000588025
0.000594342
0.00059562
0.000593002
0.000590701
0.000588716
0.000587046
0.000585684
0.000584627
0.000583867
0.000583399
0.000583215
0.000583308
0.000583673
0.000584301
0.000585187
0.000586323
0.000587703
0.000619884
0.000614292
0.000608704
0.000603189
0.000597806
0.000586705
0.000570958
0.000558803
0.000553069
0.00055353
0.000558148
0.000563498
0.000564482
0.000561857
0.00055959
0.000557676
0.000556108
0.000554875
0.000553969
0.000553379
0.000553095
0.000553109
0.00055341
0.000553991
0.000554842
0.000555957
0.000557327
0.000558945
0.000593148
0.000586982
0.000580876
0.000574898
0.000569113
0.000563572
0.000551486
0.00053829
0.000529849
0.000527506
0.000529944
0.000533971
0.000534565
0.000531953
0.000529713
0.000527866
0.000526398
0.000525294
0.00052454
0.000524122
0.000524026
0.00052424
0.000524752
0.00052555
0.000526627
0.000527971
0.000529575
0.00053143
0.000567953
0.000561186
0.000554528
0.000548051
0.000541822
0.000535895
0.000530318
0.000518488
0.000508334
0.000503396
0.000503473
0.000505887
0.000505765
0.000503215
0.000501047
0.000499265
0.000497888
0.000496907
0.000496302
0.000496055
0.000496147
0.000496561
0.000497283
0.000498301
0.000499601
0.000501174
0.000503011
0.000505102
0.00054438
0.000536986
0.000529742
0.000522725
0.000516005
0.000509644
0.00050369
0.000497799
0.000487904
0.000481005
0.000478745
0.000479314
0.000478105
0.000475574
0.000473483
0.000471809
0.000470533
0.000469668
0.000469209
0.000469129
0.000469407
0.000470021
0.000470953
0.000472188
0.000473712
0.000475512
0.000477578
0.000479902
0.000522515
0.000514463
0.000506595
0.000498992
0.00049173
0.000484877
0.000478489
0.000472609
0.000466918
0.000459697
0.000455592
0.000454286
0.000451587
0.000449039
0.000446989
0.000445409
0.000444267
0.000443535
0.000443214
0.000443299
0.00044376
0.000444571
0.000445711
0.000447161
0.000448904
0.000450928
0.000453221
0.000455773
0.000502413
0.000493675
0.000485147
0.000476914
0.000469058
0.000461654
0.000454766
0.000448448
0.000442735
0.00043765
0.000433207
0.000429399
0.000426206
0.000423605
0.000421565
0.000420051
0.000419025
0.000418446
0.000418279
0.00041852
0.000419159
0.000420163
0.000421507
0.000423167
0.000425127
0.00042737
0.000429884
0.00043266
0.00048411
0.000474665
0.000465447
0.000456543
0.000448042
0.000440028
0.000432575
0.000425746
0.000419586
0.000414123
0.000409371
0.000405326
0.000401972
0.00039928
0.000397216
0.000395738
0.000394799
0.000394352
0.000394349
0.000394755
0.000395562
0.000396752
0.000398293
0.000400159
0.000402328
0.000404785
0.000407516
0.00041051
0.000467667
0.000457478
0.000447536
0.000437923
0.000428729
0.000420048
0.000411966
0.000404555
0.000397874
0.00039196
0.000386832
0.00038249
0.000378919
0.000376088
0.000373955
0.000372473
0.000371587
0.000371242
0.000371383
0.000371955
0.000372931
0.000374296
0.000376026
0.000378089
0.000380463
0.000383126
0.000386067
0.000389272
0.000453111
0.000442138
0.000431439
0.000421081
0.000411154
0.000401755
0.000392982
0.000384923
0.000377648
0.000371207
0.00036563
0.000360922
0.000357068
0.000354037
0.000351784
0.000350252
0.000349379
0.000349102
0.000349358
0.000350084
0.000351221
0.000352754
0.000354664
0.000356918
0.000359487
0.000362351
0.000365493
0.000368903
0.000440479
0.000428663
0.000417169
0.000406035
0.000395338
0.000385177
0.000375659
0.000366885
0.000358943
0.000351898
0.000345792
0.000340639
0.00033643
0.000333133
0.000330698
0.000329065
0.000328162
0.000327916
0.000328253
0.000329103
0.0003304
0.000332098
0.000334175
0.000336607
0.000339362
0.000342417
0.000345754
0.00034936
0.000429847
0.000417087
0.000404738
0.000392791
0.000381293
0.000370332
0.000360019
0.000350469
0.000341788
0.000334059
0.00032734
0.000321658
0.000317013
0.000313375
0.000310694
0.000308901
0.000307919
0.000307662
0.000308048
0.000308994
0.000310427
0.000312276
0.000314513
0.000317114
0.000320047
0.000323285
0.000326808
0.000330604
0.000421333
0.000407468
0.000394162
0.000381345
0.000369012
0.00035722
0.000346072
0.000335694
0.000326206
0.000317714
0.000310296
0.000303997
0.000298828
0.000294767
0.000291765
0.000289749
0.000288632
0.00028832
0.000288716
0.000289727
0.000291267
0.00029326
0.000295647
0.000298404
0.000301505
0.000304917
0.000308619
0.000312597
0.000415109
0.000399907
0.000385478
0.000371696
0.00035848
0.000345828
0.000333817
0.000322566
0.000312214
0.000302886
0.000294685
0.000287677
0.000281892
0.000277319
0.000273913
0.000271601
0.000270288
0.00026987
0.000270235
0.000271278
0.0002729
0.000275012
0.000277537
0.000280442
0.0002837
0.000287278
0.00029115
0.000295303
0.000411422
0.00039459
0.000378781
0.000363866
0.00034968
0.000336131
0.000323233
0.000311082
0.000299819
0.000289592
0.000280528
0.000272721
0.000266224
0.000261044
0.000257146
0.000254457
0.000252879
0.000252296
0.000252584
0.000253623
0.000255296
0.000257504
0.000260158
0.0002632
0.000266603
0.000270336
0.00027437
0.00027869
0.000410554
0.0003918
0.000374273
0.000357944
0.00034262
0.0003281
0.000314288
0.000301219
0.000289017
0.000277842
0.000267846
0.000259155
0.000251851
0.000245964
0.000241476
0.000238322
0.000236402
0.00023559
0.00023575
0.000236742
0.000238436
0.000240715
0.000243477
0.000246643
0.00025018
0.00025406
0.000258248
0.000262727
0.000412336
0.000391864
0.000372255
0.00035413
0.000337374
0.000321725
0.000306942
0.000292941
0.000279788
0.000267634
0.000256653
0.000247002
0.000238798
0.000232105
0.000226925
0.00022321
0.000220861
0.000219748
0.000219719
0.000220619
0.000222298
0.00022462
0.00022747
0.000230749
0.00023441
0.000238422
0.000242755
0.000247385
0.00041521
0.000394549
0.000373117
0.000352755
0.000334141
0.00031706
0.000301167
0.000286196
0.000272089
0.000258948
0.000246949
0.00023628
0.000227095
0.000219496
0.000213521
0.000209141
0.000206269
0.000204771
0.000204487
0.000205242
0.000206866
0.000209202
0.000212115
0.000215495
0.000219267
0.0002234
0.000227865
0.000232638
0.000417842
0.000398114
0.000376572
0.000354281
0.000333279
0.000314299
0.000296996
0.000280941
0.000265864
0.000251743
0.00023872
0.000226995
0.000216763
0.000208169
0.000201294
0.000196141
0.000192643
0.000190671
0.000190055
0.000190605
0.000192127
0.000194443
0.000197395
0.000200854
0.000204725
0.00020897
0.000213556
0.000218463
0.000401214
0.000380708
0.000358371
0.000335324
0.000313819
0.000294604
0.000277181
0.000261052
0.000245957
0.000231924
0.000219136
0.000207814
0.000198151
0.000190278
0.000184244
0.000180009
0.000177462
0.000176428
0.000176704
0.000178073
0.00018033
0.000183293
0.000186811
0.000190769
0.000195113
0.000199811
0.000204837
0.000403565
0.000384161
0.000362954
0.000339911
0.000316234
0.000294379
0.000275066
0.000257629
0.000241513
0.000226496
0.000212665
0.000200241
0.000189459
0.000180505
0.000173483
0.000168399
0.000165167
0.000163621
0.000163544
0.0001647
0.000166854
0.000169796
0.00017335
0.000177381
0.000181812
0.000186608
0.000191744
0.000366645
0.000344829
0.000321183
0.000297015
0.00027498
0.00025571
0.000238361
0.000222351
0.000207519
0.000194015
0.000182094
0.000171997
0.000163894
0.000157848
0.000153816
0.000151651
0.000151134
0.000152007
0.000154007
0.000156892
0.000160457
0.000164543
0.000169047
0.00017393
0.000179166
0.00036917
0.000348646
0.000326326
0.000302189
0.000277689
0.00025566
0.00023657
0.000219409
0.000203602
0.000189071
0.000176031
0.000164763
0.000155504
0.000148392
0.000143442
0.000140543
0.000139485
0.000139997
0.000141785
0.000144572
0.000148119
0.000152238
0.000156801
0.000161759
0.000167084
0.000351088
0.000330166
0.000307458
0.000282949
0.000258296
0.000236467
0.00021769
0.000200813
0.000185312
0.000171212
0.000158784
0.000148328
0.000140062
0.00013408
0.000130327
0.000128619
0.000128679
0.000130187
0.000132828
0.000136325
0.000140455
0.00014506
0.000150081
0.000155482
0.000351905
0.000332421
0.000311224
0.000288252
0.000263502
0.000238889
0.000217462
0.000199119
0.000182622
0.000167541
0.000154012
0.000142359
0.000132881
0.000125765
0.000121037
0.000118559
0.000118066
0.000119217
0.000121657
0.000125065
0.000129181
0.000133816
0.000138881
0.000144344
0.000350865
0.000332838
0.0003132
0.000291859
0.000268757
0.000243901
0.000219544
0.000198714
0.000180915
0.000164892
0.000150359
0.000137559
0.000126853
0.000118527
0.000112708
0.000109336
0.000108176
0.00010888
0.000111055
0.000114331
0.000118403
0.000123046
0.000128138
0.000133649
0.000331185
0.000313128
0.000293474
0.000272131
0.000249038
0.000224221
0.000200347
0.000180299
0.000163139
0.000147692
0.000133849
0.000121952
0.000112377
0.000105374
0.000100984
9.90344e-05
9.91877e-05
0.000101022
0.000104115
0.000108108
0.000112734
0.000117838
0.000123381
0.000327261
0.00031078
0.000292838
0.000273316
0.000252115
0.000229176
0.000204558
0.000181404
0.000162298
0.00014586
0.000131104
0.000118114
0.000107309
9.90576e-05
9.35359e-05
9.06693e-05
9.0158e-05
9.15633e-05
9.44134e-05
9.82884e-05
0.00010287
0.000107965
0.000113522
0.000305972
0.000289732
0.000272055
0.000252813
0.000231902
0.000209262
0.000185028
0.000162833
0.000144792
0.000129158
0.000115227
0.000103275
9.37648e-05
8.7024e-05
8.31145e-05
8.18139e-05
8.26903e-05
8.52266e-05
8.89375e-05
9.34438e-05
9.85065e-05
0.000104059
0.000298573
0.000283992
0.000268142
0.000250879
0.000232064
0.000211585
0.000189381
0.000165766
0.000144765
0.000127871
0.000113126
0.000100181
8.94709e-05
8.14672e-05
7.6404e-05
7.41843e-05
7.44187e-05
7.65594e-05
8.00526e-05
8.44483e-05
8.94531e-05
9.49778e-05
0.00028852
0.000275525
0.000261445
0.000246132
0.000229427
0.000211178
0.000191259
0.000169607
0.000146916
0.000127338
0.000111629
9.78784e-05
8.61072e-05
7.68619e-05
7.05669e-05
6.73019e-05
6.67705e-05
6.8421e-05
7.16342e-05
7.588e-05
8.08013e-05
8.62681e-05
0.00026432
0.000251919
0.000238482
0.000223848
0.00020784
0.000190287
0.000171043
0.00015004
0.000128632
0.000110682
9.61705e-05
8.35482e-05
7.31676e-05
6.56178e-05
6.11999e-05
5.97733e-05
6.08259e-05
6.36856e-05
6.77338e-05
7.2538e-05
7.79188e-05
0.000250451
0.000239609
0.000227938
0.000215284
0.000201468
0.000186295
0.000169568
0.000151119
0.000130874
0.000111078
9.49015e-05
8.16069e-05
7.02897e-05
6.15428e-05
5.59046e-05
5.34585e-05
5.37949e-05
5.62157e-05
6.00111e-05
6.46585e-05
6.99222e-05
0.000234083
0.000224658
0.000214607
0.000203796
0.000192061
0.000179206
0.000165013
0.000149259
0.000131759
0.00011244
9.44373e-05
8.00645e-05
6.80621e-05
5.82806e-05
5.14241e-05
4.78572e-05
4.73545e-05
4.924e-05
5.27192e-05
5.71649e-05
6.22743e-05
0.000207303
0.000198705
0.000189561
0.000179733
0.000169046
0.00015729
0.000144224
0.000129605
0.000113237
9.50904e-05
7.88775e-05
6.62376e-05
5.56985e-05
4.77312e-05
4.29924e-05
4.15344e-05
4.27792e-05
4.58697e-05
5.00624e-05
5.49728e-05
0.000187874
0.00018055
0.000172873
0.000164736
0.000155998
0.000146471
0.000135926
0.000124095
0.0001107
9.5523e-05
7.89058e-05
6.45709e-05
5.35831e-05
4.47468e-05
3.88687e-05
3.63639e-05
3.6858e-05
3.94786e-05
4.33605e-05
4.80189e-05
0.000166774
0.000160557
0.000154146
0.00014747
0.000140421
0.000132854
0.000124569
0.000115304
0.000104743
9.25361e-05
7.83898e-05
6.37996e-05
5.17173e-05
4.23351e-05
3.54591e-05
3.18653e-05
3.15041e-05
3.35669e-05
3.70751e-05
4.14201e-05
0.000144466
0.000139212
0.000133886
0.000128448
0.00012283
0.00011693
0.000110598
0.00010362
9.57064e-05
8.64914e-05
7.55703e-05
6.26317e-05
5.01414e-05
4.02701e-05
3.26738e-05
2.8039e-05
2.67434e-05
2.81603e-05
3.12302e-05
3.51953e-05
0.000121447
0.000117045
0.000112657
0.000108268
0.000103842
9.93198e-05
9.46065e-05
8.9553e-05
8.3939e-05
7.74553e-05
6.97041e-05
6.02585e-05
4.88622e-05
3.82077e-05
3.03117e-05
2.48403e-05
2.25918e-05
2.3287e-05
2.58595e-05
2.93796e-05
9.82391e-05
9.46136e-05
9.10583e-05
8.75719e-05
8.41432e-05
8.07457e-05
7.73293e-05
7.38075e-05
7.00373e-05
6.57926e-05
6.07342e-05
5.43962e-05
4.62498e-05
3.66569e-05
2.81023e-05
2.21674e-05
1.90442e-05
1.89701e-05
2.10009e-05
2.4029e-05
7.53901e-05
7.25006e-05
6.97121e-05
6.70313e-05
6.44595e-05
6.199e-05
5.9604e-05
5.72625e-05
5.48914e-05
5.23578e-05
4.94322e-05
4.57388e-05
4.07209e-05
3.3727e-05
2.59972e-05
1.98577e-05
1.60577e-05
1.52148e-05
1.66812e-05
1.91968e-05
5.35155e-05
5.13449e-05
4.9288e-05
4.73529e-05
4.55446e-05
4.3865e-05
4.23114e-05
4.08726e-05
3.9522e-05
3.82032e-05
3.68037e-05
3.5111e-05
3.27503e-05
2.91412e-05
2.36473e-05
1.75497e-05
1.3499e-05
1.19909e-05
1.29031e-05
1.49412e-05
3.34046e-05
3.19445e-05
3.05944e-05
2.93589e-05
2.82417e-05
2.72456e-05
2.63728e-05
2.56241e-05
2.49962e-05
2.44751e-05
2.40219e-05
2.35531e-05
2.28904e-05
2.1681e-05
1.93072e-05
1.53181e-05
1.11169e-05
9.20499e-06
9.60392e-06
1.08379e-05
1.62923e-05
1.55117e-05
1.48151e-05
1.42024e-05
1.36743e-05
1.32319e-05
1.28778e-05
1.26161e-05
1.24519e-05
1.23862e-05
1.23992e-05
1.24668e-05
1.25102e-05
1.23979e-05
1.1958e-05
1.07324e-05
8.41765e-06
6.61937e-06
6.73153e-06
7.03635e-06
4.41511e-06
4.17878e-06
3.97543e-06
3.80355e-06
3.66264e-06
3.55314e-06
3.47678e-06
3.437e-06
3.43917e-06
3.4853e-06
3.51294e-06
3.52854e-06
3.56036e-06
3.63972e-06
3.76021e-06
3.91167e-06
4.08976e-06
4.1925e-06
4.3036e-06
4.49153e-06
1.28927e-07
1.16476e-07
1.05797e-07
9.67196e-08
8.90884e-08
8.27731e-08
7.76752e-08
7.37351e-08
7.09361e-08
6.94054e-08
7.29643e-08
7.94502e-08
8.86167e-08
1.0157e-07
1.19647e-07
1.45325e-07
1.91007e-07
3.02438e-07
8.8273e-07
2.21262e-06
0.0026366
0.00260598
0.00257435
0.00254155
0.00250744
0.00247187
0.0024347
0.0023958
0.00235506
0.00231237
0.00226762
0.00222076
0.00217173
0.00212051
0.00206708
0.00201148
0.00195376
0.00189401
0.00183232
0.00176884
0.00170374
0.00163722
0.00156947
0.00150075
0.00143131
0.00136142
0.00129135
0.00122141
0.00115188
0.00108305
0.00101521
0.000948629
0.000883576
0.000820293
0.000759002
0.000699903
0.000643164
0.000588924
0.000537286
0.000488315
0.000442034
0.000398422
0.000357409
0.000318872
0.000282634
0.00024846
0.000216054
0.000185067
0.00015511
0.000125788
9.67935e-05
6.81316e-05
4.07488e-05
1.80476e-05
5.67702e-06
0.00263453
0.00260352
0.00257147
0.00253821
0.00250362
0.00246755
0.00242986
0.00239042
0.00234913
0.00230588
0.00226059
0.00221318
0.00216363
0.00211191
0.00205803
0.00200201
0.00194393
0.00188386
0.00182193
0.00175829
0.00169309
0.00162654
0.00155885
0.00149027
0.00142104
0.00135144
0.00128175
0.00121224
0.00114319
0.00107491
0.00100765
0.000941694
0.000877284
0.000814655
0.000754019
0.000695563
0.000639445
0.000585792
0.000534695
0.000486208
0.000440343
0.000397071
0.000356313
0.000317939
0.000281767
0.000247559
0.000215022
0.000183816
0.000153573
0.000123945
9.47279e-05
6.615e-05
3.9555e-05
1.84382e-05
7.20193e-06
0.00263234
0.00260092
0.00256843
0.00253471
0.00249963
0.00246304
0.00242482
0.00238484
0.00234299
0.00229919
0.00225334
0.0022054
0.00215534
0.00210313
0.0020488
0.00199238
0.00193394
0.00187359
0.00181143
0.00174763
0.00168236
0.0016158
0.0015482
0.00147977
0.00141078
0.00134149
0.00127217
0.0012031
0.00113456
0.00106682
0.00100015
0.000934815
0.000871044
0.000809064
0.000749076
0.000691253
0.000635743
0.000582662
0.000532089
0.000484068
0.000438602
0.000395652
0.000355132
0.000316906
0.00028079
0.000246545
0.000213887
0.000182495
0.000152039
0.000122249
9.30632e-05
6.49364e-05
3.94056e-05
2.01527e-05
9.70834e-06
0.00263001
0.00259818
0.00256524
0.00253105
0.00249547
0.00245835
0.00241959
0.00237906
0.00233666
0.00229229
0.0022459
0.00219743
0.00214685
0.00209417
0.0020394
0.00198259
0.00192382
0.00186319
0.00180083
0.00173689
0.00167156
0.00160502
0.00153751
0.00146926
0.00140052
0.00133155
0.00126262
0.001194
0.00112597
0.00105879
0.000992713
0.000927994
0.00086486
0.000803523
0.000744172
0.000686972
0.000632057
0.000579532
0.000529467
0.000481896
0.000436812
0.000394168
0.000353871
0.000315783
0.000279717
0.000245443
0.000212688
0.000181162
0.000150588
0.000120792