/*--------------------------------*- C++ -*----------------------------------*\
  =========                 |
  \\      /  F ield         | OpenFOAM: The Open Source CFD Toolbox
   \\    /   O peration     | Website:  https://openfoam.org
    \\  /    A nd           | Version:  10
     \\/     M anipulation  |
\*---------------------------------------------------------------------------*/
FoamFile
{
    format      ascii;
    class       volScalarField;
    location    "41000";
    object      yPlus;
}
// * * * * * * * * * * * * * * * * * * * * * * * * * * * * * * * * * * * * * //

dimensions      [0 0 0 0 0 0 0];

internalField   uniform 0;

boundaryField
{
    right
    {
        type            cyclic;
    }
    left
    {
        type            cyclic;
    }
    outerWall
    {
        type            calculated;
        value           nonuniform List<scalar> 0();
    }
    stirrerWall
    {
        type            calculated;
        value           nonuniform List<scalar> 
98
(
1.75905
1.67195
1.59347
1.52357
1.46223
1.40945
1.36536
1.33028
1.30479
1.29063
1.32331
1.38087
1.45836
1.56131
1.69456
1.86757
2.14107
2.69416
4.60277
10.043
16.631
11.0702
9.89579
10.8534
11.411
11.5086
11.458
11.258
10.9814
10.6754
10.4211
10.2133
10.0514
9.9318
9.84833
9.79416
9.76547
9.76037
9.77746
9.81564
9.87409
9.95226
10.0498
10.1669
10.3034
10.4603
10.6382
10.8378
11.0583
11.295
11.4853
10.8946
11.2893
11.512
11.6572
10.595
10.2682
10.2226
10.7255
11.0563
17.4637
17.6826
17.9059
18.1328
18.364
18.5997
18.8404
19.0864
19.3379
19.5957
19.8599
20.1311
20.4101
20.6975
20.9935
21.2992
21.6167
21.9475
22.2918
22.6503
23.0258
23.4122
23.8228
24.2507
24.7219
25.2093
25.7304
26.3031
26.9258
27.5837
28.2626
29.0135
29.8903
30.932
32.147
33.4011
34.7848
36.6141
)
;
    }
    top
    {
        type            empty;
    }
    bottom
    {
        type            empty;
    }
    procBoundary0to1
    {
        type            processor;
        value           uniform 0;
    }
    procBoundary0to3
    {
        type            processor;
        value           uniform 0;
    }
}


// ************************************************************************* //
