/*--------------------------------*- C++ -*----------------------------------*\
  =========                 |
  \\      /  F ield         | OpenFOAM: The Open Source CFD Toolbox
   \\    /   O peration     | Website:  https://openfoam.org
    \\  /    A nd           | Version:  10
     \\/     M anipulation  |
\*---------------------------------------------------------------------------*/
FoamFile
{
    format      ascii;
    class       volScalarField;
    location    "44000";
    object      Co;
}
// * * * * * * * * * * * * * * * * * * * * * * * * * * * * * * * * * * * * * //

dimensions      [0 0 0 0 0 0 0];

internalField   nonuniform List<scalar> 
17969
(
76.9398
52.6774
51.8295
46.2094
42.9639
44.4599
47.7542
53.0515
67.0921
99.4984
148.103
219.418
303.476
395.818
490.322
580.674
661.65
729.933
784.066
824.279
851.962
868.988
877.406
879.118
875.734
868.595
858.75
846.989
833.894
819.883
805.249
790.196
774.855
759.315
743.638
727.867
712.034
696.164
680.274
664.379
648.491
632.62
616.774
600.959
585.183
569.45
553.764
538.13
522.552
507.031
491.571
476.174
460.843
445.578
430.381
415.254
400.197
385.211
370.296
355.454
340.684
325.988
311.364
296.814
282.337
267.935
253.607
239.355
225.18
211.083
197.065
183.129
169.277
155.513
145.668
139.768
134.171
137.904
144.278
150.369
156.198
161.779
167.127
172.252
177.165
181.873
186.385
190.708
194.853
198.83
202.646
206.302
209.795
213.129
216.312
219.353
222.261
225.046
227.714
230.277
78.2677
51.6899
54.6242
53.5108
49.7431
43.6435
40.7428
42.8798
46.6193
52.2928
66.0484
95.4646
137.807
200.674
275.281
358.817
446.778
533.95
615.432
687.417
747.631
795.188
830.472
854.716
869.502
876.544
877.423
873.509
865.973
855.754
843.576
829.994
815.427
800.185
784.478
768.454
752.215
735.834
719.359
702.829
686.27
669.702
653.143
636.605
620.098
603.63
587.209
570.838
554.524
538.27
522.08
505.956
489.9
473.914
457.999
442.158
426.39
410.697
395.079
379.536
364.068
348.676
333.36
318.119
302.954
287.865
272.851
257.914
243.054
228.272
213.569
198.946
184.408
169.956
159.778
153.886
148.29
149.041
155.512
161.69
167.593
173.237
178.634
183.797
188.735
193.458
197.973
202.286
206.402
210.328
214.073
217.648
221.055
224.294
227.371
230.298
233.083
235.738
238.271
240.695
79.3083
49.756
54.2375
55.8362
55.4299
53.5127
49.8782
44.0069
39.2357
39.6144
43.6345
49.5201
61.7578
88.2238
123.818
178.677
244.111
318.604
399.093
481.465
561.441
635.169
699.741
753.482
795.811
827.166
848.638
861.585
867.471
867.628
863.248
855.374
844.845
832.339
818.394
803.423
787.732
771.542
755.012
738.253
721.342
704.337
687.278
670.195
653.111
636.044
619.006
602.009
585.06
568.167
551.333
534.564
517.862
501.23
484.671
468.185
451.774
435.439
419.181
402.998
386.893
370.864
354.912
339.036
323.236
307.512
291.863
276.289
260.791
245.369
230.023
214.755
199.568
184.464
173.981
168.124
162.551
159.932
166.487
172.735
178.696
184.383
189.809
194.986
199.925
204.634
209.123
213.396
217.459
221.315
224.969
228.427
231.698
234.791
237.711
240.471
243.083
245.559
247.911
250.15
80.3526
47.8521
52.6696
55.4641
56.6814
56.9118
56.14
54.1249
50.4394
44.5225
38.0844
36.9987
41.2388
47.206
57.0647
80.7579
110.264
157.019
213.758
279.149
351.369
427.481
503.898
577.067
643.872
702.001
750.168
787.987
815.926
834.965
846.284
851.137
850.658
845.883
837.738
826.991
814.275
800.101
784.871
768.89
752.382
735.511
718.393
701.114
683.734
666.298
648.838
631.379
613.939
596.533
579.17
561.86
544.609
527.422
510.302
493.252
476.275
459.371
442.542
425.788
409.11
392.508
375.982
359.53
343.153
326.85
310.62
294.462
278.377
262.363
246.421
230.551
214.756
199.038
188.285
182.489
176.963
172.136
177.205
183.504
189.501
195.208
200.638
205.803
210.713
215.377
219.803
223.999
227.97
231.719
235.25
238.565
241.668
244.568
247.278
249.816
252.204
254.454
256.578
258.587
260.494
262.31
264.049
265.724
81.4554
46.0865
50.7687
54.0006
55.8697
57.025
57.5608
57.4102
56.3937
54.2031
50.4213
44.5633
37.3291
35.4549
39.7448
45.6116
53.2262
73.6204
99.4096
136.962
185.818
242.559
306.299
375.131
446.343
516.832
583.592
644.045
696.318
739.424
773.147
797.973
814.783
824.609
828.505
827.443
822.339
814.007
803.144
790.336
776.065
760.718
744.594
727.917
710.853
693.524
676.018
658.401
640.719
623.008
605.294
587.597
569.931
552.309
534.737
517.224
499.772
482.386
465.068
447.821
430.644
413.54
396.507
379.545
362.654
345.833
329.082
312.398
295.78
279.228
262.741
246.318
229.96
213.67
202.683
196.979
191.525
186.322
187.658
193.985
199.991
205.691
211.097
216.218
221.064
225.645
229.968
234.041
237.87
241.461
244.819
247.946
250.845
253.522
255.984
258.255
260.371
262.352
264.205
265.941
267.571
269.108
270.567
271.961
82.6754
44.5557
48.9717
52.3031
54.3453
55.797
56.8141
57.4126
57.543
57.0898
55.8543
53.5443
49.7949
44.1838
36.891
34.7394
38.8703
44.4302
51.531
66.8432
89.5147
118.942
161.098
210.061
265.653
326.835
391.724
457.842
522.481
583.082
637.513
684.268
722.617
752.506
774.423
789.144
797.563
800.556
798.961
793.584
785.134
774.238
761.434
747.177
731.835
715.694
698.977
681.849
664.435
646.824
629.086
611.27
593.415
575.548
557.69
539.855
522.057
504.304
486.603
468.957
451.372
433.848
416.388
398.992
381.66
364.391
347.184
330.038
312.95
295.92
278.945
262.023
245.155
228.34
217.161
211.583
206.228
201.105
198.258
204.152
210.14
215.802
221.147
226.187
230.929
235.382
239.553
243.45
247.081
250.454
253.578
256.461
259.109
261.527
263.72
265.704
267.521
269.198
270.74
272.157
273.46
274.665
275.787
276.843
84.0199
43.2608
47.3999
50.6702
52.6386
54.0587
55.1324
55.9166
56.4163
56.6016
56.404
55.7025
54.312
51.9778
48.3834
43.1543
36.6539
34.8911
38.6857
43.7774
50.2671
60.7611
80.8792
104.416
140.028
182.328
230.54
284.235
342.265
402.815
463.654
522.424
576.961
625.529
666.966
700.762
726.993
746.134
758.865
765.945
768.085
766.006
760.397
751.882
741.024
728.316
714.177
698.95
682.909
666.267
649.189
631.796
614.188
596.431
578.577
560.666
542.727
524.785
506.855
488.949
471.077
453.246
435.462
417.725
400.04
382.406
364.823
347.29
329.805
312.366
294.969
277.612
260.294
243.012
231.69
226.276
221.051
216.028
211.216
213.965
219.901
225.486
230.73
235.643
240.232
244.504
248.466
252.126
255.496
258.588
261.418
264.004
266.357
268.486
270.393
272.081
273.578
274.914
276.096
277.134
278.043
278.844
279.558
280.206
280.813
85.5002
42.2428
46.1685
49.3128
51.0811
52.2932
53.1954
53.8721
54.354
54.6445
54.7272
54.5641
54.0862
53.1823
51.6908
49.3944
46.0189
41.2338
36.5145
36.0071
39.3444
43.8559
49.6479
56.7763
73.6986
94.4991
122.595
159.459
201.27
248.053
299.214
353.556
409.373
464.682
517.48
565.978
608.787
645.047
674.455
697.182
713.683
724.538
730.335
731.672
729.16
723.379
714.871
704.136
691.617
677.695
662.688
646.849
630.382
613.447
596.172
578.651
560.958
543.144
525.251
507.31
489.347
471.38
453.422
435.479
417.562
399.676
381.82
363.997
346.206
328.444
310.707
292.994
275.299
257.621
246.216
241.017
235.96
231.058
226.34
224.113
229.182
234.644
239.738
244.471
248.849
252.879
256.569
259.93
262.98
265.738
268.231
270.485
272.518
274.34
275.943
277.31
278.446
279.375
280.114
280.683
281.108
281.415
281.636
281.798
281.931
282.059
282.206
87.1184
41.5278
45.3472
48.3476
49.8616
50.7849
51.4043
51.8258
52.0959
52.2341
52.2434
52.1161
51.8322
51.3544
50.6199
49.531
47.9502
45.6967
42.5361
38.1807
36.4134
38.267
41.0768
44.9395
49.9805
56.2703
68.0998
86.6496
108.463
140.946
177.464
218.165
262.867
310.869
360.995
411.694
461.233
507.955
550.43
587.574
618.814
644.049
663.494
677.54
686.64
691.251
691.867
688.981
683.081
674.637
664.085
651.823
638.197
623.489
607.938
591.738
575.043
557.972
540.624
523.066
505.366
487.561
469.679
451.746
433.787
415.817
397.842
379.866
361.895
343.928
325.962
307.994
290.021
272.038
260.631
255.714
250.881
246.139
241.516
237.043
237.817
243.106
247.996
252.488
256.595
260.325
263.692
266.713
269.418
271.834
273.988
275.9
277.585
279.042
280.256
281.196
281.851
282.25
282.427
282.417
282.255
281.981
281.631
281.242
280.848
280.475
280.15
279.892
88.8761
41.1394
44.9884
47.8396
49.0982
49.723
50.034
50.1534
50.1371
50.0133
49.7968
49.4911
49.0928
48.5917
47.9685
47.1897
46.2006
44.9189
43.2301
40.9846
39.3333
39.2717
40.1671
41.6702
43.9406
47.1364
51.3934
56.8086
64.123
80.7094
99.5243
126.135
158.347
193.95
232.909
274.897
319.163
364.608
409.861
453.442
494.023
530.511
562.16
588.65
609.998
626.422
638.222
645.705
649.218
649.148
645.906
639.911
631.568
621.254
609.313
596.047
581.718
566.54
550.695
534.319
517.532
500.425
483.079
465.541
447.881
430.115
412.261
394.346
376.39
358.396
340.358
322.282
304.167
286.008
274.706
270.161
265.636
261.127
256.648
252.238
248.707
250.617
255.225
259.418
263.215
266.632
269.68
272.379
274.76
276.843
278.638
280.147
281.363
282.282
282.898
283.206
283.212
282.949
282.457
281.779
280.963
280.053
279.094
278.128
277.189
276.308
275.512
274.817
274.238
273.785
90.767
41.0938
45.1436
47.8621
48.8917
49.2433
49.2678
49.1002
48.8032
48.4059
47.9267
47.3746
46.7532
46.229
45.9089
45.647
45.3553
45.0433
44.7264
44.4293
44.1875
44.0489
44.0766
44.3511
44.9804
46.0965
47.85
50.3977
53.8849
58.4257
64.0907
76.5273
93.328
114.379
143.068
174.506
208.627
245.245
283.949
323.99
364.366
403.9
441.408
475.876
506.539
532.984
555.104
572.953
586.629
596.295
602.187
604.591
603.828
600.239
594.171
585.96
575.925
564.354
551.507
537.616
522.882
507.468
491.504
475.081
458.291
441.198
423.881
406.406
388.803
371.072
353.217
335.257
317.203
299.053
288.005
283.952
279.854
275.701
271.492
267.242
262.977
260.134
261.178
265.012
268.462
271.538
274.254
276.622
278.641
280.303
281.597
282.52
283.077
283.277
283.136
282.674
281.921
280.915
279.697
278.317
276.824
275.27
273.705
272.172
270.709
269.348
268.11
267.014
266.07
265.285
264.661
264.198
263.893
263.741
92.7809
41.3786
45.7797
48.4318
49.2697
49.5088
49.8459
50.3092
50.6621
50.934
51.14
51.2886
51.3844
51.4305
51.4284
51.3793
51.2842
51.1452
50.9656
50.7521
50.5166
50.279
50.0678
49.9206
49.8876
50.0349
50.4495
51.2436
52.5514
54.5204
57.2987
61.0141
65.7594
73.8954
88.8834
105.642
130.761
158.743
188.892
221.018
254.797
289.735
325.143
360.154
393.822
425.281
453.843
479.097
500.839
518.986
533.526
544.518
552.089
556.42
557.737
556.295
552.366
546.228
538.154
528.407
517.216
504.814
491.384
477.126
462.197
446.684
430.684
414.301
397.584
380.578
363.303
345.812
328.143
310.299
299.732
296.339
292.829
289.189
285.416
281.511
277.487
273.366
270.08
269.804
272.049
274.622
276.824
278.66
280.115
281.174
281.823
282.055
281.876
281.309
280.384
279.135
277.604
275.837
273.884
271.799
269.639
267.462
265.32
263.26
261.318
259.525
257.9
256.458
255.204
254.143
253.272
252.588
252.084
251.753
94.9186
42.0071
46.8224
49.7273
51.325
52.5126
53.3779
54.0602
54.6232
55.1
55.5067
55.8542
56.149
56.3947
56.593
56.7445
56.8491
56.9063
56.9155
56.8771
56.7926
56.6662
56.5067
56.3296
56.158
56.0225
55.9625
56.0302
56.2941
56.8455
57.7984
59.2856
61.449
64.4228
68.3156
73.197
85.9074
100.825
120.711
145.669
172.427
200.753
230.36
260.84
291.65
322.152
351.661
379.521
405.224
428.412
448.835
466.327
480.8
492.238
500.684
506.238
509.042
509.27
507.125
502.82
496.569
488.594
479.089
468.264
456.296
443.314
429.462
414.909
399.785
384.215
368.261
351.954
335.287
318.263
308.554
306.09
303.401
300.48
297.328
293.948
290.348
286.539
282.532
278.336
276.822
275.726
276.777
277.902
278.612
278.915
278.81
278.288
277.348
276.008
274.304
272.28
269.987
267.48
264.818
262.065
259.285
256.539
253.885
251.366
249.021
246.873
244.939
243.229
241.743
240.481
239.435
238.599
237.963
237.516
97.1723
43.0024
48.6467
52.3001
54.4359
55.8113
56.8355
57.6635
58.3666
58.9815
59.5287
60.0204
60.464
60.8637
61.2218
61.5392
61.8157
62.0503
62.2413
62.3872
62.4861
62.537
62.5398
62.4967
62.4137
62.302
62.1804
62.0739
62.0141
62.042
62.2115
62.5947
63.2851
64.3963
66.0559
68.3942
71.5278
75.5448
84.0372
97.1915
112.356
134.502
158.152
183.075
208.984
235.52
262.247
288.648
314.216
338.506
361.145
381.826
400.312
416.428
430.06
441.152
449.699
455.741
459.359
460.665
459.796
456.915
452.179
445.76
437.836
428.57
418.126
406.62
394.143
380.796
366.713
352.049
336.894
321.274
312.892
311.661
310.062
308.109
305.808
303.166
300.188
296.885
293.267
289.345
285.129
280.635
278.397
276.292
273.833
273.16
272.24
270.912
269.185
267.07
264.6
261.83
258.818
255.629
252.333
248.997
245.692
242.48
239.419
236.552
233.911
231.517
229.38
227.504
225.883
224.512
223.38
222.476
221.786
221.297
99.52
44.3137
51.0256
55.1881
57.4729
58.9513
60.0623
60.9721
61.7572
62.4568
63.0934
63.6802
64.2256
64.7348
65.2106
65.6544
66.0663
66.4455
66.7903
67.0984
67.3671
67.5935
67.7748
67.9085
67.9932
68.0292
68.02
67.9737
67.905
67.8349
67.7897
67.8025
67.916
68.1864
68.6884
69.5149
70.7754
72.5878
75.0644
78.2999
83.0102
94.465
107.144
124.792
145.606
167.467
190.077
213.088
236.123
258.804
280.776
301.71
321.319
339.357
355.622
369.959
382.255
392.441
400.49
406.409
410.241
412.057
411.947
410.017
406.385
401.18
394.555
386.639
377.532
367.333
356.15
344.1
331.254
317.674
311.03
311.321
311.112
310.417
309.248
307.612
305.516
302.97
299.984
296.572
292.747
288.526
283.928
278.976
273.701
270.315
266.74
262.83
258.622
254.263
251.081
247.637
244.001
240.242
236.435
232.652
228.962
225.427
222.102
219.028
216.232
213.725
211.512
209.589
207.946
206.571
205.449
204.567
203.908
203.456
203.198
101.955
45.91
53.5732
58.0416
60.3634
61.8589
62.985
63.9134
64.723
65.4546
66.1313
66.7672
67.3712
67.9489
68.5037
69.0371
69.5496
70.0403
70.5075
70.9488
71.361
71.7403
72.0827
72.3839
72.6399
72.8472
73.003
73.1065
73.1594
73.1678
73.1429
73.1026
73.0703
73.0741
73.1487
73.3387
73.7027
74.3153
75.2661
76.656
78.588
81.1533
84.4212
92.4069
103.403
116.401
134.583
153.592
173.139
192.922
212.641
232.006
250.743
268.601
285.355
300.811
314.806
327.21
337.924
346.884
354.055
359.433
363.036
364.906
365.099
363.693
360.788
356.483
350.87
344.034
336.06
327.044
317.065
306.192
301.762
303.843
305.292
306.131
306.371
306.023
305.092
303.588
301.518
298.898
295.741
292.068
287.9
283.266
278.197
272.732
266.912
260.787
254.404
247.929
242.726
237.255
231.504
225.49
219.254
213.285
209.387
205.705
202.288
199.172
196.379
193.911
191.763
189.923
188.376
187.106
186.095
185.326
184.782
184.446
184.303
104.464
47.8889
56.3283
60.7805
63.032
64.4625
65.5352
66.4227
67.2036
67.9186
68.591
69.2349
69.8594
70.4702
71.0706
71.6624
72.2458
72.8199
73.3826
73.9309
74.4611
74.9685
75.4483
75.8951
76.3033
76.6675
76.9828
77.2449
77.4507
77.5988
77.6904
77.7302
77.7281
77.6993
77.6655
77.6523
77.6897
77.814
78.0717
78.522
79.2364
80.2973
81.7932
83.8096
86.4199
90.7336
100.197
110.492
124.582
140.938
157.686
174.569
191.339
207.761
223.618
238.709
252.858
265.91
277.736
288.231
297.314
304.932
311.051
315.661
318.772
320.41
320.624
319.474
317.023
313.335
308.477
302.519
295.529
287.568
285.489
289.4
292.596
295.096
296.91
298.045
298.499
298.275
297.38
295.82
293.609
290.763
287.306
283.265
278.675
273.577
268.014
262.038
255.699
249.048
242.12
234.873
227.214
219.101
210.534
201.993
195.334
188.657
182.042
177.543
174.923
172.65
170.708
169.079
167.744
166.682
165.873
165.299
164.943
164.789
164.823
107.036
50.0183
58.9941
63.2877
65.3762
66.6742
67.6379
68.4353
69.1431
69.8011
70.432
71.0497
71.6632
72.278
72.8974
73.5228
74.154
74.7895
75.4267
76.0616
76.6895
77.3048
77.9014
78.4726
79.0117
79.5118
79.9665
80.3699
80.7168
81.0032
81.2266
81.3863
81.4838
81.5243
81.5173
81.477
81.4232
81.3806
81.3766
81.4425
81.6156
81.9432
82.4824
83.2997
84.4688
86.0643
88.1527
90.7852
97.1836
105.935
115.253
129.167
143.393
157.69
171.85
185.677
198.994
211.638
223.468
234.359
244.211
252.939
260.481
266.792
271.849
275.642
278.182
279.494
279.609
278.57
276.421
273.213
268.997
263.82
263.94
269.488
274.307
278.404
281.779
284.434
286.354
287.534
287.967
287.653
286.595
284.804
282.294
279.09
275.225
270.737
265.673
260.083
254.022
247.545
240.706
233.517
225.902
217.802
209.211
200.149
190.68
180.891
170.882
162.804
156.445
150.581
148.977
147.68
146.664
145.907
145.387
145.087
144.989
145.081
145.349
145.781
109.638
52.1828
61.4062
65.4269
67.2917
68.412
69.2267
69.8973
70.4978
71.0668
71.6267
72.1911
72.7688
73.3651
73.9828
74.623
75.2847
75.9657
76.6621
77.3689
78.0801
78.7885
79.4866
80.1661
80.8187
81.4363
82.0109
82.5354
83.0034
83.4096
83.7502
84.0225
84.2258
84.361
84.4315
84.4433
84.4062
84.3346
84.2468
84.1664
84.1192
84.1337
84.241
84.4791
84.8936
85.5368
86.4665
87.7417
89.4162
91.532
94.1126
101.449
109.263
118.057
130.04
142.051
153.916
165.474
176.576
187.089
196.898
205.905
214.028
221.204
227.385
232.54
236.652
239.721
241.756
242.777
242.811
241.891
240.052
237.331
239.332
246.199
252.376
257.861
262.64
266.704
270.029
272.596
274.385
275.379
275.574
274.971
273.557
271.359
268.401
264.715
260.342
255.33
249.734
243.612
237.028
230.035
222.613
214.694
206.258
197.316
187.9
178.084
167.956
157.624
147.182
137.026
131.042
126.308
125.733
125.394
125.263
125.318
125.544
125.929
126.465
127.144
112.241
54.4041
63.6339
67.1779
68.7631
69.6616
70.2885
70.7971
71.2583
71.7093
72.1719
72.6594
73.1802
73.7393
74.339
74.9795
75.659
76.374
77.1192
77.8882
78.6731
79.4649
80.2541
81.0306
81.7844
82.5056
83.1849
83.814
84.3854
84.8931
85.3325
85.7003
85.9949
86.2163
86.3659
86.4472
86.4655
86.4281
86.3455
86.2318
86.1049
85.9861
85.9
85.8727
85.9313
86.1053
86.4301
86.9453
87.6934
88.7168
90.055
91.7387
93.7864
96.8594
103.344
110.084
117.495
127.512
137.385
146.981
156.179
164.87
172.961
180.375
187.048
192.932
197.996
202.219
205.594
208.124
209.821
210.706
210.802
210.135
213.651
221.494
228.72
235.321
241.274
246.554
251.129
254.966
258.032
260.29
261.722
262.342
262.095
260.987
259.044
256.285
252.741
248.454
243.473
237.853
231.658
224.954
217.783
210.122
201.94
193.239
184.036
174.38
164.337
153.995
143.445
132.765
121.983
112.28
106.656
105.354
105.674
106.143
106.747
107.473
108.316
109.272
114.84
56.6873
65.958
69.0492
70.42
71.2127
71.727
72.0647
72.2676
72.353
72.3272
72.4789
72.906
73.4138
73.9835
74.6142
75.3029
76.0446
76.8325
77.6579
78.5109
79.3804
80.2546
81.1212
81.9682
82.7839
83.5576
84.2795
84.9414
85.5366
86.06
86.508
86.8789
87.1724
87.3898
87.5338
87.6084
87.6191
87.5729
87.4784
87.3465
87.1904
87.027
86.8757
86.7585
86.6985
86.7195
86.8444
87.0985
87.5099
88.1078
88.9209
89.9749
91.2902
92.8777
94.7378
97.3851
102.894
108.503
114.129
122.186
130.124
137.723
144.898
151.578
157.702
163.224
168.112
172.345
175.914
178.819
181.069
182.681
183.673
188.358
196.869
204.858
212.306
219.185
225.46
231.09
236.032
240.243
243.669
246.257
248.03
248.935
248.94
248.054
246.285
243.654
240.192
235.939
230.946
225.267
218.962
212.089
204.679
196.745
188.302
179.365
169.96
160.13
149.935
139.443
128.726
117.842
106.819
95.6652
88.7799
86.5356
87.4326
88.4399
89.5478
90.7499
92.0443
117.386
58.8173
68.4131
71.7646
73.4774
74.6327
75.5091
76.2013
76.7493
77.1699
77.4689
77.6466
77.6997
77.6232
77.4102
77.0535
76.545
75.8768
75.8907
76.719
77.6382
78.5831
79.5394
80.4927
81.4286
82.3336
83.1954
84.003
84.7472
85.4206
86.0179
86.5355
86.9717
87.3263
87.6008
87.7979
87.9215
87.9767
87.9694
87.9066
87.7962
87.6473
87.4706
87.2782
87.0849
86.9082
86.7665
86.6792
86.666
86.7449
86.9324
87.2467
87.7062
88.3283
89.1274
90.1139
91.2917
92.6563
94.1936
95.879
100.251
104.728
109.116
114.898
121.21
127.186
132.772
137.928
142.622
146.837
150.562
153.799
156.556
158.847
164.399
173.326
181.833
189.894
197.476
204.536
211.026
216.893
222.086
226.548
230.205
233.04
235.014
236.091
236.248
235.481
233.794
231.207
227.75
223.464
218.397
212.605
206.14
199.054
191.387
183.177
174.463
165.278
155.66
145.654
135.308
124.676
113.806
102.74
91.508
80.1306
71.847
69.6258
71.0822
72.6161
74.2241
75.9068
119.876
60.8048
70.6042
74.2583
76.3656
77.9331
79.2167
80.3067
81.2417
82.0379
82.7009
83.2309
83.6246
83.8763
83.979
83.9248
83.7051
83.3113
82.7349
81.9681
81.0042
79.8378
78.9391
79.1991
80.2229
81.2154
82.1625
83.0522
83.8744
84.6212
85.287
85.8682
86.3633
86.7723
87.0971
87.3407
87.5071
87.6016
87.6298
87.5982
87.5138
87.3841
87.2173
87.0221
86.8083
86.5868
86.3694
86.1706
86.0056
85.8895
85.8367
85.8611
85.9736
86.1831
86.4991
86.9296
87.4801
88.1518
88.9411
89.8378
90.8236
91.8731
92.9519
95.6149
98.9926
102.203
106.713
111.823
116.657
121.191
125.41
129.309
132.891
136.165
142.329
151.471
160.296
168.776
176.872
184.535
191.711
198.341
204.363
209.71
214.315
218.123
221.083
223.154
224.302
224.503
223.748
222.039
219.395
215.846
211.435
206.213
200.236
193.56
186.238
178.322
169.861
160.9
151.484
141.658
131.466
120.954
110.164
99.1352
87.9019
76.4944
64.9367
56.2985
55.104
57.1434
59.2306
61.3669
122.273
62.5568
72.4921
76.4915
79.0327
81.0512
82.7807
84.3066
85.6652
86.8725
87.9342
88.8507
89.6184
90.2314
90.6823
90.9623
91.0623
90.9727
90.6842
90.1883
89.4776
88.5462
87.3899
86.0066
84.3964
82.5615
81.3052
81.4921
82.3916
83.2106
83.9433
84.5862
85.1379
85.5989
85.9713
86.2583
86.4644
86.5951
86.656
86.6536
86.5946
86.486
86.3349
86.1487
85.9349
85.7013
85.4562
85.2085
84.9675
84.7435
84.5481
84.3928
84.2868
84.2381
84.2537
84.3366
84.4874
84.706
84.9898
85.332
85.7209
86.1396
86.5646
86.9653
87.3045
87.5379
89.1801
91.5109
94.3804
98.9861
103.439
107.734
111.87
115.856
122.42
131.619
140.607
149.349
157.803
165.916
173.629
180.877
187.59
193.695
199.119
203.791
207.65
210.638
212.71
213.826
213.962
213.105
211.259
208.445
204.7
200.073
194.622
188.406
181.489
173.928
165.78
157.098
147.93
138.324
128.325
117.974
107.312
96.3761
85.1993
73.813
62.246
50.5258
42.552
43.3415
45.9618
48.6116
124.572
63.9664
74.0029
78.4002
81.4197
83.9263
86.1348
88.1271
89.9396
91.5884
93.0796
94.4133
95.5857
96.5908
97.4203
98.0647
98.5139
98.7573
98.7847
98.5865
98.1544
97.4817
96.564
95.399
93.9868
92.3302
90.4341
88.3059
85.9545
83.3908
82.2583
82.7645
83.3741
83.888
84.3084
84.6391
84.8849
85.0512
85.1442
85.1703
85.1362
85.0486
84.9143
84.7401
84.5325
84.2981
84.0433
83.7745
83.4979
83.2199
82.9477
82.6874
82.4456
82.2299
82.0457
81.8953
81.7795
81.6971
81.6427
81.6076
81.5806
81.5469
81.4865
81.3745
81.1807
80.8689
80.3964
79.7137
79.5513
81.1263
84.4799
88.9765
93.4601
97.9405
104.737
113.876
122.906
131.788
140.477
148.916
157.043
164.787
172.073
178.823
184.954
190.389
195.052
198.876
201.799
203.768
204.742
204.695
203.618
201.518
198.436
194.415
189.513
183.795
177.326
170.173
162.394
154.046
145.183
135.852
126.098
115.963
105.485
94.6981
83.6358
72.3281
60.8034
49.0888
37.2103
31.3912
34.5482
37.7327
126.761
64.9422
75.0578
79.9019
83.4388
86.467
89.1872
91.6776
93.9749
96.0955
98.0458
99.8262
101.433
102.859
104.096
105.134
105.961
106.565
106.935
107.061
106.933
106.543
105.886
104.96
103.765
102.303
100.58
98.6049
96.3876
93.9402
91.2761
88.4097
85.356
82.8754
82.1865
82.5638
82.8515
83.0553
83.1816
83.237
83.2282
83.1619
83.0448
82.8834
82.6838
82.4521
82.1938
81.9141
81.6178
81.3095
80.9934
80.6729
80.3514
80.0328
79.7186
79.4104
79.1096
78.8145
78.5194
78.2161
77.8935
77.5356
77.1219
76.6292
76.0301
75.2916
74.3752
73.2368
71.8261
70.0865
70.0229
72.7467
77.4459
82.2694
89.1838
98.1878
107.176
116.109
124.938
133.607
142.05
150.192
157.954
165.25
171.995
178.101
183.483
188.062
191.763
194.518
196.273
196.989
196.645
195.237
192.8
189.389
185.05
179.855
173.873
167.171
159.81
151.851
143.345
134.343
124.888
115.02
104.777
94.1928
83.298
72.1224
60.6936
49.038
37.1812
25.6725
25.0754
28.7821
128.829
65.4078
75.6051
80.9433
85.0317
88.6116
91.8711
94.8868
97.6953
100.314
102.75
105.004
107.071
108.946
110.617
112.075
113.307
114.299
115.04
115.516
115.717
115.634
115.261
114.595
113.635
112.385
110.851
109.041
106.969
104.646
102.089
99.3124
96.3341
93.1707
89.8392
86.3566
82.7392
80.8564
80.8462
80.9329
80.9509
80.9068
80.8074
80.6591
80.4681
80.2399
79.9799
79.6927
79.3825
79.0529
78.7067
78.346
77.9726
77.5871
77.1891
76.7779
76.3521
75.9076
75.4387
74.9378
74.3936
73.7902
73.1086
72.3273
71.4191
70.3512
69.0863
67.5825
65.792
63.6608
61.1294
59.981
63.4891
68.5729
75.5444
84.3795
93.2798
102.208
111.115
119.945
128.63
137.094
145.253
153.018
160.297
166.995
173.021
178.281
182.69
186.166
188.641
190.063
190.408
189.672
187.87
185.072
181.304
176.651
171.183
164.967
158.066
150.54
142.441
133.817
124.711
115.163
105.208
94.8787
84.2045
73.2136
61.9327
50.3873
38.6023
26.6019
18.196
21.7679
130.769
65.2767
75.5852
81.4636
86.1339
90.2916
94.115
97.6798
101.024
104.165
107.11
109.861
112.414
114.761
116.893
118.797
120.459
121.866
123.003
123.855
124.411
124.661
124.595
124.211
123.508
122.488
121.159
119.529
117.613
115.425
112.981
110.3
107.401
104.302
101.021
97.5787
93.9916
90.2775
86.4531
82.5343
79.4652
78.3545
78.2737
78.139
77.9565
77.7318
77.4701
77.1761
76.8535
76.5055
76.1344
75.7418
75.328
74.8928
74.4344
73.9503
73.4368
72.8878
72.2956
71.6512
70.9415
70.1509
69.262
68.2539
67.0998
65.7684
64.224
62.4257
60.3259
57.8714
55.0037
51.6581
51.2061
56.5228
63.5372
72.2066
81.0074
89.9058
98.857
107.805
116.683
125.414
133.912
142.084
149.833
157.059
163.661
169.538
174.591
178.727
181.867
183.948
184.935
184.825
183.633
181.436
178.254
174.165
169.237
163.54
157.136
150.083
142.434
134.234
125.527
116.348
106.732
96.7094
86.3082
75.5547
64.4742
53.0906
41.4276
29.5086
17.357
16.6181
132.589
64.4853
74.9064
81.3722
86.6598
91.4247
95.8386
99.9775
103.88
107.567
111.045
114.316
117.377
120.22
122.835
125.208
127.326
129.172
130.731
131.987
132.925
133.533
133.801
133.724
133.299
132.53
131.424
129.99
128.243
126.199
123.878
121.299
118.482
115.45
112.222
108.819
105.261
101.567
97.7551
93.8421
89.8448
85.7784
81.6578
77.497
75.2771
74.9895
74.7256
74.424
74.0886
73.7224
73.3277
72.9056
72.4561
71.9783
71.4699
70.9272
70.3451
69.7161
69.0313
68.2793
67.4461
66.5152
65.4686
64.2841
62.9346
61.39
59.6164
57.5735
55.2149
52.4889
49.3374
45.6952
41.9413
45.7967
52.8695
61.4014
70.1167
78.9869
87.9716
97.0181
106.061
115.024
123.819
132.352
140.521
148.221
155.345
161.781
167.42
172.161
175.914
178.611
180.212
180.708
180.111
178.487
175.882
172.361
167.99
162.834
156.956
150.411
143.249
135.516
127.25
118.487
109.259
99.5937
89.5169
79.0531
68.2253
57.0557
45.5662
33.7788
21.7156
13.2511
134.298
63.0595
73.5571
80.6359
86.5631
91.9557
96.9798
101.712
106.194
110.447
114.478
118.29
121.88
125.239
128.357
131.221
133.817
136.126
138.133
139.819
141.166
142.161
142.791
143.047
142.927
142.433
141.569
140.349
138.787
136.9
134.711
132.24
129.512
126.55
123.376
120.014
116.484
112.809
109.007
105.097
101.096
97.0221
92.8892
88.7125
84.5056
80.2814
76.0519
72.6269
71.1393
70.7538
70.3346
69.8828
69.3984
68.8802
68.3255
67.7302
67.0882
66.3914
65.6297
64.7907
63.8594
62.8186
61.6488
60.3264
58.8238
57.1105
55.1519
52.9075
50.332
47.3752
43.9794
40.0801
35.6059
36.1226
43.28
51.7129
60.371
69.2306
78.2562
87.3988
96.5956
105.771
114.837
123.698
132.249
140.381
147.977
154.921
161.094
166.384
170.697
173.96
176.132
177.203
177.193
176.144
174.113
171.163
167.357
162.76
157.43
151.42
144.779
137.548
129.765
121.461
112.667
103.407
93.7047
83.5823
73.0598
62.1572
50.894
39.2901
27.366
15.1429
17.0732
135.89
60.9835
71.5295
79.232
85.8043
91.8317
97.4761
102.816
107.893
112.728
117.332
121.705
125.841
129.735
133.375
136.748
139.841
142.636
145.115
147.259
149.046
150.458
151.48
152.1
152.313
152.119
151.523
150.537
149.177
147.463
145.417
143.065
140.432
137.545
134.428
131.107
127.607
123.948
120.154
116.245
112.238
108.152
104.003
99.8071
95.5773
91.3274
87.0696
82.8154
78.5748
74.3573
70.1711
67.2817
66.1942
65.6352
65.0348
64.3885
63.69
62.9307
62.1
61.1849
60.1697
59.0363
57.7642
56.329
54.7022
52.8526
50.7444
48.3363
45.5827
42.4329
38.8292
34.7075
29.9961
27.2976
34.5633
42.9337
51.5655
60.4387
69.5215
78.7684
88.1189
97.4988
106.821
115.988
124.892
133.419
141.449
148.854
155.511
161.303
166.13
169.918
172.626
174.244
174.79
174.305
172.843
170.465
167.232
163.205
158.44
152.988
146.894
140.197
132.932
125.127
116.809
108
98.7215
88.9911
78.8265
68.2444
57.2618
45.8956
34.164
22.0859
17.1319
137.382
58.2202
68.7776
77.1054
84.3171
90.9767
97.244
103.199
108.885
114.323
119.52
124.474
129.179
133.625
137.802
141.7
145.308
148.609
151.586
154.215
156.472
158.335
159.783
160.801
161.379
161.515
161.214
160.487
159.35
157.826
155.94
153.718
151.189
148.383
145.328
142.051
138.58
134.939
131.151
127.24
123.224
119.123
114.955
110.735
106.479
102.2
97.9102
93.6217
89.3447
85.0884
80.8611
76.6694
72.519
68.4138
64.3562
61.4603
60.1776
59.3578
58.4616
57.4758
56.3842
55.1682
53.8064
52.2737
50.5411
48.5764
46.3427
43.7983
40.8965
37.5856
33.807
29.4957
24.5791
19.6404
26.562
34.9012
43.5345
52.4449
61.6034
70.967
80.4772
90.0607
99.6306
109.088
118.323
127.217
135.642
143.469
150.567
156.815
162.112
166.386
169.595
171.73
172.809
172.871
171.967
170.156
167.496
164.046
159.858
154.98
149.454
143.316
136.599
129.327
121.524
113.209
104.4
95.1106
85.3555
75.1479
64.5009
53.4285
41.9453
30.0675
19.8143
138.804
54.7495
65.2642
74.2046
82.0338
89.3075
96.1877
102.757
109.061
115.121
120.938
126.504
131.803
136.822
141.552
145.988
150.126
153.954
157.452
160.596
163.357
165.706
167.617
169.069
170.049
170.549
170.574
170.133
169.245
167.933
166.223
164.146
161.734
159.018
156.03
152.802
149.362
145.739
141.958
138.043
134.016
129.898
125.707
121.46
117.174
112.861
108.536
104.21
99.893
95.5947
91.323
87.0846
82.8847
78.727
74.6137
70.5447
66.5181
62.5297
58.5727
54.8563
52.5187
51.2257
49.7817
48.1611
46.3344
44.2685
41.9258
39.2636
36.2347
32.786
28.8577
24.3837
19.2898
13.493
19.1452
27.4822
36.1423
45.1117
54.3638
63.8576
73.5358
83.3253
93.1387
102.875
112.423
121.657
130.448
138.658
146.156
152.818
158.545
163.266
166.942
169.564
171.151
171.739
171.378
170.123
168.031
165.156
161.549
157.254
152.311
146.752
140.606
133.896
126.642
118.859
110.561
101.76
92.4639
82.6835
72.4277
61.7064
50.5303
38.9116
26.8646
140.23
50.6767
61.052
70.5486
78.9348
86.771
94.2244
101.383
108.297
114.988
121.454
127.673
133.606
139.228