/*--------------------------------*- C++ -*----------------------------------*\
  =========                 |
  \\      /  F ield         | OpenFOAM: The Open Source CFD Toolbox
   \\    /   O peration     | Website:  https://openfoam.org
    \\  /    A nd           | Version:  10
     \\/     M anipulation  |
\*---------------------------------------------------------------------------*/
FoamFile
{
    format      ascii;
    class       volScalarField;
    location    "44000";
    object      k;
}
// * * * * * * * * * * * * * * * * * * * * * * * * * * * * * * * * * * * * * //

dimensions      [0 2 -2 0 0 0 0];

internalField   nonuniform List<scalar> 
17969
(
1.1182e-05
0.000282652
0.000796006
0.00151942
0.00229266
0.00314356
0.00416682
0.0054225
0.00697336
0.00883351
0.0108647
0.0128304
0.0144445
0.0155741
0.0162225
0.0164886
0.0165072
0.0164112
0.016308
0.0162486
0.0162901
0.0164704
0.0167949
0.0172515
0.0178192
0.0184738
0.0191916
0.0199507
0.0207324
0.0215215
0.0223069
0.0230807
0.0238374
0.0245737
0.0252873
0.0259771
0.0266424
0.0272829
0.0278987
0.0284896
0.0290558
0.0295973
0.0301143
0.0306068
0.0310748
0.0315184
0.0319376
0.0323324
0.0327029
0.0330492
0.0333714
0.0336698
0.0339446
0.0341961
0.0344247
0.034631
0.0348155
0.0349788
0.0351218
0.0352453
0.0353501
0.0354373
0.035508
0.0355633
0.0356043
0.0356323
0.0356482
0.0356533
0.0356485
0.0356346
0.0356123
0.0355819
0.0355436
0.0354969
0.0354422
0.0353803
0.0353119
0.0352371
0.0351531
0.0350603
0.034961
0.0348578
0.0347541
0.0346539
0.0345617
0.0344825
0.034422
0.0343862
0.0343819
0.0344158
0.0344953
0.0346291
0.0348288
0.0351049
0.035467
0.0359246
0.036482
0.0371426
0.0379156
0.038808
5.50274e-06
0.000142031
0.000426396
0.000870318
0.00134397
0.00185785
0.00247894
0.00324799
0.00421175
0.00542887
0.00695322
0.00877469
0.0107494
0.0127046
0.0144362
0.0157711
0.0166602
0.0171467
0.0173277
0.0173144
0.017213
0.0171075
0.0170366
0.0170512
0.017185
0.0174464
0.0178288
0.0183167
0.018891
0.019532
0.0202207
0.02094
0.0216754
0.0224145
0.0231481
0.0238695
0.0245737
0.0252577
0.0259191
0.0265567
0.0271695
0.0277572
0.0283195
0.0288561
0.0293672
0.0298528
0.0303128
0.0307475
0.031157
0.0315413
0.0319008
0.0322357
0.0325463
0.0328329
0.033096
0.033336
0.0335536
0.0337495
0.0339243
0.0340789
0.0342141
0.034331
0.0344306
0.034514
0.0345823
0.0346366
0.034678
0.0347077
0.0347265
0.0347353
0.0347347
0.034725
0.0347064
0.0346785
0.0346412
0.0345952
0.0345412
0.0344798
0.0344074
0.0343254
0.0342359
0.0341418
0.0340465
0.0339539
0.0338689
0.0337968
0.0337438
0.0337168
0.0337232
0.0337705
0.0338663
0.0340173
0.0342321
0.0345231
0.0349031
0.0353823
0.035966
0.0366587
0.0374707
0.0384094
3.16032e-06
8.22637e-05
0.000252359
0.000540787
0.000846267
0.00115991
0.00151773
0.00196053
0.0025246
0.00324786
0.0041743
0.00534495
0.00680436
0.00855534
0.0104572
0.0123703
0.0141775
0.0156918
0.0168254
0.0175664
0.0179654
0.018106
0.0180797
0.0179738
0.017859
0.0177673
0.0177481
0.0178334
0.018034
0.0183469
0.0187612
0.0192612
0.0198299
0.0204505
0.0211073
0.0217861
0.0224749
0.0231638
0.0238448
0.0245122
0.0251615
0.0257898
0.026395
0.0269759
0.0275315
0.0280613
0.0285651
0.0290427
0.0294941
0.0299196
0.0303191
0.0306931
0.0310419
0.0313657
0.0316652
0.0319407
0.0321929
0.0324225
0.0326301
0.0328167
0.032983
0.0331301
0.033259
0.0333706
0.0334662
0.0335469
0.0336137
0.0336677
0.0337098
0.033741
0.0337618
0.0337727
0.0337737
0.0337647
0.0337452
0.0337158
0.0336773
0.0336308
0.0335722
0.0335033
0.0334267
0.033345
0.0332617
0.0331808
0.033107
0.0330459
0.033004
0.0329888
0.0330087
0.0330726
0.0331894
0.0333671
0.033612
0.0339316
0.034339
0.0348497
0.0354698
0.0362052
0.0370672
0.0380639
2.20004e-06
5.73199e-05
0.000174125
0.00038242
0.00060071
0.000810882
0.0010329
0.00129146
0.00161088
0.00201432
0.00253745
0.00322249
0.00409733
0.00519848
0.00656508
0.00822418
0.0100545
0.0119123
0.0137389
0.0153936
0.0167501
0.0177524
0.0184026
0.0187485
0.0188622
0.018822
0.0187042
0.0185715
0.0184513
0.0183945
0.0184317
0.0185746
0.0188228
0.0191681
0.0195977
0.0200966
0.0206497
0.0212422
0.021861
0.0224943
0.023132
0.023766
0.0243898
0.0249982
0.0255876
0.0261552
0.0266992
0.0272183
0.0277118
0.0281792
0.0286203
0.0290352
0.029424
0.029787
0.0301247
0.0304374
0.0307258
0.0309905
0.0312322
0.0314518
0.0316501
0.031828
0.0319867
0.032127
0.0322501
0.0323572
0.0324493
0.0325274
0.0325927
0.032646
0.032688
0.0327193
0.03274
0.0327502
0.0327492
0.0327375
0.0327156
0.0326847
0.0326434
0.0325915
0.0325313
0.032466
0.0323989
0.032334
0.0322761
0.0322308
0.032205
0.0322065
0.0322443
0.0323286
0.0324697
0.0326778
0.032961
0.0333249
0.0337759
0.0343284
0.0349955
0.0357846
0.0367082
0.0377753
0.0389912
0.0403578
0.0418734
0.0435329
1.74435e-06
4.55155e-05
0.000136163
0.000303275
0.000477747
0.000636893
0.000792883
0.000959472
0.00115206
0.00138713
0.00167925
0.00205138
0.00253905
0.00317876
0.00399331
0.00501587
0.0062803
0.00783194
0.00958503
0.0114072
0.0132203
0.0149594
0.0164935
0.0177336
0.0186408
0.0192232
0.019525
0.0196108
0.0195507
0.0194135
0.0192557
0.0191035
0.0190082
0.0189979
0.0190849
0.0192706
0.0195488
0.0199089
0.0203378
0.0208217
0.0213472
0.0219016
0.0224737
0.0230538
0.0236336
0.0242063
0.0247665
0.0253101
0.0258338
0.0263352
0.0268129
0.0272658
0.0276932
0.0280949
0.0284709
0.0288214
0.0291467
0.0294475
0.0297242
0.0299777
0.0302088
0.0304183
0.0306073
0.0307767
0.0309277
0.0310614
0.0311788
0.0312812
0.0313696
0.031445
0.0315083
0.0315602
0.0316012
0.0316315
0.0316505
0.0316584
0.0316557
0.0316434
0.0316223
0.0315904
0.0315504
0.0315055
0.031459
0.0314149
0.031378
0.0313542
0.0313504
0.0313747
0.0314366
0.031547
0.0317177
0.0319603
0.0322856
0.032701
0.0332102
0.0338201
0.0345447
0.0353991
0.0363969
0.0375475
0.0388567
0.0403263
0.0419541
0.0437339
1.49738e-06
3.91439e-05
0.00011556
0.000260137
0.000412151
0.000546275
0.000670678
0.000794434
0.000925844
0.00107436
0.0012524
0.001469
0.00173723
0.00208275
0.00253501
0.00312848
0.00388428
0.00483399
0.00600836
0.00744618
0.00911223
0.0108977
0.0126923
0.0144623
0.0161181
0.0175512
0.0186953
0.0195221
0.0200436
0.0203019
0.0203567
0.0202721
0.0201112
0.0199207
0.0197356
0.0196013
0.0195435
0.0195748
0.019698
0.0199088
0.0201982
0.0205551
0.0209671
0.0214217
0.0219072
0.0224127
0.0229289
0.0234475
0.0239618
0.0244663
0.0249567
0.0254294
0.025882
0.0263126
0.02672
0.0271033
0.0274624
0.027797
0.0281074
0.028394
0.0286574
0.0288984
0.0291178
0.0293164
0.0294954
0.0296559
0.029799
0.0299258
0.0300376
0.0301356
0.0302208
0.0302943
0.0303568
0.030409
0.0304502
0.0304803
0.0304998
0.0305096
0.0305106
0.0305024
0.0304867
0.0304664
0.0304453
0.0304272
0.0304172
0.030421
0.0304458
0.0304999
0.0305932
0.0307372
0.0309444
0.031228
0.0316003
0.0320715
0.0326467
0.0333258
0.0341196
0.0350522
0.0361378
0.0373867
0.0388047
0.0403932
0.0421491
0.0440645
1.35309e-06
3.54365e-05
0.000103484
0.00023486
0.000374935
0.000496655
0.000605852
0.000709461
0.000812966
0.000921457
0.00104079
0.00117897
0.00134406
0.00154342
0.00179123
0.00211025
0.00252705
0.00307306
0.00376975
0.00464705
0.00573375
0.00706276
0.00864514
0.0103921
0.0121765
0.0139448
0.0156644
0.0172396
0.018583
0.0196411
0.0203948
0.020859
0.0210747
0.0210974
0.0209874
0.0208018
0.0205773
0.0203581
0.020184
0.0200778
0.0200526
0.0201121
0.0202536
0.02047
0.0207518
0.021088
0.0214673
0.0218785
0.0223116
0.0227574
0.0232081
0.0236571
0.0240989
0.0245291
0.0249442
0.0253418
0.0257197
0.0260767
0.0264119
0.0267249
0.0270156
0.0272841
0.0275311
0.0277569
0.0279626
0.028149
0.0283172
0.0284683
0.0286038
0.0287248
0.0288327
0.0289287
0.0290142
0.0290899
0.0291555
0.0292103
0.0292548
0.0292892
0.0293136
0.0293335
0.0293465
0.0293557
0.029365
0.0293786
0.0294015
0.0294396
0.0295001
0.0295914
0.0297239
0.0299092
0.0301608
0.0304927
0.0309185
0.0314499
0.0320938
0.0328495
0.0337265
0.034751
0.0359397
0.0373031
0.0388467
0.0405709
0.042471
0.0445373
0.0467555
1.27472e-06
3.34221e-05
9.66937e-05
0.000220373
0.000354188
0.000469885
0.000571819
0.00066586
0.000756286
0.000846479
0.000939642
0.00103942
0.00115063
0.00128026
0.00143374
0.00161736
0.0018455
0.00213823
0.00251999
0.00301789
0.00365558
0.00446187
0.00546486
0.00669233
0.0081813
0.00986385
0.0116416
0.0134234
0.015167
0.0168306
0.0183263
0.0195841
0.0205613
0.0212468
0.0216582
0.0218352
0.0218296
0.0216968
0.0214882
0.0212316
0.0209793
0.0207648
0.0206101
0.0205279
0.0205223
0.0205921
0.020732
0.0209343
0.0211893
0.0214872
0.0218179
0.0221718
0.0225406
0.0229169
0.0232941
0.023667
0.0240313
0.0243835
0.0247211
0.025042
0.0253449
0.0256289
0.0258935
0.0261388
0.0263649
0.0265723
0.0267619
0.0269346
0.0270916
0.0272341
0.0273637
0.0274819
0.0275901
0.0276898
0.0277804
0.0278614
0.0279334
0.0279964
0.0280505
0.0280987
0.0281433
0.028186
0.0282306
0.0282814
0.0283434
0.0284224
0.0285255
0.0286613
0.0288401
0.029074
0.0293771
0.0297644
0.0302506
0.0308485
0.0315662
0.0324039
0.0333745
0.0345066
0.0358151
0.0373101
0.0389962
0.0408724
0.0429319
0.0451627
0.047548
0.0500674
0.0526983
1.24727e-06
3.27146e-05
9.38876e-05
0.000213824
0.00034503
0.000458328
0.000557144
0.000646817
0.000731113
0.000812735
0.000893885
0.000976665
0.00106341
0.00115707
0.00126178
0.00138356
0.00152653
0.00169599
0.00190532
0.0021725
0.00252029
0.00296983
0.00354844
0.00428517
0.005209
0.00634666
0.0077301
0.00934208
0.0110922
0.0128746
0.0146414
0.0163489
0.0179483
0.0193628
0.0205376
0.0214398
0.0220643
0.0224308
0.0225772
0.0225505
0.0224007
0.0221643
0.0218848
0.0216048
0.0213536
0.0211518
0.0210116
0.0209383
0.0209326
0.0209911
0.021108
0.0212756
0.0214853
0.0217285
0.0219968
0.0222821
0.0225777
0.0228775
0.0231764
0.0234702
0.0237555
0.0240298
0.0242911
0.024538
0.0247696
0.0249858
0.0251865
0.0253721
0.0255435
0.0257018
0.0258483
0.0259844
0.0261121
0.0262329
0.0263465
0.0264525
0.026552
0.0266454
0.0267324
0.0268127
0.0268934
0.0269741
0.027059
0.0271525
0.0272594
0.0273853
0.0275373
0.0277237
0.0279547
0.0282427
0.0286021
0.0290492
0.0296007
0.0302712
0.0310697
0.0320005
0.03308
0.0343343
0.0357778
0.0374197
0.0392632
0.0413053
0.0435367
0.0459428
0.0485038
0.0511967
0.0539963
0.0568765
1.26467e-06
3.31542e-05
9.45246e-05
0.000213942
0.000345281
0.00045857
0.000556703
0.000644789
0.000726409
0.000804018
0.000879446
0.000954226
0.00102982
0.00110779
0.00119002
0.00127901
0.00137829
0.00149313
0.00162703
0.00178428
0.00197666
0.00221919
0.00253016
0.00293211
0.00345129
0.00411642
0.0049568
0.00599943
0.0072711
0.00879963
0.0105019
0.0122758
0.0140606
0.0158051
0.0174661
0.0189961
0.0203297
0.0214261
0.0222611
0.0228346
0.0231673
0.0232938
0.0232567
0.0230951
0.022843
0.0225476
0.0222428
0.0219557
0.0217055
0.021505
0.0213611
0.0212763
0.0212493
0.021276
0.0213508
0.0214668
0.0216168
0.0217933
0.0219897
0.0221995
0.0224171
0.0226379
0.0228578
0.0230735
0.0232827
0.0234836
0.0236747
0.0238556
0.0240263
0.0241873
0.0243394
0.0244839
0.0246225
0.0247573
0.0248877
0.0250137
0.0251367
0.0252584
0.025379
0.0254981
0.0256183
0.0257435
0.0258735
0.0260138
0.0261701
0.0263477
0.026553
0.026794
0.0270811
0.0274258
0.0278422
0.028347
0.0289614
0.0297062
0.0305988
0.0316461
0.0328535
0.0342414
0.0358318
0.0376326
0.0396452
0.0418641
0.0442772
0.0468662
0.0496086
0.0524783
0.0554476
0.0584886
0.0615738
0.0646778
1.32459e-06
3.46856e-05
9.84225e-05
0.000220051
0.000353682
0.000468676
0.000567721
0.000655873
0.000736704
0.000812615
0.000885317
0.000956151
0.00102627
0.00109675
0.0011687
0.00124338
0.00132239
0.00140786
0.00150282
0.00161176
0.00173802
0.00188459
0.00206036
0.00227883
0.00255646
0.00291381
0.00337565
0.00397027
0.00472788
0.00567811
0.0068468
0.00826684
0.00989716
0.0116451
0.0134223
0.0151928
0.0169009
0.0185006
0.0199543
0.0212092
0.022233
0.02301
0.023544
0.0238556
0.0239749
0.0239336
0.0237613
0.0235022
0.0231933
0.0228663
0.0225458
0.02225
0.0219918
0.0217791
0.021616
0.0215031
0.0214385
0.0214185
0.021438
0.0214916
0.0215732
0.0216771
0.0217979
0.0219304
0.0220707
0.022215
0.0223604
0.0225048
0.0226471
0.0227867
0.0229236
0.0230582
0.0231917
0.023326
0.0234606
0.0235952
0.0237319
0.0238729
0.0240194
0.0241722
0.0243327
0.024504
0.0246894
0.0248858
0.0250973
0.0253308
0.0255922
0.0258878
0.0262266
0.0266238
0.0270948
0.0276587
0.0283388
0.0291605
0.0301484
0.0313182
0.0326736
0.0342171
0.0359648
0.0379352
0.0401271
0.042532
0.0451339
0.0479112
0.0508376
0.0538842
0.057021
0.060218
0.063447
0.0666815
0.069898
0.0730757
0.0761966
0.0792458
1.42585e-06
3.72903e-05
0.000105511
0.000231678
0.000369224
0.00048714
0.000588195
0.000677431
0.000758566
0.000834042
0.00090557
0.000974431
0.00104166
0.00110816
0.00117477
0.00124235
0.00131181
0.00138423
0.00146098
0.00154384
0.00163533
0.00173912
0.00185896
0.00199692
0.0021591
0.00235733
0.00260594
0.00292317
0.00333169
0.00385842
0.00453329
0.00538709
0.00644724
0.00774277
0.0092789
0.0109754
0.0127268
0.0144888
0.0162243
0.0178839
0.019421
0.0207958
0.0219745
0.0229331
0.0236615
0.0241647
0.0244576
0.0245568
0.0245012
0.0243277
0.0240708
0.0237607
0.0234235
0.0230808
0.0227497
0.0224431
0.0221699
0.0219357
0.0217428
0.0215918
0.0214805
0.0214062
0.0213649
0.0213525
0.0213644
0.0213964
0.0214445
0.0215053
0.0215762
0.0216552
0.0217412
0.0218339
0.0219337
0.0220421
0.0221582
0.0222818
0.0224144
0.0225581
0.0227145
0.0228851
0.0230709
0.023274
0.0234985
0.023748
0.0240182
0.0243125
0.0246361
0.0249943
0.0253943
0.0258499
0.0263795
0.0270044
0.0277503
0.0286466
0.0297239
0.0310069
0.0325083
0.0342281
0.0361589
0.0383094
0.04069
0.0432882
0.0460838
0.0490513
0.0521609
0.0553807
0.0586786
0.0620234
0.0653858
0.0687392
0.0720601
0.0753281
0.0785259
0.0816394
1.57043e-06
4.10006e-05
0.000115819
0.000248493
0.000391068
0.000512423
0.0006159
0.000706818
0.000788913
0.000864689
0.000935901
0.00100385
0.00106954
0.00113384
0.00119747
0.00126113
0.0013255
0.00139129
0.00145929
0.00153042
0.00160586
0.00168711
0.00177625
0.00187629
0.00199129
0.00212301
0.00227484
0.00245682
0.00268121
0.00296373
0.00332431
0.00378739
0.00438126
0.00513633
0.00608166
0.00724318
0.00865727
0.0102614
0.0119669
0.0137045
0.0154347
0.0171166
0.0187099
0.0201754
0.0214735
0.0225728
0.0234558
0.0241174
0.0245687
0.0248294
0.0249245
0.0248815
0.0247281
0.0244912
0.0241957
0.0238637
0.0235145
0.0231639
0.0228245
0.0225061
0.022215
0.0219551
0.0217289
0.0215364
0.0213771
0.0212483
0.0211479
0.0210734
0.0210222
0.0209919
0.0209806
0.0209877
0.0210132
0.0210572
0.0211204
0.0212023
0.0213036
0.0214253
0.0215685
0.0217343
0.021924
0.022139
0.0223817
0.0226555
0.0229658
0.0233128
0.0236957
0.0241186
0.0245879
0.0251128
0.0257078
0.026396
0.0272072
0.028175
0.0293358
0.0307227
0.0323578
0.0342486
0.036383
0.038739
0.0413146
0.0441098
0.0470999
0.050255
0.0535421
0.0569268
0.0603752
0.063855
0.0673368
0.0707941
0.0742037
0.0775462
0.080805
0.0839669
1.76169e-06
4.5893e-05
0.000129588
0.000269716
0.000417783
0.000543304
0.000649747
0.000742681
0.000826041
0.000902465
0.000973792
0.00104137
0.00110624
0.00116924
0.00123107
0.00129238
0.00135375
0.00141574
0.00147893
0.00154395
0.00161147
0.00168231
0.00175746
0.00183822
0.00192632
0.00202424
0.00213565
0.00226292
0.00240782
0.00257749
0.00278264
0.00303647
0.00335602
0.00376266
0.00428212
0.00494354
0.00577739
0.00680963
0.00807199
0.00955222
0.0111757
0.012851
0.0145428
0.0162103
0.0178128
0.01931
0.0206675
0.0218547
0.0228522
0.0236543
0.0242635
0.0246903
0.0249504
0.0250628
0.0250484
0.0249288
0.0247256
0.0244591
0.0241482
0.0238095
0.0234574
0.0231039
0.0227586
0.0224287
0.0221199
0.0218354
0.0215767
0.0213454
0.0211422
0.0209669
0.0208197
0.0206998
0.0206078
0.0205449
0.020514
0.0205158
0.0205497
0.0206156
0.0207139
0.0208452
0.0210103
0.0212104
0.0214472
0.021723
0.0220409
0.0224048
0.0228203
0.0232899
0.0238166
0.0244064
0.0250718
0.0258312
0.0267109
0.0277492
0.0289897
0.0304738
0.0322313
0.0342766
0.0366057
0.0391863
0.0419784
0.0449689
0.0481485
0.0514831
0.0549365
0.0584725
0.0620558
0.065654
0.0692376
0.0727808
0.0762613
0.0796604
0.0829629
0.0861565
1.99805e-06
5.19225e-05
0.000146458
0.000294927
0.000449446
0.000579385
0.000688851
0.000783829
0.000868511
0.000945695
0.00101732
0.0010848
0.0011492
0.00121139
0.00127206
0.00133184
0.00139128
0.00145089
0.00151116
0.00157258
0.00163566
0.00170093
0.001769
0.00184058
0.00191653
0.00199794
0.00208626
0.00218353
0.00229266
0.00241709
0.00255797
0.00271898
0.00290959
0.0031408
0.00342688
0.00378595
0.00424028
0.0048158
0.0055407
0.00644085
0.00754094
0.00886912
0.0103666
0.0119531
0.0135738
0.01519
0.0167604
0.0182486
0.0196217
0.0208559
0.0219333
0.0228433
0.0235839
0.0241579
0.0245733
0.0248419
0.0249779
0.0249975
0.0249175
0.0247549
0.0245262
0.0242472
0.023932
0.0235933
0.023242
0.0228874
0.0225367
0.0221962
0.0218711
0.0215652
0.0212819
0.0210244
0.0207958
0.0206005
0.0204445
0.0203324
0.0202642
0.0202393
0.0202578
0.0203202
0.0204272
0.0205799
0.0207796
0.0210282
0.0213282
0.0216827
0.0220959
0.0225725
0.023119
0.0237455
0.0244628
0.0252876
0.0262429
0.0273591
0.0286794
0.030257
0.0321286
0.0343147
0.036817
0.0396078
0.0426322
0.0458334
0.0491904
0.0526894
0.0562917
0.0599597
0.0636577
0.0673535
0.0710183
0.0746272
0.0781591
0.0815964
0.0849249
0.0881337
0.0912141
2.2819e-06
5.90982e-05
0.000166028
0.000324111
0.000485491
0.000619833
0.000732211
0.000829133
0.000915079
0.000993019
0.001065
0.00113249
0.00119661
0.00125825
0.00131811
0.00137683
0.00143493
0.00149292
0.00155125
0.00161036
0.00167068
0.00173264
0.00179668
0.00186328
0.00193297
0.00200635
0.00208415
0.00216731
0.00225704
0.00235501
0.00246356
0.00258625
0.00272485
0.00288075
0.00306105
0.00327527
0.00353512
0.00385557
0.00425517
0.00475607
0.00538328
0.00616282
0.00711602
0.00827236
0.00961276
0.0110758
0.012588
0.0141141
0.0156158
0.0170583
0.0184145
0.0196607
0.0207802
0.0217615
0.0225976
0.0232869
0.023832
0.0242384
0.0245151
0.0246727
0.0247235
0.0246807
0.0245576
0.0243673
0.0241224
0.0238347
0.0235151
0.0231736
0.0228192
0.0224595
0.0221015
0.0217522
0.0214181
0.0211062
0.0208295
0.0205984
0.0204152
0.020281
0.0201972
0.0201651
0.0201862
0.0202621
0.0203947
0.020586
0.0208386
0.0211558
0.0215414
0.0220009
0.0225416
0.0231737
0.0239114
0.0247737
0.0257856
0.0269776
0.028386
0.0300588
0.0320443
0.0343645
0.0370218
0.0399927
0.0432245
0.0466438
0.0501841
0.0538239
0.0575503
0.061325
0.0651127
0.0688818
0.0726047
0.0762575
0.0798205
0.0832774
0.086615
0.0898234
0.0928952
2.61978e-06
6.75799e-05
0.000188164
0.000356927
0.000525298
0.000663869
0.000778955
0.000877656
0.000964755
0.00104339
0.00111571
0.00118326
0.00124719
0.00130841
0.00136766
0.00142556
0.00148267
0.00153946
0.0015964
0.0016539
0.00171235
0.00177216
0.00183369
0.00189732
0.00196344
0.00203246
0.00210483
0.00218105
0.00226175
0.00234771
0.00243995
0.00253987
0.0026494
0.00277133
0.00290889
0.00306281
0.00323655
0.00343878
0.0036791
0.0039698
0.00432607
0.00476622
0.00531122
0.00598375
0.00680301
0.00778789
0.00895502
0.0102593
0.0116379
0.0130453
0.0144501
0.0158199
0.0171282
0.018354
0.0194803
0.020494
0.021387
0.0221539
0.0227931
0.0233064
0.023698
0.0239742
0.0241429
0.0242134
0.0241956
0.0240997
0.0239361
0.0237153
0.0234474
0.0231418
0.0228076
0.0224536
0.0220891
0.0217238
0.0213755
0.0210604
0.0207856
0.0205556
0.0203745
0.020246
0.0201735
0.0201605
0.02021
0.0203255
0.0205105
0.020769
0.0211059
0.0215276
0.0220426
0.0226629
0.0234049
0.0242907
0.0253475
0.0266068
0.0281022
0.0298761
0.031977
0.034429
0.0372305
0.0403554
0.0437502
0.0473436
0.0510573
0.0548319
0.0586513
0.0625028
0.0663516
0.0701673
0.0739236
0.077598
0.081172
0.0846306
0.0879618
0.0911565
0.094208
3.01448e-06
7.73e-05
0.000213044
0.000393065
0.00056828
0.000710789
0.000828335
0.000928633
0.00101676
0.00109602
0.00116865
0.00123625
0.00130002
0.0013609
0.00141963
0.00147687
0.00153315
0.00158899
0.00164483
0.0017011
0.00175818
0.00181646
0.00187628
0.00193799
0.00200192
0.00206838
0.00213771
0.00221024
0.00228633
0.00236641
0.002451
0.00254076
0.00263654
0.00273954
0.00285136
0.00297429
0.00311182
0.00326554
0.00343648
0.00363123
0.00385816
0.00412718
0.00445058
0.00484291
0.00532081
0.0059024
0.00660528
0.00744186
0.00843069
0.00955888
0.0107859
0.0120536
0.0133371
0.0146093
0.0158438
0.0170195
0.0181192
0.0191301
0.0200414
0.0208463
0.0215407
0.022123
0.022594
0.0229566
0.0232152
0.0233753
0.023444
0.0234288
0.0233382
0.0231804
0.0229641
0.0226983
0.0223925
0.0220574
0.021712
0.0213768
0.0210634
0.0207807
0.0205363
0.0203371
0.0201896
0.0200995
0.0200723
0.0201135
0.0202285
0.020423
0.0207038
0.021079
0.0215592
0.022159
0.0228981
0.0238014
0.0248994
0.0262251
0.0278115
0.029694
0.0319127
0.0344911
0.0374228
0.0406783
0.044195
0.0479036
0.05174
0.0556314
0.0595322
0.06343
0.0673106
0.071145
0.0749089
0.0785817
0.0821466
0.0855897
0.0889003
0.09207
0.0950928
0.0979644
3.47186e-06
8.83549e-05
0.000240406
0.000432059
0.000613807
0.000759926
0.000879692
0.000981422
0.00107047
0.00115028
0.00122318
0.00129083
0.00135445
0.00141501
0.00147327
0.0015299
0.00158545
0.00164045
0.00169534
0.00175057
0.00180654
0.00186361
0.00192216
0.00198252
0.00204498
0.00210986
0.0021774
0.00224788
0.00232155
0.00239866
0.00247952
0.00256445
0.00265391
0.00274844
0.00284879
0.002956
0.00307148
0.00319714
0.00333577
0.00349059
0.00366214
0.00385337
0.00407209
0.00432624
0.00462557
0.00498143
0.0054066
0.00591473
0.00651978
0.00723163
0.00805701
0.00901243
0.0100697
0.0111941
0.0123436
0.0134983
0.014636
0.0157356
0.0167799
0.0177547
0.0186489
0.0194544
0.020165
0.0207769
0.0212885
0.0216997
0.0220124
0.0222297
0.022356
0.0223964
0.0223571
0.0222451
0.0220683
0.0218365
0.0215663
0.0212789
0.0209894
0.0207103
0.0204527
0.0202267
0.0200415
0.0199058
0.0198278
0.0198151
0.0198756
0.0200177
0.0202504
0.0205843
0.0210333
0.0216154
0.0223542
0.0232789
0.0244232
0.0258223
0.027509
0.0295098
0.0318494
0.0345454
0.0375798
0.0409167
0.0445111
0.0482982
0.0522089
0.0561751
0.0601392
0.0640669
0.0679482
0.0717717
0.0755158
0.0791619
0.0826951
0.0861035
0.0893778
0.0925104
0.0954957
0.0983303
3.99867e-06
0.000100929
0.00026974
0.000473225
0.000661155
0.000810613
0.000932422
0.00103547
0.00112536
0.00120567
0.00127882
0.0013465
0.00140997
0.0014702
0.001528
0.00158402
0.00163886
0.00169304
0.00174704
0.0018013
0.00185625
0.00191229
0.00196978
0.00202907
0.00209048
0.00215429
0.00222075
0.00229009
0.00236251
0.0024382
0.00251733
0.0026001
0.00268673
0.00277751
0.0028728
0.00297309
0.00307906
0.00319163
0.00331203
0.00344195
0.00358369
0.00374074
0.00391471
0.00410618
0.00432091
0.00456576
0.00484822
0.00517707
0.00556182
0.00601237
0.00653875
0.00715079
0.00785243
0.00864715
0.00954014
0.010507
0.01152
0.0125456
0.0135683
0.0145703
0.0155338
0.0164448
0.0172913
0.0180638
0.0187552
0.0193602
0.0198753
0.0202986
0.02063
0.0208707
0.021023
0.0210907
0.0210786
0.0209938
0.0208482
0.0206604
0.0204471
0.020223
0.0200016
0.0197953
0.0196155
0.0194734
0.0193796
0.0193439
0.0193763
0.0194881
0.0196915
0.0199999
0.0204307
0.0210064
0.0217552
0.0227108
0.0239106
0.0253916
0.0271856
0.0293151
0.0317821
0.0345796
0.0376977
0.0411021
0.0447412
0.0485562
0.0524852
0.0564673
0.0604473
0.0643822
0.0682465
0.0720316
0.0757273
0.0793169
0.0827868
0.0861292
0.0893414
0.0924201
0.0953602
0.0981571
4.60505e-06
0.000115131
0.000301119
0.000516092
0.000709781
0.000862339
0.000986052
0.00109033
0.00118101
0.00126179
0.00133516
0.00140287
0.00146615
0.00152603
0.00158332
0.0016387
0.00169278
0.0017461
0.00179918
0.00185246
0.00190641
0.00196144
0.00201796
0.00207633
0.00213689
0.00219993
0.0022657
0.00233443
0.00240629
0.00248143
0.00255997
0.00264203
0.00272772
0.00281717
0.00291056
0.00300812
0.00311019
0.00321722
0.00332983
0.00344886
0.00357546
0.00371112
0.0038578
0.00401819
0.00419563
0.00439042
0.00460446
0.00484431
0.00511562
0.00542501
0.00577961
0.00618668
0.00665306
0.00718508
0.00778779
0.0084612
0.00920487
0.0100204
0.0108874
0.0117847
0.0126841
0.0135729
0.014437
0.015262
0.0160358
0.0167484
0.0173918
0.0179595
0.0184469
0.0188513
0.019171
0.0194062
0.0195584
0.0196309
0.0196298
0.0195682
0.0194626
0.0193284
0.0191798
0.0190303
0.0188929
0.0187799
0.0187038
0.0186768
0.0187104
0.0188175
0.019014
0.0193168
0.0197472
0.0203321
0.0211046
0.0221029
0.0233675
0.0249362
0.0268382
0.029087
0.0316745
0.0345826
0.0377843
0.0412354
0.0448883
0.0486936
0.0525962
0.0565429
0.0604858
0.0643847
0.0682095
0.0719416
0.0755695
0.0790849
0.0824801
0.0857494
0.0888899
0.0918998
0.0947769
0.0975183
5.27762e-06
0.000130661
0.000334417
0.000560327
0.000759228
0.00091468
0.00104022
0.0011457
0.00123716
0.00131839
0.00139195
0.00145959
0.00152263
0.00158208
0.00163878
0.00169343
0.00174665
0.00179903
0.00185111
0.00190334
0.00195621
0.0020102
0.00206574
0.00212324
0.00218304
0.00224547
0.00231079
0.00237922
0.00245094
0.00252606
0.00260469
0.00268689
0.00277271
0.0028622
0.00295542
0.00305247
0.0031535
0.00325871
0.00336844
0.0034831
0.0036033
0.00372983
0.00386372
0.00400631
0.00415934
0.00432494
0.00450631
0.00470532
0.00492177
0.00515965
0.00542412
0.00571976
0.00605193
0.00642568
0.00684575
0.007316
0.00783945
0.00841789
0.00904854
0.00972734
0.0104557
0.0112169
0.011994
0.0127665
0.0135203
0.0142448
0.0149286
0.0155616
0.0161355
0.0166438
0.0170812
0.0174442
0.0177313
0.0179423
0.0180769
0.0181426
0.0181534
0.0181237
0.018067
0.0179966
0.0179259
0.0178678
0.0178352
0.0178417
0.0179007
0.0180271
0.0182383
0.018555
0.0190028
0.019613
0.0204233
0.0214757
0.0228127
0.024471
0.0264757
0.0288281
0.0315114
0.0345027
0.0377662
0.0412552
0.0449187
0.0487046
0.0525623
0.0564451
0.0603126
0.0641318
0.0678779
0.0715319
0.0750789
0.078509
0.0818163
0.0849973
0.0880505
0.0909768
0.0937763
0.0964482
6.02093e-06
0.000147433
0.000368634
0.000605217
0.000809011
0.000967185
0.00109447
0.00120111
0.00129333
0.00137502
0.00144875
0.00151634
0.0015791
0.00163809
0.00169413
0.00174795
0.00180019
0.00185145
0.00190231
0.00195329
0.00200494
0.00205776
0.00211228
0.00216891
0.00222797
0.00228985
0.00235484
0.00242318
0.00249501
0.00257046
0.00264961
0.00273248
0.00281908
0.0029094
0.00300345
0.00310124
0.00320279
0.00330819
0.00341759
0.00353119
0.00364931
0.00377238
0.00390097
0.00403582
0.00417788
0.00432835
0.00448873
0.00466078
0.00484665
0.00504967
0.00527017
0.00550798
0.00576796
0.00605349
0.00636799
0.00671516
0.00709795
0.00751879
0.007979
0.00847894
0.00901844
0.00959349
0.0101988
0.0108321
0.0114838
0.0121394
0.0127819
0.0133998
0.0139847
0.0145272
0.0150197
0.015456
0.0158314
0.0161425
0.0163836
0.0165566
0.0166723
0.0167427
0.0167799
0.0167958
0.0168024
0.0168124
0.0168388
0.0168954
0.0169967
0.0171592
0.0174023
0.0177495
0.0182302
0.01888
0.0197406
0.0208567
0.0222712
0.0240183
0.0261145
0.0285511
0.0313068
0.0343532
0.0376486
0.0411439
0.0447881
0.048531
0.0523259
0.0561313
0.0599118
0.0636385
0.0672887
0.0708447
0.0742933
0.0776248
0.0808322
0.0839107
0.0868613
0.0896886
0.0923962
0.0949857
6.82518e-06
0.000165356
0.000403363
0.000650279
0.000858661
0.00101941
0.00114836
0.00125613
0.00134909
0.00143119
0.00150507
0.00157254
0.00163496
0.00169337
0.00174864
0.0018015
0.00185264
0.00190267
0.00195222
0.00200187
0.0020522
0.00210375
0.00215706
0.00221262
0.00227085
0.00233216
0.00239692
0.0024653
0.0025374
0.00261338
0.00269332
0.00277719
0.00286496
0.00295661
0.00305208
0.00315132
0.00325429
0.003361
0.00347147
0.0035858
0.00370413
0.00382668
0.00395377
0.00408581
0.00422335
0.00436707
0.00451783
0.00467664
0.00484477
0.00502376
0.00521524
0.00542106
0.00564383
0.00588303
0.0061388
0.00641524
0.00671413
0.00703761
0.00738769
0.00776557
0.00817186
0.00860605
0.00906661
0.00955168
0.0100575
0.0105789
0.0111143
0.0116557
0.0121897
0.0127028
0.0131885
0.0136393
0.0140491
0.0144127
0.0147206
0.0149692
0.0151651
0.0153177
0.0154369
0.0155328
0.0156157
0.0156963
0.0157871
0.0159014
0.0160544
0.0162634
0.0165497
0.0169393
0.0174648
0.0181654
0.0190856
0.0202715
0.0217648
0.0235956
0.0257682
0.028267
0.0310705
0.0341434
0.0374405
0.0409124
0.0445094
0.0481843
0.0518944
0.0556026
0.0592775
0.0628937
0.066431
0.0698741
0.0732111
0.0764338
0.0795362
0.0825146
0.0853669
0.08809
0.0906919
0.0931847
7.68242e-06
0.000184147
0.000438085
0.000694955
0.000907673
0.00107087
0.00120143
0.0013103
0.00140396
0.00148644
0.00156039
0.00162767
0.00168962
0.00174732
0.00180166
0.0018534
0.00190325
0.00195189
0.00199998
0.00204815
0.00209704
0.00214725
0.00219936
0.00225391
0.00231135
0.0023721
0.0024365
0.00250479
0.00257716
0.00265376
0.00273472
0.00281979
0.00290896
0.00300222
0.00309946
0.00320057
0.00330547
0.00341411
0.00352645
0.00364248
0.00376226
0.00388589
0.00401351
0.00414536
0.00428175
0.00442306
0.00456977
0.0047225
0.00488195
0.005049
0.00522461
0.00540991
0.00560622
0.00581476
0.00603675
0.00627388
0.00652513
0.00679039
0.00707246
0.00737209
0.00769022
0.00802735
0.00838293
0.00875607
0.00914536
0.00954885
0.00996477
0.0103904
0.0108239
0.0112637
0.0116964
0.0121131
0.0125085
0.0128774
0.0132095
0.0134972
0.0137434
0.013954
0.0141359
0.014297
0.0144461
0.0145917
0.0147444
0.014917
0.0151244
0.0153846
0.0157203
0.0161597
0.0167378
0.0174965
0.018482
0.0197402
0.0213101
0.0232123
0.025442
0.0279823
0.0308075
0.0338781
0.0371479
0.0405683
0.0440918
0.047675
0.0512789
0.0548705
0.0584222
0.0619117
0.0653215
0.0686385
0.0718525
0.0749566
0.0779459
0.0808174
0.0835695
0.0862018
0.0887111
0.0911041
8.57828e-06
0.000203489
0.000472272
0.00073867
0.000955513
0.00112106
0.0012532
0.00136314
0.00145746
0.00154025
0.0016142
0.00168116
0.00174251
0.00179934
0.00185256
0.00190297
0.00195134
0.00199838
0.0020448
0.00209133
0.00213864
0.0021874
0.00223825
0.00229176
0.00234844
0.00240871
0.00247292
0.00254133
0.00261411
0.00269135
0.0027731
0.0028593
0.00294993
0.00304496
0.00314423
0.00324741
0.0033545
0.00346543
0.00358006
0.00369833
0.00382024
0.00394581
0.00407508
0.00420817
0.00434523
0.00448647
0.00463215
0.0047826
0.00493822
0.00509949
0.00526694
0.00544118
0.00562291
0.00581283
0.00601169
0.0062203
0.00643917
0.00666869
0.00690953
0.0071608
0.00742236
0.00769544
0.00797906
0.00827275
0.00857617
0.00888845
0.00920858
0.00953579
0.00986967
0.0102105
0.0105602
0.010913