/*--------------------------------*- C++ -*----------------------------------*\
  =========                 |
  \\      /  F ield         | OpenFOAM: The Open Source CFD Toolbox
   \\    /   O peration     | Website:  https://openfoam.org
    \\  /    A nd           | Version:  10
     \\/     M anipulation  |
\*---------------------------------------------------------------------------*/
FoamFile
{
    format      ascii;
    class       surfaceScalarField;
    location    "14000";
    object      phi;
}
// * * * * * * * * * * * * * * * * * * * * * * * * * * * * * * * * * * * * * //

dimensions      [0 3 -1 0 0 0 0];

internalField   nonuniform List<scalar> 
35585
(
1.45065e-07
-9.18596e-07
1.35988e-07
-9.28817e-07
1.27958e-07
-9.37008e-07
1.20954e-07
-9.43259e-07
1.14935e-07
-9.47672e-07
1.09853e-07
-9.5036e-07
1.05659e-07
-9.51435e-07
1.023e-07
-9.51009e-07
9.97243e-08
-9.4919e-07
9.7877e-08
-9.46084e-07
9.67049e-08
-9.41792e-07
9.61552e-08
-9.36413e-07
9.61771e-08
-9.30042e-07
9.67209e-08
-9.22768e-07
9.77386e-08
-9.14677e-07
9.91853e-08
-9.05851e-07
1.01018e-07
-8.96365e-07
1.03196e-07
-8.86291e-07
1.05681e-07
-8.75697e-07
1.08437e-07
-8.64645e-07
1.11432e-07
-8.53195e-07
1.14634e-07
-8.414e-07
1.18015e-07
-8.29311e-07
1.21548e-07
-8.16975e-07
1.2521e-07
-8.04435e-07
1.28978e-07
-7.91731e-07
1.32833e-07
-7.78899e-07
1.36755e-07
-7.65972e-07
1.40728e-07
-7.52982e-07
1.44738e-07
-7.39956e-07
1.48769e-07
-7.26918e-07
1.5281e-07
-7.13894e-07
1.56851e-07
-7.00903e-07
1.60881e-07
-6.87964e-07
1.64891e-07
-6.75095e-07
1.68874e-07
-6.62309e-07
1.72823e-07
-6.49623e-07
1.76731e-07
-6.37046e-07
1.80595e-07
-6.24592e-07
1.84408e-07
-6.12267e-07
1.88168e-07
-6.00083e-07
1.9187e-07
-5.88045e-07
1.95513e-07
-5.7616e-07
1.99094e-07
-5.64434e-07
2.02561e-07
-5.52939e-07
2.05839e-07
-5.41893e-07
2.08892e-07
-5.31511e-07
-5.21844e-07
2.11716e-07
1.99727e-07
-9.05795e-07
1.88154e-07
-9.17243e-07
1.77746e-07
-9.26601e-07
1.68461e-07
-9.33973e-07
1.60259e-07
-9.39469e-07
1.53095e-07
-9.43196e-07
1.4692e-07
-9.4526e-07
1.4168e-07
-9.4577e-07
1.37322e-07
-9.44832e-07
1.33789e-07
-9.42551e-07
1.31027e-07
-9.39029e-07
1.28979e-07
-9.34365e-07
1.27592e-07
-9.28654e-07
1.26812e-07
-9.21988e-07
1.26589e-07
-9.14454e-07
1.26874e-07
-9.06136e-07
1.27621e-07
-8.97111e-07
1.28784e-07
-8.87454e-07
1.30322e-07
-8.77235e-07
1.32196e-07
-8.66519e-07
1.34369e-07
-8.55368e-07
1.36807e-07
-8.43838e-07
1.39477e-07
-8.31981e-07
1.42351e-07
-8.19848e-07
1.454e-07
-8.07484e-07
1.486e-07
-7.94931e-07
1.51927e-07
-7.82226e-07
1.5536e-07
-7.69406e-07
1.58881e-07
-7.56502e-07
1.62471e-07
-7.43546e-07
1.66114e-07
-7.30562e-07
1.69796e-07
-7.17576e-07
1.73505e-07
-7.04611e-07
1.77227e-07
-6.91686e-07
1.80953e-07
-6.78821e-07
1.84673e-07
-6.6603e-07
1.88379e-07
-6.53328e-07
1.92063e-07
-6.4073e-07
1.95718e-07
-6.28247e-07
1.9934e-07
-6.15889e-07
2.02922e-07
-6.03665e-07
2.0646e-07
-5.91583e-07
2.0995e-07
-5.7965e-07
2.13389e-07
-5.67873e-07
2.16729e-07
-5.56279e-07
2.19895e-07
-5.4506e-07
2.22852e-07
-5.34468e-07
-5.24585e-07
2.25592e-07
2.52328e-07
2.3837e-07
2.25626e-07
2.14073e-07
2.0368e-07
-9.29077e-07
1.94411e-07
-9.33926e-07
1.86222e-07
-9.3707e-07
1.7906e-07
-9.38608e-07
1.72873e-07
-9.38645e-07
1.67604e-07
-9.37282e-07
1.63196e-07
-9.34622e-07
1.59594e-07
-9.30763e-07
1.5674e-07
-9.258e-07
1.54579e-07
-9.19828e-07
1.53058e-07
-9.12934e-07
1.52125e-07
-9.05203e-07
1.5173e-07
-8.96716e-07
1.51825e-07
-8.87549e-07
1.52365e-07
-8.77775e-07
1.53307e-07
-8.67462e-07
1.54612e-07
-8.56672e-07
1.5624e-07
-8.45466e-07
1.58156e-07
-8.33898e-07
1.60329e-07
-8.22021e-07
1.62727e-07
-8.09882e-07
1.65321e-07
-7.97526e-07
1.68087e-07
-7.84992e-07
1.71e-07
-7.72319e-07
1.74037e-07
-7.5954e-07
1.77179e-07
-7.46688e-07
1.80408e-07
-7.33791e-07
1.83706e-07
-7.20875e-07
1.87059e-07
-7.07964e-07
1.90452e-07
-6.9508e-07
1.93874e-07
-6.82242e-07
1.97312e-07
-6.69468e-07
2.00758e-07
-6.56774e-07
2.04202e-07
-6.44174e-07
2.07635e-07
-6.31681e-07
2.11051e-07
-6.19305e-07
2.14444e-07
-6.07057e-07
2.17808e-07
-5.94946e-07
2.21137e-07
-5.8298e-07
2.24427e-07
-5.71164e-07
2.27654e-07
-5.59505e-07
2.30756e-07
-5.48162e-07
2.33669e-07
-5.37382e-07
-5.27283e-07
2.36368e-07
2.46348e-07
-9.16533e-07
2.34993e-07
-9.22572e-07
2.24791e-07
-9.26868e-07
2.15695e-07
-9.29512e-07
2.07655e-07
-9.30604e-07
2.00617e-07
-9.30244e-07
1.94525e-07
-9.2853e-07
1.89324e-07
-9.25561e-07
1.84957e-07
-9.21433e-07
1.81366e-07
-9.16237e-07
1.78497e-07
-9.10064e-07
1.76295e-07
-9.03001e-07
1.74707e-07
-8.95129e-07
1.73684e-07
-8.86526e-07
1.73177e-07
-8.77268e-07
1.73139e-07
-8.67424e-07
1.73527e-07
-8.5706e-07
1.743e-07
-8.46239e-07
1.7542e-07
-8.35018e-07
1.76849e-07
-8.23451e-07
1.78555e-07
-8.11588e-07
1.80506e-07
-7.99476e-07
1.82673e-07
-7.87159e-07
1.85028e-07
-7.74674e-07
1.87548e-07
-7.6206e-07
1.9021e-07
-7.49349e-07
1.92992e-07
-7.36572e-07
1.95876e-07
-7.23758e-07
1.98844e-07
-7.10932e-07
2.0188e-07
-6.98116e-07
2.04971e-07
-6.85333e-07
2.08102e-07
-6.726e-07
2.11263e-07
-6.59935e-07
2.14443e-07
-6.47354e-07
2.17633e-07
-6.3487e-07
2.20823e-07
-6.22495e-07
2.24007e-07
-6.10241e-07
2.27177e-07
-5.98117e-07
2.30329e-07
-5.86131e-07
2.33455e-07
-5.74291e-07
2.36553e-07
-5.62603e-07
2.39563e-07
-5.51172e-07
2.42398e-07
-5.40216e-07
-5.29903e-07
2.45017e-07
2.87775e-07
-9.01826e-07
2.74314e-07
-9.09111e-07
2.62068e-07
-9.14622e-07
2.50999e-07
-9.18443e-07
2.41061e-07
-9.20667e-07
2.32205e-07
-9.21388e-07
2.24379e-07
-9.20704e-07
2.17526e-07
-9.18709e-07
2.1159e-07
-9.15497e-07
2.06515e-07
-9.11162e-07
2.02243e-07
-9.05793e-07
1.98718e-07
-8.99476e-07
1.95886e-07
-8.92297e-07
1.93694e-07
-8.84334e-07
1.92091e-07
-8.75664e-07
1.91027e-07
-8.6636e-07
1.90455e-07
-8.56489e-07
1.90332e-07
-8.46116e-07
1.90616e-07
-8.35301e-07
1.91266e-07
-8.24101e-07
1.92246e-07
-8.12568e-07
1.93522e-07
-8.00752e-07
1.95061e-07
-7.88697e-07
1.96833e-07
-7.76446e-07
1.9881e-07
-7.64037e-07
2.00968e-07
-7.51506e-07
2.03282e-07
-7.38887e-07
2.0573e-07
-7.26207e-07
2.08294e-07
-7.13495e-07
2.10954e-07
-7.00777e-07
2.13695e-07
-6.88073e-07
2.16501e-07
-6.75406e-07
2.19358e-07
-6.62793e-07
2.22255e-07
-6.50251e-07
2.25181e-07
-6.37795e-07
2.28124e-07
-6.25439e-07
2.31077e-07
-6.13194e-07
2.34031e-07
-6.0107e-07
2.36979e-07
-5.89079e-07
2.39914e-07
-5.77226e-07
2.42831e-07
-5.6552e-07
2.45675e-07
-5.54016e-07
2.48367e-07
-5.42908e-07
-5.32407e-07
2.50871e-07
3.28376e-07
3.12819e-07
-8.93554e-07
2.9853e-07
-9.00333e-07
2.85479e-07
-9.05392e-07
2.73629e-07
-9.08817e-07
2.62935e-07
-9.10694e-07
2.53346e-07
-9.11115e-07
2.4481e-07
-9.10172e-07
2.3727e-07
-9.07957e-07
2.3067e-07
-9.04562e-07
2.24953e-07
-9.00075e-07
2.20062e-07
-8.94585e-07
2.1594e-07
-8.88174e-07
2.12531e-07
-8.80926e-07
2.09784e-07
-8.72917e-07
2.07646e-07
-8.64221e-07
2.06067e-07
-8.5491e-07
2.05e-07
-8.45049e-07
2.04401e-07
-8.34702e-07
2.04227e-07
-8.23926e-07
2.04437e-07
-8.12779e-07
2.04995e-07
-8.01309e-07
2.05864e-07
-7.89567e-07
2.07013e-07
-7.77595e-07
2.0841e-07
-7.65434e-07
2.10028e-07
-7.53124e-07
2.11839e-07
-7.40697e-07
2.13819e-07
-7.28188e-07
2.15948e-07
-7.15623e-07
2.18203e-07
-7.03032e-07
2.20566e-07
-6.90436e-07
2.2302e-07
-6.7786e-07
2.25549e-07
-6.65322e-07
2.2814e-07
-6.52841e-07
2.30778e-07
-6.40434e-07
2.33453e-07
-6.28114e-07
2.36154e-07
-6.15895e-07
2.38872e-07
-6.03788e-07
2.41597e-07
-5.91804e-07
2.44322e-07
-5.79952e-07
2.47041e-07
-5.68239e-07
2.49712e-07
-5.56687e-07
2.52271e-07
-5.45467e-07
-5.34809e-07
2.54674e-07
3.50385e-07
3.34063e-07
3.19028e-07
-8.90358e-07
3.05252e-07
-8.9504e-07
2.92698e-07
-8.9814e-07
2.81322e-07
-8.99738e-07
2.71071e-07
-8.99922e-07
2.61893e-07
-8.98779e-07
2.53732e-07
-8.96401e-07
2.4653e-07
-8.92873e-07
2.40229e-07
-8.88284e-07
2.34773e-07
-8.82718e-07
2.30105e-07
-8.76257e-07
2.26169e-07
-8.6898e-07
2.22912e-07
-8.60964e-07
2.20281e-07
-8.52279e-07
2.18227e-07
-8.42995e-07
2.16702e-07
-8.33177e-07
2.15662e-07
-8.22886e-07
2.15062e-07
-8.12179e-07
2.14863e-07
-8.0111e-07
2.15026e-07
-7.8973e-07
2.15517e-07
-7.78085e-07
2.16301e-07
-7.66219e-07
2.17348e-07
-7.54171e-07
2.1863e-07
-7.41979e-07
2.20119e-07
-7.29677e-07
2.21791e-07
-7.17296e-07
2.23623e-07
-7.04863e-07
2.25594e-07
-6.92408e-07
2.27685e-07
-6.79951e-07
2.29879e-07
-6.67515e-07
2.32158e-07
-6.55121e-07
2.34509e-07
-6.42785e-07
2.36918e-07
-6.30523e-07
2.39374e-07
-6.1835e-07
2.41865e-07
-6.06279e-07
2.44381e-07
-5.9432e-07
2.46913e-07
-5.82484e-07
2.49455e-07
-5.7078e-07
2.51984e-07
-5.59216e-07
2.54445e-07
-5.47928e-07
-5.37135e-07
2.5677e-07
3.51876e-07
3.36201e-07
-8.79365e-07
3.21801e-07
-8.83741e-07
3.0864e-07
-8.86577e-07
2.96672e-07
-8.87954e-07
2.85847e-07
-8.87954e-07
2.76111e-07
-8.86664e-07
2.67406e-07
-8.84169e-07
2.59677e-07
-8.80555e-07
2.52866e-07
-8.75906e-07
2.46914e-07
-8.70305e-07
2.41765e-07
-8.63832e-07
2.37364e-07
-8.56562e-07
2.33655e-07
-8.4857e-07
2.30588e-07
-8.39928e-07
2.28111e-07
-8.307e-07
2.26178e-07
-8.20952e-07
2.24742e-07
-8.10743e-07
2.2376e-07
-8.00128e-07
2.23192e-07
-7.89162e-07
2.22999e-07
-7.77893e-07
2.23147e-07
-7.66366e-07
2.236e-07
-7.54625e-07
2.2433e-07
-7.42708e-07
2.25305e-07
-7.30652e-07
2.26501e-07
-7.18491e-07
2.27891e-07
-7.06254e-07
2.29453e-07
-6.93969e-07
2.31166e-07
-6.81663e-07
2.3301e-07
-6.69359e-07
2.34966e-07
-6.57078e-07
2.3702e-07
-6.44838e-07
2.39155e-07
-6.32658e-07
2.41358e-07
-6.20553e-07
2.43616e-07
-6.08537e-07
2.45918e-07
-5.96622e-07
2.48254e-07
-5.8482e-07
2.50615e-07
-5.73141e-07
2.52992e-07
-5.61593e-07
2.5533e-07
-5.50267e-07
-5.39356e-07
2.57552e-07
3.66425e-07
3.50205e-07
3.35273e-07
-8.71646e-07
3.21592e-07
-8.74273e-07
3.09118e-07
-8.75481e-07
2.978e-07
-8.75346e-07
2.87585e-07
-8.73953e-07
2.78415e-07
-8.71386e-07
2.70235e-07
-8.67726e-07
2.62984e-07
-8.63055e-07
2.56607e-07
-8.57454e-07
2.51045e-07
-8.51e-07
2.46243e-07
-8.43768e-07
2.42146e-07
-8.3583e-07
2.38701e-07
-8.27256e-07
2.35858e-07
-8.18109e-07
2.33568e-07
-8.08453e-07
2.31787e-07
-7.98347e-07
2.30471e-07
-7.87845e-07
2.29579e-07
-7.77e-07
2.29073e-07
-7.6586e-07
2.28917e-07
-7.54469e-07
2.29077e-07
-7.42869e-07
2.29524e-07
-7.31099e-07
2.30227e-07
-7.19194e-07
2.3116e-07
-7.07187e-07
2.32298e-07
-6.95107e-07
2.33618e-07
-6.82983e-07
2.35098e-07
-6.7084e-07
2.36719e-07
-6.58699e-07
2.38463e-07
-6.46582e-07
2.40313e-07
-6.34508e-07
2.42254e-07
-6.22494e-07
2.44271e-07
-6.10554e-07
2.46353e-07
-5.98704e-07
2.48487e-07
-5.86954e-07
2.50662e-07
-5.75316e-07
2.5287e-07
-5.63801e-07
2.55056e-07
-5.52452e-07
-5.41446e-07
2.57145e-07
3.61339e-07
3.45977e-07
3.31873e-07
3.18982e-07
3.07256e-07
-8.62228e-07
2.96644e-07
-8.60773e-07
2.87091e-07
-8.58173e-07
2.78537e-07
-8.54502e-07
2.70925e-07
-8.49842e-07
2.64195e-07
-8.4427e-07
2.5829e-07
-8.37863e-07
2.53152e-07
-8.30693e-07
2.48728e-07
-8.22831e-07
2.44963e-07
-8.14345e-07
2.41808e-07
-8.05298e-07
2.39215e-07
-7.95753e-07
2.37137e-07
-7.85768e-07
2.35531e-07
-7.75395e-07
2.34357e-07
-7.64686e-07
2.33577e-07
-7.53689e-07
2.33155e-07
-7.42447e-07
2.33056e-07
-7.31e-07
2.3325e-07
-7.19389e-07
2.33709e-07
-7.07645e-07
2.34404e-07
-6.95803e-07
2.35312e-07
-6.83891e-07
2.36408e-07
-6.71936e-07
2.37672e-07
-6.59963e-07
2.39083e-07
-6.47994e-07
2.40625e-07
-6.3605e-07
2.4228e-07
-6.24148e-07
2.44032e-07
-6.12307e-07
2.45868e-07
-6.0054e-07
2.47776e-07
-5.88861e-07
2.49742e-07
-5.77283e-07
2.51756e-07
-5.65815e-07
2.53779e-07
-5.54476e-07
-5.43413e-07
2.55746e-07
3.26355e-07
-8.49016e-07
3.14318e-07
-8.48737e-07
3.03403e-07
-8.47258e-07
2.93553e-07
-8.44652e-07
2.84707e-07
-8.40996e-07
2.76808e-07
-8.3637e-07
2.69795e-07
-8.3085e-07
2.63611e-07
-8.24509e-07
2.58199e-07
-8.17419e-07
2.53504e-07
-8.0965e-07
2.49475e-07
-8.01269e-07
2.46059e-07
-7.92337e-07
2.43209e-07
-7.82918e-07
2.40879e-07
-7.73065e-07
2.39027e-07
-7.62834e-07
2.3761e-07
-7.52273e-07
2.36592e-07
-7.41428e-07
2.35936e-07
-7.30345e-07
2.35609e-07
-7.19062e-07
2.3558e-07
-7.07616e-07
2.35819e-07
-6.96041e-07
2.36299e-07
-6.84371e-07
2.36996e-07
-6.72632e-07
2.37886e-07
-6.60853e-07
2.38948e-07
-6.49056e-07
2.40162e-07
-6.37263e-07
2.41509e-07
-6.25496e-07
2.42974e-07
-6.13772e-07
2.44541e-07
-6.02107e-07
2.46196e-07
-5.90516e-07
2.47925e-07
-5.79012e-07
2.49718e-07
-5.67607e-07
2.51555e-07
-5.56312e-07
-5.45241e-07
2.53382e-07
3.44866e-07
-8.34336e-07
3.31419e-07
-8.3529e-07
3.19152e-07
-8.34991e-07
3.08008e-07
-8.33508e-07
2.97931e-07
-8.30918e-07
2.88859e-07
-8.27299e-07
2.80736e-07
-8.22726e-07
2.73501e-07
-8.17274e-07
2.67097e-07
-8.11015e-07
2.61466e-07
-8.04019e-07
2.56555e-07
-7.96357e-07
2.5231e-07
-7.88093e-07
2.4868e-07
-7.79288e-07
2.45619e-07
-7.70004e-07
2.4308e-07
-7.60295e-07
2.41021e-07
-7.50213e-07
2.394e-07
-7.39808e-07
2.38179e-07
-7.29124e-07
2.37323e-07
-7.18205e-07
2.36798e-07
-7.07091e-07
2.36573e-07
-6.95817e-07
2.3662e-07
-6.84417e-07
2.3691e-07
-6.72923e-07
2.3742e-07
-6.61362e-07
2.38125e-07
-6.49761e-07
2.39006e-07
-6.38144e-07
2.40041e-07
-6.26531e-07
2.41213e-07
-6.14944e-07
2.42505e-07
-6.03399e-07
2.43902e-07
-5.91913e-07
2.45389e-07
-5.805e-07
2.46955e-07
-5.69173e-07
2.48586e-07
-5.57944e-07
-5.46894e-07
2.50239e-07
3.62704e-07
-8.18194e-07
3.47849e-07
-8.20434e-07
3.3423e-07
-8.21371e-07
3.21793e-07
-8.21071e-07
3.10481e-07
-8.19607e-07
3.00237e-07
-8.17055e-07
2.91001e-07
-8.1349e-07
2.82712e-07
-8.08985e-07
2.75313e-07
-8.03615e-07
2.68744e-07
-7.9745e-07
2.62948e-07
-7.90562e-07
2.57872e-07
-7.83016e-07
2.53462e-07
-7.74878e-07
2.49667e-07
-7.6621e-07
2.46441e-07
-7.57068e-07
2.43736e-07
-7.47509e-07
2.41512e-07
-7.37582e-07
2.39726e-07
-7.27338e-07
2.38341e-07
-7.1682e-07
2.37321e-07
-7.06071e-07
2.36634e-07
-6.95129e-07
2.36247e-07
-6.84031e-07
2.36133e-07
-6.72809e-07
2.36265e-07
-6.61494e-07
2.36617e-07
-6.50114e-07
2.37167e-07
-6.38694e-07
2.37894e-07
-6.27258e-07
2.38777e-07
-6.15827e-07
2.398e-07
-6.04422e-07
2.40946e-07
-5.93058e-07
2.42199e-07
-5.81752e-07
2.43545e-07
-5.70519e-07
2.44972e-07
-5.59371e-07
-5.48364e-07
2.46441e-07
3.79801e-07
3.63548e-07
-8.04181e-07
3.48582e-07
-8.06405e-07
3.34856e-07
-8.07344e-07
3.22313e-07
-8.07064e-07
3.10897e-07
-8.05639e-07
3.00547e-07
-8.0314e-07
2.91204e-07
-7.99643e-07
2.82809e-07
-7.95219e-07
2.753e-07
-7.89942e-07
2.6862e-07
-7.83881e-07
2.62711e-07
-7.77108e-07
2.5752e-07
-7.69687e-07
2.52992e-07
-7.61682e-07
2.49078e-07
-7.53154e-07
2.4573e-07
-7.44161e-07
2.42903e-07
-7.34755e-07
2.40553e-07
-7.24989e-07
2.38642e-07
-7.14909e-07
2.37129e-07
-7.04559e-07
2.35981e-07
-6.93981e-07
2.35165e-07
-6.83214e-07
2.34649e-07
-6.72293e-07
2.34405e-07
-6.6125e-07
2.34406e-07
-6.50115e-07
2.34628e-07
-6.38916e-07
2.35048e-07
-6.27678e-07
2.35645e-07
-6.16425e-07
2.364e-07
-6.05176e-07
2.37294e-07
-5.93952e-07
2.38312e-07
-5.8277e-07
2.39437e-07
-5.71645e-07
2.40658e-07
-5.60591e-07
-5.49642e-07
2.41936e-07
3.78437e-07
-7.86546e-07
3.62137e-07
-7.90105e-07
3.47127e-07
-7.92335e-07
3.33356e-07
-7.93293e-07
3.20768e-07
-7.9305e-07
3.09304e-07
-7.91676e-07
2.98905e-07
-7.89244e-07
2.8951e-07
-7.85824e-07
2.81059e-07
-7.8149e-07
2.7349e-07
-7.76313e-07
2.66746e-07
-7.70364e-07
2.6077e-07
-7.6371e-07
2.55506e-07
-7.56418e-07
2.50903e-07
-7.48551e-07
2.46909e-07
-7.40167e-07
2.43477e-07
-7.31324e-07
2.40563e-07
-7.22074e-07
2.38122e-07
-7.12468e-07
2.36116e-07
-7.02553e-07
2.34507e-07
-6.92373e-07
2.3326e-07
-6.81967e-07
2.32341e-07
-6.71374e-07
2.3172e-07
-6.60629e-07
2.3137e-07
-6.49764e-07
2.31262e-07
-6.38808e-07
2.31374e-07
-6.2779e-07
2.31682e-07
-6.16733e-07
2.32166e-07
-6.0566e-07
2.32806e-07
-5.94593e-07
2.33585e-07
-5.83549e-07
2.34487e-07
-5.72546e-07
2.35496e-07
-5.616e-07
-5.50729e-07
2.36582e-07
3.92495e-07
-7.67541e-07
3.74869e-07
-7.72479e-07
3.5858e-07
-7.76046e-07
3.43581e-07
-7.78294e-07
3.29819e-07
-7.79288e-07
3.17238e-07
-7.79095e-07
3.05778e-07
-7.77783e-07
2.95378e-07
-7.75424e-07
2.85978e-07
-7.72089e-07
2.77516e-07
-7.6785e-07
2.69931e-07
-7.62778e-07
2.63164e-07
-7.56944e-07
2.57159e-07
-7.50413e-07
2.51861e-07
-7.43252e-07
2.47216e-07
-7.35522e-07
2.43175e-07
-7.27283e-07
2.39691e-07
-7.1859e-07
2.36717e-07
-7.09495e-07
2.34213e-07
-7.00049e-07
2.32138e-07
-6.90298e-07
2.30455e-07
-6.80284e-07
2.29129e-07
-6.70048e-07
2.28127e-07
-6.59628e-07
2.2742e-07
-6.49057e-07
2.26979e-07
-6.38368e-07
2.26778e-07
-6.27589e-07
2.26793e-07
-6.16748e-07
2.27002e-07
-6.05869e-07
2.27384e-07
-5.94975e-07
2.2792e-07
-5.84085e-07
2.28593e-07
-5.73219e-07
2.29387e-07
-5.62393e-07
-5.51623e-07
2.30281e-07
4.05725e-07
3.86774e-07
-7.53527e-07
3.69203e-07
-7.58474e-07
3.52972e-07
-7.62063e-07
3.38031e-07
-7.64348e-07
3.24327e-07
-7.6539e-07
3.118e-07
-7.65257e-07
3.00391e-07
-7.64015e-07
2.90037e-07
-7.61736e-07
2.80676e-07
-7.5849e-07
2.72246e-07
-7.54348e-07
2.64685e-07
-7.49383e-07
2.57935e-07
-7.43663e-07
2.51938e-07
-7.37255e-07
2.46639e-07
-7.30224e-07
2.41985e-07
-7.2263e-07
2.37928e-07
-7.14532e-07
2.34419e-07
-7.05986e-07
2.31414e-07
-6.97044e-07
2.28871e-07
-6.87754e-07
2.2675e-07
-6.78163e-07
2.25015e-07
-6.68313e-07
2.23631e-07
-6.58244e-07
2.22567e-07
-6.47993e-07
2.21792e-07
-6.37593e-07
2.21279e-07
-6.27076e-07
2.21002e-07
-6.16471e-07
2.20937e-07
-6.05805e-07
2.21063e-07
-5.95101e-07
2.2136e-07
-5.84382e-07
2.21809e-07
-5.73668e-07
2.22392e-07
-5.62977e-07
-5.52325e-07
2.23094e-07
3.9788e-07
-7.33255e-07
3.79027e-07
-7.39621e-07
3.6156e-07
-7.44597e-07
3.45437e-07
-7.48224e-07
3.30606e-07
-7.50559e-07
3.1701e-07
-7.51661e-07
3.0459e-07
-7.51594e-07
2.93281e-07
-7.50427e-07
2.83021e-07
-7.48229e-07
2.73745e-07
-7.45072e-07
2.6539e-07
-7.41028e-07
2.57894e-07
-7.36167e-07
2.51198e-07
-7.30559e-07
2.45244e-07
-7.2427e-07
2.39977e-07
-7.17363e-07
2.35346e-07
-7.09901e-07
2.313e-07
-7.01941e-07
2.27793e-07
-6.93537e-07
2.24781e-07
-6.84742e-07
2.22222e-07
-6.75604e-07
2.20078e-07
-6.66169e-07
2.18312e-07
-6.56478e-07
2.1689e-07
-6.46571e-07
2.15781e-07
-6.36484e-07
2.14957e-07
-6.26251e-07
2.14389e-07
-6.15903e-07
2.14053e-07
-6.05468e-07
2.13925e-07
-5.94973e-07
2.13985e-07
-5.84441e-07
2.14212e-07
-5.73895e-07
2.14588e-07
-5.63353e-07
-5.52835e-07
2.15098e-07
4.08287e-07
-7.1166e-07
3.8814e-07
-7.19474e-07
3.69422e-07
-7.25879e-07
3.52102e-07
-7.30904e-07
3.36134e-07
-7.34592e-07
3.21464e-07
-7.36991e-07
3.08031e-07
-7.38161e-07
2.9577e-07
-7.38166e-07
2.84615e-07
-7.37074e-07
2.74498e-07
-7.34955e-07
2.65354e-07
-7.31884e-07
2.57117e-07
-7.27931e-07
2.49726e-07
-7.23168e-07
2.4312e-07
-7.17664e-07
2.37243e-07
-7.11486e-07
2.3204e-07
-7.04698e-07
2.27458e-07
-6.97359e-07
2.2345e-07
-6.89529e-07
2.19969e-07
-6.81261e-07
2.16972e-07
-6.72607e-07
2.14418e-07
-6.63615e-07
2.12269e-07
-6.54329e-07
2.1049e-07
-6.44792e-07
2.09048e-07
-6.35042e-07
2.07911e-07
-6.25115e-07
2.07052e-07
-6.15044e-07
2.06444e-07
-6.0486e-07
2.06062e-07
-5.94591e-07
2.05884e-07
-5.84263e-07
2.05889e-07
-5.739e-07
2.06058e-07
-5.63522e-07
-5.5315e-07
2.06373e-07
4.1823e-07
-6.88733e-07
3.96745e-07
-6.97988e-07
3.76716e-07
-7.0585e-07
3.58153e-07
-7.12341e-07
3.41028e-07
-7.17466e-07
3.25276e-07
-7.21239e-07
3.10829e-07
-7.23713e-07
2.97617e-07
-7.24955e-07
2.85569e-07
-7.25026e-07
2.74614e-07
-7.24e-07
2.64682e-07
-7.21951e-07
2.55705e-07
-7.18954e-07
2.47619e-07
-7.15082e-07
2.40361e-07
-7.10406e-07
2.33872e-07
-7.04997e-07
2.28095e-07
-6.98921e-07
2.22976e-07
-6.92241e-07
2.18465e-07
-6.85018e-07
2.14514e-07
-6.7731e-07
2.11076e-07
-6.6917e-07
2.08111e-07
-6.6065e-07
2.05578e-07
-6.51796e-07
2.03439e-07
-6.42654e-07
2.01661e-07
-6.33264e-07
2.00211e-07
-6.23665e-07
1.99059e-07
-6.13892e-07
1.98177e-07
-6.03978e-07
1.9754e-07
-5.93954e-07
1.97123e-07
-5.83847e-07
1.96905e-07
-5.73682e-07
1.96865e-07
-5.63482e-07
-5.53269e-07
1.96985e-07
4.27983e-07
-6.64537e-07
4.05162e-07
-6.75167e-07
3.83741e-07
-6.84428e-07
3.63777e-07
-6.92377e-07
3.45322e-07
-6.99011e-07
3.28381e-07
-7.04297e-07
3.12896e-07
-7.08228e-07
2.98763e-07
-7.10821e-07
2.85857e-07
-7.12121e-07
2.74087e-07
-7.12229e-07
2.63381e-07
-7.11246e-07
2.53672e-07
-7.09245e-07
2.44895e-07
-7.06305e-07
2.36987e-07
-7.02498e-07
2.29886e-07
-6.97896e-07
2.23534e-07
-6.92569e-07
2.17877e-07
-6.86583e-07
2.12861e-07
-6.80002e-07
2.08437e-07
-6.72886e-07
2.04558e-07
-6.65291e-07
2.01179e-07
-6.57271e-07
1.9826e-07
-6.48877e-07
1.95761e-07
-6.40155e-07
1.93647e-07
-6.31149e-07
1.91883e-07
-6.21901e-07
1.90439e-07
-6.12447e-07
1.89283e-07
-6.02823e-07
1.88391e-07
-5.93061e-07
1.87736e-07
-5.83192e-07
1.87295e-07
-5.73241e-07
1.87047e-07
-5.63234e-07
-5.53194e-07
1.86972e-07
4.37271e-07
-6.39269e-07
4.13326e-07
-6.51222e-07
3.90686e-07
-6.61789e-07
3.69367e-07
-6.71058e-07
3.49457e-07
-6.79101e-07
3.31063e-07
-6.85903e-07
3.14239e-07
-6.91404e-07
2.98955e-07
-6.95538e-07
2.85112e-07
-6.98277e-07
2.72556e-07
-6.99673e-07
2.61131e-07
-6.99821e-07
2.50735e-07
-6.9885e-07
2.41305e-07
-6.96875e-07
2.32776e-07
-6.93969e-07
2.25089e-07
-6.90209e-07
2.18185e-07
-6.85665e-07
2.12007e-07
-6.80405e-07
2.06502e-07
-6.74497e-07
2.0162e-07
-6.68003e-07
1.97311e-07
-6.60982e-07
1.93531e-07
-6.53491e-07
1.90237e-07
-6.45582e-07
1.87387e-07
-6.37306e-07
1.84946e-07
-6.28708e-07
1.82877e-07
-6.19832e-07
1.81147e-07
-6.10717e-07
1.79726e-07
-6.01402e-07
1.78586e-07
-5.91921e-07
1.77701e-07
-5.82306e-07
1.77044e-07
-5.72585e-07
1.76595e-07
-5.62785e-07
-5.52932e-07
1.76333e-07
4.45428e-07
-6.13104e-07
4.20579e-07
-6.26373e-07
3.9703e-07
-6.3824e-07
3.74721e-07
-6.4875e-07
3.53648e-07
-6.58028e-07
3.33898e-07
-6.66154e-07
3.15598e-07
-6.73104e-07
2.9886e-07
-6.78799e-07
2.83724e-07
-6.83142e-07
2.70117e-07
-6.86066e-07
2.57875e-07
-6.87579e-07
2.46814e-07
-6.8779e-07
2.36779e-07
-6.86839e-07
2.27673e-07
-6.84863e-07
2.19437e-07
-6.81973e-07
2.12012e-07
-6.7824e-07
2.05343e-07
-6.73736e-07
1.99375e-07
-6.68529e-07
1.94056e-07
-6.62684e-07
1.89338e-07
-6.56264e-07
1.85174e-07
-6.49327e-07
1.81521e-07
-6.41929e-07
1.78336e-07
-6.34121e-07
1.75581e-07
-6.25953e-07
1.7322e-07
-6.1747e-07
1.71218e-07
-6.08715e-07
1.69543e-07
-5.99728e-07
1.68167e-07
-5.90545e-07
1.67062e-07
-5.812e-07
1.66201e-07
-5.71724e-07
1.65562e-07
-5.62146e-07
-5.52493e-07
1.65123e-07
4.52419e-07
-5.86127e-07
4.26738e-07
-6.00693e-07
4.02384e-07
-6.13885e-07
3.79311e-07
-6.25677e-07
3.57429e-07
-6.36147e-07
3.3672e-07
-6.45445e-07
3.17267e-07
-6.53651e-07
2.992e-07
-6.60733e-07
2.82647e-07
-6.66589e-07
2.67682e-07
-6.711e-07
2.54287e-07
-6.74184e-07
2.42327e-07
-6.7583e-07
2.31602e-07
-6.76114e-07
2.21925e-07
-6.75186e-07
2.13162e-07
-6.73209e-07
2.05236e-07
-6.70314e-07
1.98091e-07
-6.66591e-07
1.91674e-07
-6.62112e-07
1.85933e-07
-6.56943e-07
1.80818e-07
-6.51149e-07
1.76281e-07
-6.44791e-07
1.72279e-07
-6.37926e-07
1.68767e-07
-6.3061e-07
1.65708e-07
-6.22893e-07
1.63063e-07
-6.14825e-07
1.60796e-07
-6.06449e-07
1.58876e-07
-5.97808e-07
1.57271e-07
-5.8894e-07
1.55953e-07
-5.79882e-07
1.54896e-07
-5.70667e-07
1.54074e-07
-5.61325e-07
-5.51884e-07
1.53466e-07
4.58395e-07
-5.58422e-07
4.31955e-07
-5.74253e-07
4.0683e-07
-5.8876e-07
3.83033e-07
-6.0188e-07
3.6049e-07
-6.13603e-07
3.39089e-07
-6.24044e-07
3.1881e-07
-6.33373e-07
2.99741e-07
-6.41663e-07
2.82015e-07
-6.48863e-07
2.65764e-07
-6.54849e-07
2.51067e-07
-6.59487e-07
2.37926e-07
-6.62688e-07
2.26245e-07
-6.64433e-07
2.15844e-07
-6.64785e-07
2.06516e-07
-6.63882e-07
1.98094e-07
-6.61892e-07
1.90482e-07
-6.58978e-07
1.83623e-07
-6.55253e-07
1.77466e-07
-6.50786e-07
1.7196e-07
-6.45643e-07
1.67056e-07
-6.39887e-07
1.6271e-07
-6.33579e-07
1.58877e-07
-6.26777e-07
1.55517e-07
-6.19533e-07
1.52591e-07
-6.11899e-07
1.50064e-07
-6.03921e-07
1.479e-07
-5.95644e-07
1.46069e-07
-5.87109e-07
1.44541e-07
-5.78354e-07
1.43289e-07
-5.69415e-07
1.42288e-07
-5.60323e-07
-5.5111e-07
1.41513e-07
4.63426e-07
-5.30079e-07
4.36299e-07
-5.47126e-07
4.10458e-07
-5.6292e-07
3.85947e-07
-5.77369e-07
3.62761e-07
-5.90418e-07
3.40795e-07
-6.02077e-07
3.19922e-07
-6.125e-07
3.0013e-07
-6.21872e-07
2.81514e-07
-6.30248e-07
2.64216e-07
-6.3755e-07
2.48363e-07
-6.43635e-07
2.34032e-07
-6.48357e-07
2.21225e-07
-6.51626e-07
2.09864e-07
-6.53424e-07
1.99793e-07
-6.5381e-07
1.90807e-07
-6.52906e-07
1.82726e-07
-6.50897e-07
1.75434e-07
-6.47961e-07
1.68868e-07
-6.4422e-07
1.62976e-07
-6.39751e-07
1.5771e-07
-6.34621e-07
1.53024e-07
-6.28893e-07
1.48871e-07
-6.22625e-07
1.45212e-07
-6.15874e-07
1.42006e-07
-6.08692e-07
1.39215e-07
-6.01131e-07
1.36806e-07
-5.93235e-07
1.34745e-07
-5.85049e-07
1.33004e-07
-5.76612e-07
1.31552e-07
-5.67963e-07
1.30365e-07
-5.59136e-07
-5.50163e-07
1.29417e-07
4.67607e-07
-5.01179e-07
4.39859e-07
-5.19378e-07
4.13355e-07
-5.36416e-07
3.88158e-07
-5.52172e-07
3.64305e-07
-5.66564e-07
3.41768e-07
-5.79541e-07
3.20408e-07
-5.9114e-07
3.00095e-07
-6.01559e-07
2.80836e-07
-6.10989e-07
2.62736e-07
-6.1945e-07
2.45936e-07
-6.26835e-07
2.3056e-07
-6.32981e-07
2.16676e-07
-6.37742e-07
2.0428e-07
-6.41028e-07
1.93297e-07
-6.42827e-07
1.8359e-07
-6.43198e-07
1.74964e-07
-6.42271e-07
1.6723e-07
-6.40227e-07
1.60263e-07
-6.37253e-07
1.53995e-07
-6.33483e-07
1.48375e-07
-6.29002e-07
1.43357e-07
-6.23874e-07
1.38893e-07
-6.18161e-07
1.34941e-07
-6.11922e-07
1.31461e-07
-6.05212e-07
1.28412e-07
-5.98083e-07
1.25761e-07
-5.90584e-07
1.23473e-07
-5.82761e-07
1.21517e-07
-5.74657e-07
1.19864e-07
-5.66311e-07
1.18488e-07
-5.5776e-07
-5.49038e-07
1.17364e-07
4.71047e-07
-4.71808e-07
4.42744e-07
-4.91075e-07
4.15626e-07
-5.09299e-07
3.89779e-07
-5.26325e-07
3.65256e-07
-5.42041e-07
3.42087e-07
-5.56372e-07
3.20219e-07
-5.69272e-07
2.99482e-07
-5.80822e-07
2.79755e-07
-5.91262e-07
2.61065e-07
-6.0076e-07
2.43528e-07
-6.09298e-07
2.27285e-07
-6.16738e-07
2.12451e-07
-6.22907e-07
1.99081e-07
-6.27659e-07
1.87166e-07
-6.30911e-07
1.76625e-07
-6.32658e-07
1.67323e-07
-6.32969e-07
1.59076e-07
-6.31979e-07
1.51697e-07
-6.29875e-07
1.45062e-07
-6.26848e-07
1.39101e-07
-6.2304e-07
1.33763e-07
-6.18536e-07
1.29002e-07
-6.134e-07
1.24772e-07
-6.07692e-07
1.21031e-07
-6.0147e-07
1.17738e-07
-5.9479e-07
1.14855e-07
-5.87701e-07
1.12347e-07
-5.80253e-07
1.1018e-07
-5.7249e-07
1.08324e-07
-5.64455e-07
1.06752e-07
-5.56187e-07
-5.47722e-07
1.05435e-07
4.73869e-07
4.45072e-07
-4.62279e-07
4.17388e-07
-4.81615e-07
3.90923e-07
-4.99861e-07
3.65753e-07
-5.16871e-07
3.41921e-07
-5.32541e-07
3.1945e-07
-5.46801e-07
2.98252e-07
-5.59625e-07
2.7814e-07
-5.7115e-07
2.59013e-07
-5.81633e-07
2.40917e-07
-5.91201e-07
2.23976e-07
-5.99797e-07
2.08329e-07
-6.0726e-07
1.94079e-07
-6.13409e-07
1.8127e-07
-6.18102e-07
1.69879e-07
-6.21267e-07
1.59818e-07
-6.22908e-07
1.50949e-07
-6.23109e-07
1.43091e-07
-6.22017e-07
1.36069e-07
-6.19825e-07
1.29762e-07
-6.16733e-07
1.24106e-07
-6.12881e-07
1.19051e-07
-6.08346e-07
1.14551e-07
-6.03192e-07
1.1056e-07
-5.97479e-07
1.07035e-07
-5.91264e-07
1.03935e-07
-5.84601e-07
1.01223e-07
-5.77541e-07
9.88637e-08
-5.7013e-07
9.68231e-08
-5.62415e-07
9.50713e-08
-5.54435e-07
-5.4623e-07
9.35791e-08
4.46977e-07
-4.33064e-07
4.18782e-07
-4.5342e-07
3.91741e-07
-4.72819e-07
3.6595e-07
-4.9108e-07
3.41476e-07
-5.08067e-07
3.18357e-07
-5.23681e-07
2.96594e-07
-5.37862e-07
2.76061e-07
-5.50617e-07
2.56564e-07
-5.62136e-07
2.38038e-07
-5.72675e-07
2.20551e-07
-5.8231e-07
2.04233e-07
-5.90941e-07
1.89213e-07
-5.98389e-07
1.7558e-07
-6.0447e-07
1.63365e-07
-6.09051e-07
1.52527e-07
-6.12071e-07
1.4297e-07
-6.13552e-07
1.34547e-07
-6.13594e-07
1.27083e-07
-6.12361e-07
1.2041e-07
-6.1006e-07
1.14425e-07
-6.06895e-07
1.09072e-07
-6.02993e-07
1.04302e-07
-5.98422e-07
1.00067e-07
-5.93244e-07
9.63222e-08
-5.87519e-07
9.30243e-08
-5.81304e-07
9.01336e-08
-5.7465e-07
8.76132e-08
-5.6761e-07
8.5428e-08
-5.6023e-07
8.35451e-08
-5.52552e-07
-5.4462e-07
8.19355e-08
4.48629e-07
-4.03535e-07
4.19999e-07
-4.2479e-07
3.92434e-07
-4.45255e-07
3.6606e-07
-4.64706e-07
3.40966e-07
-4.82972e-07
3.17211e-07
-4.99926e-07
2.94828e-07
-5.15478e-07
2.73786e-07
-5.29575e-07
2.53913e-07
-5.42263e-07
2.35032e-07
-5.53793e-07
2.17119e-07
-5.64397e-07
2.00265e-07
-5.74087e-07
1.84598e-07
-5.82722e-07
1.70238e-07
-5.9011e-07
1.57258e-07
-5.96071e-07
1.45669e-07
-6.00481e-07
1.35414e-07
-6.03297e-07
1.26383e-07
-6.04563e-07
1.18424e-07
-6.04402e-07
1.11363e-07
-6.02999e-07
1.05053e-07
-6.00585e-07
9.94095e-08
-5.9735e-07
9.43804e-08
-5.93393e-07
8.99154e-08
-5.88779e-07
8.59674e-08
-5.83571e-07
8.24918e-08
-5.77828e-07
7.94467e-08
-5.71605e-07
7.67927e-08
-5.64956e-07
7.44935e-08
-5.5793e-07
7.25154e-08
-5.50574e-07
-5.42932e-07
7.08267e-08
4.50209e-07
-3.73799e-07
4.21231e-07
-3.95812e-07
3.93208e-07
-4.17232e-07
3.66295e-07
-4.37794e-07
3.4061e-07
-4.57286e-07
3.16231e-07
-4.75547e-07
2.93209e-07
-4.92456e-07
2.71571e-07
-5.07936e-07
2.51247e-07
-5.21939e-07
2.32034e-07
-5.34579e-07
2.13782e-07
-5.46145e-07
1.96506e-07
-5.5681e-07
1.80311e-07
-5.66527e-07
1.65326e-07
-5.75125e-07
1.51658e-07
-5.82402e-07
1.39361e-07
-5.88184e-07
1.28426e-07
-5.92362e-07
1.1878e-07
-5.94917e-07
1.10299e-07
-5.95921e-07
1.02825e-07
-5.95526e-07
9.6187e-08
-5.93948e-07
9.02625e-08
-5.91425e-07
8.49861e-08
-5.88117e-07
8.03053e-08
-5.84099e-07
7.6171e-08
-5.79437e-07
7.25356e-08
-5.74193e-07
6.93551e-08
-5.68425e-07
6.65883e-08
-5.62189e-07
6.41961e-08
-5.55538e-07
6.21434e-08
-5.48522e-07
-5.41185e-07
6.03966e-08
4.51802e-07
4.22579e-07
3.94179e-07
3.66788e-07
-4.10403e-07
3.4055e-07
-4.31048e-07
3.15572e-07
-4.50568e-07
2.91923e-07
-4.68807e-07
2.69645e-07
-4.85659e-07
2.48755e-07
-5.01049e-07
2.29139e-07
-5.14962e-07
2.10577e-07
-5.27583e-07
1.92964e-07
-5.39197e-07
1.76345e-07
-5.49909e-07
1.60838e-07
-5.59617e-07
1.46564e-07
-5.68128e-07
1.33616e-07
-5.75236e-07
1.2203e-07
-5.80776e-07
1.11774e-07
-5.84662e-07
1.02758e-07
-5.86904e-07
9.48423e-08
-5.87611e-07
8.78617e-08
-5.86967e-07
8.166e-08
-5.85224e-07
7.61426e-08
-5.82599e-07
7.12545e-08
-5.7921e-07
6.69424e-08
-5.75125e-07
6.31575e-08
-5.70408e-07
5.98526e-08
-5.6512e-07
5.69836e-08
-5.5932e-07
5.45103e-08
-5.53065e-07
5.2394e-08
-5.46405e-07
-5.39391e-07
5.06e-08
3.67604e-07
-3.82596e-07
3.4086e-07
-4.04304e-07
3.15312e-07
-4.25019e-07
2.91056e-07
-4.4455e-07
2.68153e-07
-4.62756e-07
2.4664e-07
-4.79535e-07
2.26502e-07
-4.94825e-07
2.07574e-07
-5.08654e-07
1.89651e-07
-5.21273e-07
1.72683e-07
-5.32941e-07
1.56742e-07
-5.43676e-07
1.41948e-07
-5.53334e-07
1.28414e-07
-5.61702e-07
1.16214e-07
-5.68576e-07
1.0536e-07