/*--------------------------------*- C++ -*----------------------------------*\
  =========                 |
  \\      /  F ield         | OpenFOAM: The Open Source CFD Toolbox
   \\    /   O peration     | Website:  https://openfoam.org
    \\  /    A nd           | Version:  10
     \\/     M anipulation  |
\*---------------------------------------------------------------------------*/
FoamFile
{
    format      ascii;
    class       volScalarField;
    location    "4000";
    object      k;
}
// * * * * * * * * * * * * * * * * * * * * * * * * * * * * * * * * * * * * * //

dimensions      [0 2 -2 0 0 0 0];

internalField   nonuniform List<scalar> 
420
(
2.22045e-16
2.22045e-16
2.22045e-16
2.22045e-16
2.22045e-16
2.22045e-16
2.22045e-16
2.22045e-16
2.22045e-16
2.22045e-16
2.22045e-16
2.22045e-16
2.22045e-16
2.22045e-16
2.22045e-16
2.22045e-16
2.22045e-16
2.22045e-16
2.22045e-16
2.22045e-16
2.22045e-16
2.22045e-16
2.22045e-16
2.22045e-16
2.22045e-16
2.22045e-16
2.22045e-16
2.22045e-16
2.22045e-16
2.22045e-16
2.22045e-16
2.22045e-16
2.22045e-16
2.22045e-16
2.22045e-16
2.22045e-16
2.22045e-16
2.22045e-16
2.22045e-16
2.22045e-16
2.22045e-16
2.22045e-16
2.22045e-16
2.22045e-16
2.22045e-16
2.22045e-16
2.22045e-16
2.22045e-16
2.22045e-16
2.22045e-16
2.22045e-16
2.22045e-16
2.22045e-16
2.22045e-16
2.22045e-16
2.22045e-16
2.22045e-16
2.22045e-16
2.22045e-16
2.22045e-16
2.22045e-16
2.22045e-16
2.22045e-16
2.22045e-16
2.22045e-16
2.22045e-16
2.22045e-16
2.22045e-16
2.22045e-16
2.22045e-16
2.22045e-16
2.22045e-16
2.22045e-16
2.22045e-16
2.22045e-16
2.22045e-16
2.22045e-16
2.22045e-16
2.22045e-16
2.22045e-16
2.22045e-16
2.22045e-16
2.22045e-16
2.22045e-16
2.22045e-16
2.22045e-16
2.22045e-16
2.22045e-16
2.22045e-16
2.22045e-16
2.22045e-16
2.22045e-16
2.22045e-16
2.22045e-16
2.22045e-16
2.22045e-16
2.22045e-16
2.22045e-16
2.22045e-16
2.22045e-16
2.22045e-16
2.22045e-16
2.38511e-16
2.70542e-16
2.83204e-16
2.60343e-16
2.22045e-16
2.22045e-16
2.40272e-16
3.77803e-16
2.22045e-16
2.22045e-16
2.30886e-16
2.6723e-16
2.80196e-16
2.58534e-16
2.22045e-16
2.22045e-16
2.42995e-16
3.8469e-16
2.22045e-16
2.22045e-16
2.23692e-16
2.64835e-16
2.78684e-16
2.57641e-16
2.22045e-16
2.22045e-16
2.48684e-16
3.91274e-16
2.22045e-16
2.22045e-16
2.22045e-16
2.6269e-16
2.77325e-16
2.56859e-16
2.22045e-16
2.22045e-16
2.5399e-16
3.9778e-16
2.22045e-16
2.22045e-16
2.22045e-16
2.60742e-16
2.76103e-16
2.56541e-16
2.22385e-16
2.22045e-16
2.60395e-16
4.05403e-16
2.22045e-16
2.22045e-16
2.22045e-16
2.59108e-16
2.75076e-16
2.56646e-16
2.24327e-16
2.22045e-16
2.67418e-16
4.13137e-16
2.22045e-16
2.22045e-16
2.22045e-16
2.5846e-16
2.74795e-16
2.56996e-16
2.26797e-16
2.22045e-16
2.74177e-16
4.1977e-16
2.22045e-16
2.22045e-16
2.22045e-16
2.58336e-16
2.74442e-16
2.57547e-16
2.2959e-16
2.22045e-16
2.80261e-16
4.24895e-16
2.22045e-16
2.22045e-16
2.22045e-16
2.59151e-16
2.74183e-16
2.58767e-16
2.32746e-16
2.22045e-16
2.86082e-16
4.28282e-16
2.22045e-16
2.22045e-16
2.22045e-16
2.61317e-16
2.74135e-16
2.60504e-16
2.36096e-16
2.22045e-16
2.92066e-16
4.29778e-16
2.22045e-16
2.22045e-16
2.22045e-16
2.65869e-16
2.75556e-16
2.64434e-16
2.41028e-16
2.23011e-16
2.95637e-16
4.29211e-16
2.22045e-16
2.22045e-16
2.29746e-16
2.64863e-16
2.74278e-16
2.66537e-16
2.45823e-16
2.22045e-16
2.95401e-16
4.29975e-16
2.22045e-16
2.22045e-16
2.37917e-16
2.59461e-16
2.69706e-16
2.65556e-16
2.49426e-16
2.22045e-16
2.96681e-16
4.28948e-16
2.22045e-16
2.22045e-16
2.39759e-16
2.53486e-16
2.66036e-16
2.65234e-16
2.52764e-16
2.22045e-16
2.95787e-16
4.21256e-16
2.22045e-16
2.2662e-16
2.37619e-16
2.50734e-16
2.66208e-16
2.68206e-16
2.57981e-16
2.22045e-16
2.89272e-16
4.09484e-16
2.22045e-16
2.25371e-16
2.34389e-16
2.48874e-16
2.67641e-16
2.72012e-16
2.62773e-16
2.22045e-16
2.8175e-16
3.94402e-16
2.22045e-16
2.24565e-16
2.33114e-16
2.49604e-16
2.71608e-16
2.7717e-16
2.66069e-16
2.22045e-16
2.72954e-16
3.77438e-16
2.22391e-16
2.26146e-16
2.34876e-16
2.53891e-16
2.78849e-16
2.84033e-16
2.67515e-16
2.22045e-16
2.62955e-16
3.59146e-16
2.26143e-16
2.29882e-16
2.39468e-16
2.61596e-16
2.89448e-16
2.92605e-16
2.67129e-16
2.22045e-16
2.54052e-16
3.4187e-16
2.31715e-16
2.35644e-16
2.4653e-16
2.72168e-16
3.02844e-16
3.02128e-16
2.63454e-16
2.22045e-16
2.4903e-16
3.30724e-16
2.39004e-16
2.41691e-16
2.52229e-16
2.80972e-16
3.1284e-16
3.06604e-16
2.53954e-16
2.22045e-16
2.48811e-16
3.27908e-16
2.35694e-16
2.3553e-16
2.45064e-16
2.75894e-16
3.06025e-16
2.93343e-16
2.41359e-16
2.22045e-16
2.49641e-16
3.31945e-16
2.22045e-16
2.22045e-16
2.22045e-16
2.22045e-16
2.22045e-16
2.22045e-16
2.22045e-16
2.2549e-16
2.34243e-16
2.3617e-16
2.22045e-16
2.22045e-16
2.22045e-16
2.22045e-16
2.22045e-16
2.22045e-16
2.22045e-16
2.22045e-16
2.2757e-16
2.34197e-16
2.22045e-16
2.22045e-16
2.22045e-16
2.22045e-16
2.22045e-16
2.22045e-16
2.22045e-16
2.22045e-16
2.22045e-16
2.269e-16
2.22045e-16
2.22045e-16
2.22045e-16
2.22045e-16
2.22045e-16
2.22045e-16
2.22045e-16
2.22045e-16
2.22045e-16
2.22045e-16
2.22045e-16
2.22045e-16
2.22045e-16
2.22045e-16
2.22045e-16
2.22045e-16
2.22045e-16
2.22045e-16
2.22045e-16
2.22045e-16
2.22045e-16
2.22045e-16
2.22045e-16
2.22045e-16
2.22045e-16
2.22045e-16
2.22045e-16
2.22045e-16
2.22045e-16
2.22045e-16
2.22045e-16
2.22045e-16
2.22045e-16
2.22045e-16
2.22045e-16
2.22045e-16
2.22045e-16
2.22045e-16
2.22045e-16
2.22045e-16
2.22045e-16
2.22045e-16
2.22045e-16
2.22045e-16
2.22045e-16
2.22045e-16
2.22045e-16
2.22045e-16
2.22045e-16
2.22045e-16
2.22045e-16
2.22045e-16
2.22045e-16
2.22045e-16
2.22045e-16
2.22045e-16
2.22045e-16
2.22045e-16
2.22045e-16
2.22045e-16
2.22045e-16
2.22045e-16
2.22045e-16
2.22045e-16
2.22045e-16
2.22045e-16
2.22045e-16
2.22045e-16
2.22045e-16
2.22045e-16
)
;

boundaryField
{
    right
    {
        type            cyclic;
    }
    left
    {
        type            cyclic;
    }
    outerWall
    {
        type            kqRWallFunction;
        value           nonuniform List<scalar> 
22
(
3.77803e-16
3.8469e-16
3.91274e-16
3.9778e-16
4.05403e-16
4.13137e-16
4.1977e-16
4.24895e-16
4.28282e-16
4.29778e-16
4.29211e-16
4.29975e-16
4.28948e-16
4.21256e-16
4.09484e-16
3.94402e-16
3.77438e-16
3.59146e-16
3.4187e-16
3.30724e-16
3.27908e-16
3.31945e-16
)
;
    }
    stirrerWall
    {
        type            kqRWallFunction;
        value           uniform 2.22045e-16;
    }
    top
    {
        type            empty;
    }
    bottom
    {
        type            empty;
    }
}


// ************************************************************************* //
