/*--------------------------------*- C++ -*----------------------------------*\
  =========                 |
  \\      /  F ield         | OpenFOAM: The Open Source CFD Toolbox
   \\    /   O peration     | Website:  https://openfoam.org
    \\  /    A nd           | Version:  10
     \\/     M anipulation  |
\*---------------------------------------------------------------------------*/
FoamFile
{
    format      ascii;
    class       volScalarField;
    location    "4000";
    object      nut;
}
// * * * * * * * * * * * * * * * * * * * * * * * * * * * * * * * * * * * * * //

dimensions      [0 2 -1 0 0 0 0];

internalField   nonuniform List<scalar> 
420
(
1.04478e-20
6.61628e-20
1.69554e-19
3.0506e-19
4.59441e-19
6.06829e-19
6.76861e-19
6.1638e-19
5.98279e-19
5.58251e-19
1.04473e-20
6.46529e-20
1.81815e-19
3.38306e-19
5.10894e-19
6.58099e-19
7.06636e-19
6.63995e-19
5.8544e-19
5.1578e-19
1.04471e-20
6.57492e-20
1.95533e-19
3.73116e-19
5.56888e-19
6.87958e-19
7.05681e-19
6.36559e-19
5.4287e-19
4.65956e-19
1.04472e-20
6.6566e-20
2.00764e-19
3.87086e-19
5.69969e-19
6.86511e-19
6.85933e-19
6.00271e-19
4.94971e-19
4.10968e-19
1.04476e-20
6.61583e-20
1.97567e-19
3.73641e-19
5.38929e-19
6.43295e-19
6.41865e-19
5.54036e-19
4.43999e-19
3.52744e-19
1.04483e-20
6.51511e-20
1.81662e-19
3.1764e-19
4.40893e-19
5.30348e-19
5.5052e-19
4.90149e-19
3.87567e-19
2.9117e-19
1.04493e-20
6.13884e-20
1.42145e-19
2.15521e-19
2.83312e-19
3.45147e-19
3.8477e-19
3.77238e-19
3.14128e-19
2.24688e-19
1.04506e-20
4.78921e-20
8.04329e-20
1.06171e-19
1.33063e-19
1.61688e-19
1.88279e-19
2.05591e-19
1.99383e-19
1.5115e-19
1.04522e-20
2.14501e-20
2.798e-20
3.47824e-20
4.24088e-20
5.06946e-20
5.94182e-20
6.81121e-20
7.43767e-20
7.33912e-20
2.82342e-21
3.6643e-21
4.61494e-21
5.67535e-21
6.84552e-21
8.12545e-21
9.51514e-21
1.10146e-20
1.26238e-20
1.43428e-20
5.17286e-19
5.17887e-19
6.24913e-19
8.53343e-19
9.80539e-19
8.33965e-19
5.64087e-19
3.84519e-19
2.16013e-19
9.67553e-20
4.76514e-19
4.82619e-19
5.84027e-19
8.45784e-19
9.82891e-19
8.38461e-19
5.71595e-19
3.86898e-19
2.17994e-19
9.77058e-20
4.24322e-19
4.3367e-19
5.31901e-19
8.30038e-19
9.84421e-19
8.43618e-19
5.77692e-19
3.89712e-19
2.2425e-19
9.76528e-20
3.6559e-19
3.76984e-19
4.86218e-19
8.09953e-19
9.85375e-19
8.50542e-19
5.8571e-19
3.94725e-19
2.31616e-19
9.86227e-20
3.02902e-19
3.16111e-19
4.38644e-19
7.86187e-19
9.85618e-19
8.60315e-19
5.96527e-19
4.01674e-19
2.40204e-19
9.94163e-20
2.38503e-19
2.54996e-19
3.88403e-19
7.60465e-19
9.69793e-19
8.71749e-19
6.12587e-19
4.0975e-19
2.49256e-19
9.99037e-20
1.75267e-19
1.97891e-19
3.39574e-19
7.3734e-19
9.57617e-19
8.8356e-19
6.3022e-19
4.17368e-19
2.57335e-19
1.00306e-19
1.16856e-19
1.48046e-19
2.96121e-19
7.18818e-19
9.65953e-19
8.67591e-19
6.49495e-19
4.25491e-19
2.65272e-19
1.00586e-19
6.73915e-20
1.07064e-19
2.61584e-19
7.09971e-19
9.79461e-19
8.97992e-19
6.70325e-19
4.34232e-19
2.72667e-19
1.00746e-19
3.0743e-20
7.55794e-20
2.40716e-19
7.1731e-19
9.73463e-19
9.18651e-19
6.91028e-19
4.43417e-19
2.63456e-19
1.00582e-19
1.03958e-20
5.80477e-20
2.61712e-19
7.67085e-19
9.68556e-19
9.25627e-19
7.1169e-19
3.95521e-19
2.64593e-19
1.00464e-19
1.03958e-20
7.0497e-20
3.42203e-19
7.1087e-19
7.80412e-19
7.58243e-19
6.3922e-19
4.25045e-19
2.97888e-19
1.00688e-19
5.01961e-20
1.92882e-19
5.58369e-19
7.36131e-19
8.13852e-19
8.03107e-19
5.96638e-19
4.89324e-19
2.81269e-19
1.0032e-19
2.37365e-19
4.88214e-19
7.38988e-19
8.38812e-19
9.25456e-19
9.20981e-19
6.4943e-19
4.91889e-19
2.57356e-19
9.87121e-20
5.75141e-19
7.19245e-19
7.47435e-19
8.19282e-19
9.10202e-19
9.19566e-19
6.23365e-19
4.94618e-19
2.59771e-19
9.63982e-20
7.59861e-19
7.65656e-19
7.52871e-19
7.97686e-19
8.98357e-19
9.18557e-19
5.88794e-19
4.94324e-19
2.57024e-19
9.35521e-20
7.88883e-19
7.45123e-19
7.23279e-19
7.77372e-19
8.95112e-19
9.19953e-19
5.68439e-19
4.88228e-19
2.51897e-19
9.01867e-20
7.61328e-19
7.09677e-19
6.94417e-19
7.68357e-19
9.04251e-19
9.25474e-19
5.69837e-19
4.75794e-19
2.56412e-19
8.70963e-20
7.23197e-19
6.72061e-19
6.73044e-19
7.73229e-19
9.28077e-19
9.35521e-19
5.65849e-19
4.57892e-19
2.75685e-19
8.57617e-20
6.80294e-19
6.38166e-19
6.62035e-19
7.94057e-19
9.67265e-19
9.25632e-19
5.21748e-19
4.35309e-19
2.65878e-19
8.68843e-20
6.38874e-19
6.09496e-19
6.57753e-19
8.25574e-19
1.00836e-18
6.88221e-19
4.41701e-19
4.09611e-19
2.47829e-19
9.15647e-20
5.83027e-19
5.69276e-19
6.42592e-19
8.41765e-19
1.0213e-18
7.21749e-19
4.57737e-19
3.87783e-19
2.31368e-19
9.08545e-20
1.43428e-20
1.10132e-19
3.99055e-19
6.95886e-19
8.09694e-19
8.18022e-19
7.83147e-19
7.38863e-19
6.98137e-19
5.97082e-19
1.26238e-20
8.44037e-20
2.90444e-19
5.77044e-19
7.56249e-19
8.18135e-19
8.18797e-19
7.87301e-19
7.53916e-19
5.9952e-19
1.10146e-20
6.93562e-20
2.15848e-19
4.37896e-19
6.31666e-19
7.35719e-19
7.74642e-19
7.75173e-19
7.52886e-19
6.61589e-19
9.51514e-21
5.4517e-20
1.53014e-19
3.04481e-19
4.84839e-19
6.07174e-19
6.71142e-19
6.92043e-19
6.90374e-19
6.85707e-19
8.12545e-21
4.58425e-20
1.22612e-19
2.31508e-19
3.58267e-19
4.7215e-19
5.45387e-19
5.72475e-19
5.74935e-19
5.76673e-19
6.84552e-21
3.92288e-20
1.04971e-19
1.92998e-19
2.87486e-19
3.69368e-19
4.2047e-19
4.3847e-19
4.36902e-19
4.34609e-19
5.67535e-21
3.31449e-20
9.01616e-20
1.62528e-19
2.29629e-19
2.75208e-19
2.96361e-19
2.99643e-19
2.94456e-19
2.90576e-19
4.61494e-21
2.70513e-20
7.18537e-20
1.18612e-19
1.48564e-19
1.61949e-19
1.65806e-19
1.6522e-19
1.62817e-19
1.62058e-19
3.6643e-21
2.08415e-20
4.3522e-20
5.45719e-20
5.87204e-20
6.05126e-20
6.14016e-20
6.19881e-20
6.23534e-20
6.33846e-20
2.82342e-21
1.04522e-20
1.04506e-20
1.04493e-20
1.04483e-20
1.04476e-20
1.04472e-20
1.04471e-20
1.04473e-20
1.04478e-20
)
;

boundaryField
{
    right
    {
        type            cyclic;
    }
    left
    {
        type            cyclic;
    }
    outerWall
    {
        type            nutkWallFunction;
        Cmu             0.09;
        kappa           0.41;
        E               9.8;
        value           uniform 0;
    }
    stirrerWall
    {
        type            nutkWallFunction;
        Cmu             0.09;
        kappa           0.41;
        E               9.8;
        value           uniform 0;
    }
    top
    {
        type            empty;
    }
    bottom
    {
        type            empty;
    }
}


// ************************************************************************* //
