/*--------------------------------*- C++ -*----------------------------------*\
  =========                 |
  \\      /  F ield         | OpenFOAM: The Open Source CFD Toolbox
   \\    /   O peration     | Website:  https://openfoam.org
    \\  /    A nd           | Version:  10
     \\/     M anipulation  |
\*---------------------------------------------------------------------------*/
FoamFile
{
    format      ascii;
    class       volScalarField;
    location    "4000";
    object      omega;
}
// * * * * * * * * * * * * * * * * * * * * * * * * * * * * * * * * * * * * * //

dimensions      [0 0 -1 0 0 0 0];

internalField   nonuniform List<scalar> 
420
(
21252.7
3356.03
1309.58
727.872
483.293
365.909
319.19
322.233
355.211
397.75
21253.7
3434.41
1221.27
656.342
434.62
337.403
314.228
334.407
379.278
430.502
21254.2
3377.15
1135.59
595.109
398.724
322.759
314.653
348.82
409.02
476.536
21254
3335.71
1106
573.632
389.573
323.439
323.712
369.907
448.602
540.297
21253.2
3356.26
1123.9
594.273
412.011
345.168
345.937
400.776
500.101
629.478
21251.7
3408.15
1222.29
699.046
503.625
418.677
403.336
453.015
572.919
762.596
21249.7
3617.05
1562.1
1030.27
783.746
643.333
577.085
588.607
706.86
988.235
21247.1
4636.35
2760.62
2091.39
1668.71
1373.29
1179.34
1080.03
1113.66
1469.04
21243.8
10351.7
7935.83
6383.82
5235.81
4380.04
3736.98
3259.99
2985.4
3025.49
78643.9
60596.7
48114.3
39124.4
32436.5
27327.1
23335.9
20159.1
17589.3
15481.3
429.249
428.751
381.67
317.038
288.824
312.175
393.635
577.461
1112.3
3581.27
465.977
460.082
395.334
315.955
285.073
308.343
388.465
573.909
1114.69
3581.17
523.292
512.013
420.551
319.063
283.094
305.4
384.365
569.766
1108.96
3581.13
607.359
589.003
456.677
324.327
281.441
301.995
379.103
562.53
1096.6
3581.18
733.058
702.426
506.207
331.653
280.131
298.194
372.8
552.798
1084.06
3581.3
930.994
870.776
571.686
340.722
279.335
294.404
366.196
541.903
1072.87
3581.49
1266.9
1122.06
653.891
350.53
279.048
290.864
359.869
532.011
1065.45
3581.76
1900.15
1499.83
749.843
359.39
279.205
287.585
353.49
521.856
1056.51
3582.1
3294.85
2073.93
848.845
365.016
279.933
284.896
347.214
511.35
1049.2
3582.51
7222.62
2937.9
922.433
364.301
281.608
283.572
341.659
500.758
1052.17
3582.99
21359.1
3825.21
848.431
346.596
284.502
285.681
338.67
489.966
1057.83
3575.63
21359.1
3149.7
671.373
328.335
285.905
287.19
338.59
466.626
991.652
3575.63
4423.54
1151.19
426.092
307.092
285.445
286.981
338.365
453.778
926.147
3582.99
935.458
454.81
324.443
300.272
287.465
287.991
339.113
451.412
923.406
3582.51
386.07
315.08
305.911
304.385
292.472
291.666
342.907
448.921
906.234
3582.1
292.217
294.35
310.266
311.995
297.923
296.129
348.555
449.188
891.812
3581.76
281.467
301.379
322.302
321.086
303.435
301.287
355.655
454.797
884.304
3581.49
292.109
318.66
338.236
330.433
308.376
306.905
364.329
466.683
885.361
3581.3
312.699
342.055
355.799
338.316
311.879
312.773
374.832
484.928
899.863
3581.18
340.611
369.251
372.383
342.756
313.093
318.694
386.871
510.084
936.634
3581.13
374.102
396.542
383.47
340.335
309.531
322.773
398.185
542.086
1003.96
3581.17
404.26
413.735
381.368
327.756
299.643
320.513
402.935
572.601
1078.98
3581.27
15481.3
2016.16
556.426
319.082
274.233
271.441
283.529
305.186
335.526
368.251
17589.3
2630.75
764.501
384.797
293.613
271.403
271.184
282.033
301.85
326.551
20159.1
3201.51
1028.71
507.072
351.522
301.806
286.642
286.445
294.925
307.238
23335.9
4072.94
1451.13
729.257
457.976
365.702
330.846
320.854
321.629
323.819
27327.1
4843.65
1810.95
959.123
619.774
470.284
407.132
387.868
386.209
385.044
32436.5
5660.24
2115.3
1150.5
772.366
601.148
528.087
506.408
508.226
510.906
39124.4
6699.22
2462.74
1366.19
966.971
806.825
749.238
741.03
754.083
764.154
48114.3
8208.29
3090.23
1872.03
1494.61
1371.08
1339.18
1343.93
1363.76
1370.15
60596.7
10653.9
5101.89
4068.84
3781.39
3669.39
3616.26
3582.05
3561.07
3503.13
78643.9
21243.8
21247.1
21249.7
21251.7
21253.2
21254
21254.2
21253.7
21252.7
)
;

boundaryField
{
    right
    {
        type            cyclic;
    }
    left
    {
        type            cyclic;
    }
    outerWall
    {
        beta1           0.075;
        blended         0;
        type            omegaWallFunction;
        value           nonuniform List<scalar> 
22
(
3581.27
3581.17
3581.13
3581.18
3581.3
3581.49
3581.76
3582.1
3582.51
3582.99
3575.63
3575.63
3582.99
3582.51
3582.1
3581.76
3581.49
3581.3
3581.18
3581.13
3581.17
3581.27
)
;
    }
    stirrerWall
    {
        beta1           0.075;
        blended         0;
        type            omegaWallFunction;
        value           nonuniform List<scalar> 
42
(
21252.7
21253.7
21254.2
21254
21253.2
21251.7
21249.7
21247.1
21243.8
78643.9
78643.9
60596.7
48114.3
39124.4
32436.5
27327.1
23335.9
20159.1
17589.3
15481.3
21359.1
21359.1
15481.3
17589.3
20159.1
23335.9
27327.1
32436.5
39124.4
48114.3
60596.7
78643.9
78643.9
21243.8
21247.1
21249.7
21251.7
21253.2
21254
21254.2
21253.7
21252.7
)
;
    }
    top
    {
        type            empty;
    }
    bottom
    {
        type            empty;
    }
}


// ************************************************************************* //
