/*--------------------------------*- C++ -*----------------------------------*\
  =========                 |
  \\      /  F ield         | OpenFOAM: The Open Source CFD Toolbox
   \\    /   O peration     | Website:  https://openfoam.org
    \\  /    A nd           | Version:  10
     \\/     M anipulation  |
\*---------------------------------------------------------------------------*/
FoamFile
{
    format      ascii;
    class       volScalarField;
    location    "4000";
    object      p;
}
// * * * * * * * * * * * * * * * * * * * * * * * * * * * * * * * * * * * * * //

dimensions      [0 2 -2 0 0 0 0];

internalField   nonuniform List<scalar> 
420
(
0.041897
13.8602
29.3409
47.0247
66.3277
86.7116
107.757
128.964
149.968
170.399
-1.59267
13.1138
28.6067
46.1788
65.3657
85.6888
106.763
128.091
149.248
169.869
-2.15402
12.6255
27.9513
45.3238
64.3271
84.5497
105.65
127.138
148.534
169.422
-2.10779
12.4072
27.4475
44.535
63.2858
83.3628
104.484
126.176
147.878
169.082
-1.91067
12.3917
27.1339
43.8887
62.3316
82.2119
103.322
125.224
147.27
168.833
-1.70488
12.5358
27.0221
43.4298
61.5263
81.1552
102.181
124.249
146.657
168.641
-1.52495
12.8095
27.1138
43.1826
60.9063
80.2202
101.057
123.194
145.977
168.499
-1.38802
13.1863
27.3915
43.1477
60.4935
79.4288
99.9477
121.963
145.037
168.199
-1.34458
13.6526
27.8045
43.2796
60.2846
78.8183
98.8784
120.439
143.3
166.692
-1.38895
14.2127
28.2364
43.5344
60.3456
78.5904
98.2114
119.096
140.934
163.302
189.869
208.827
227.338
244.994
261.983
278.76
294.606
313.264
309.859
380.527
189.537
208.609
227.116
244.74
261.755
278.571
294.621
313.057
308.837
371.251
189.311
208.476
226.941
244.523
261.54
278.323
294.555
312.977
308.058
362.899
189.196
208.409
226.775
244.296
261.305
278.077
294.364
312.341
306.641
357.886
189.186
208.415
226.663
244.139
261.134
277.931
294.295
311.577
304.492
353.818
189.272
208.476
226.608
244.075
261.039
277.826
294.16
310.615
302.373
350.291
189.51
208.537
226.511
244.036
260.979
277.724
293.944
309.615
300.16
346.172
189.874
208.567
226.284
243.97
260.967
277.669
293.744
308.903
298.458
341.341
189.745
208.779
226.204
243.988
261.071
277.744
293.82
309.18
298.615
337.211
188.348
209.619
226.752
244.237
261.266
277.929
294.274
310.534
298.399
334.453
187.448
209.98
227.298
244.511
261.23
277.702
294.282
312.871
289.145
333.659
187.979
209.86
227.555
244.503
260.895
277.045
293.247
310.937
283.809
331.443
192.563
210.358
227.92
244.794
260.969
276.717
291.993
305.6
287.272
329.069
192.45
210.271
227.912
244.902
261.064
276.575
291.368
304.233
289.688
327.883
191.674
209.892
227.732
244.871
261.094
276.494
291.266
304.802
292.098
329.829
191.15
209.511
227.527
244.836
261.176
276.57
291.427
305.668
294.816
334.177
190.862
209.268
227.412
244.888
261.396
276.94
292.118
307.307
298.45
340.774
190.696
209.156
227.417
245.055
261.778
277.671
293.432
309.737
303.627
351.991
190.586
209.146
227.53
245.311
262.24
278.503
294.595
311.816
310.902
371.751
190.483
209.176
227.678
245.559
262.597
278.951
294.591
311.783
316.68
397.317
190.361
209.162
227.707
245.562
262.503
278.638
293.797
310.632
315.385
405.714
190.196
209.052
227.535
245.2
262.005
278.352
293.761
311.97
313.193
387.965
175.35
173.403
172.429
172.086
171.951
171.838
171.678
171.449
171.171
170.866
150.087
150.683
151.252
151.697
151.966
152.023
151.856
151.504
151.043
150.564
123.962
126.634
128.846
130.275
131.093
131.424
131.339
130.935
130.334
129.686
100.326
103.306
106.262
108.368
109.667
110.295
110.362
110
109.36
108.602
79.3538
81.74
84.4946
86.7321
88.2324
89.0472
89.2659
88.9997
88.3964
87.6068
60.5832
62.1966
64.2623
66.1262
67.4939
68.3084
68.5997
68.4303
67.9149
67.1862
43.7435
44.6682
45.8984
47.1101
48.0734
48.6801
48.912
48.7916
48.3829
47.78
28.699
29.0632
29.5235
30.0087
30.4326
30.7187
30.8168
30.7105
30.4194
29.973
15.4471
15.2405
15.0751
14.9965
14.9931
15.0104
14.9915
14.8982
14.7146
14.4083
3.17087
1.98448
1.00721
0.444506
0.144252
-0.0301006
-0.164813
-0.323457
-0.52031
-0.564044
)
;

boundaryField
{
    right
    {
        type            cyclic;
    }
    left
    {
        type            cyclic;
    }
    outerWall
    {
        type            zeroGradient;
    }
    stirrerWall
    {
        type            zeroGradient;
    }
    top
    {
        type            empty;
    }
    bottom
    {
        type            empty;
    }
}


// ************************************************************************* //
