/*--------------------------------*- C++ -*----------------------------------*\
  =========                 |
  \\      /  F ield         | OpenFOAM: The Open Source CFD Toolbox
   \\    /   O peration     | Website:  https://openfoam.org
    \\  /    A nd           | Version:  10
     \\/     M anipulation  |
\*---------------------------------------------------------------------------*/
FoamFile
{
    format      ascii;
    class       volVectorField;
    location    "4000";
    object      U;
}
// * * * * * * * * * * * * * * * * * * * * * * * * * * * * * * * * * * * * * //

dimensions      [0 1 -1 0 0 0 0];

internalField   nonuniform List<vector> 
420
(
(0.659798 8.26956 1.06621e-17)
(-0.399263 9.83066 -7.29174e-17)
(-0.0652408 11.5614 -2.88908e-16)
(0.0141573 12.9196 7.69816e-17)
(-0.0401801 14.0051 -4.80613e-16)
(-0.184187 14.8852 0)
(-0.538094 15.6676 0)
(-0.975016 16.3668 3.24105e-16)
(-1.35202 16.9291 -3.64307e-16)
(-1.63448 17.2802 0)
(0.0109896 8.25542 3.29972e-17)
(-1.07167 9.71731 -1.95691e-16)
(-1.11276 11.468 9.4549e-16)
(-1.21321 12.8592 -1.17534e-15)
(-1.44537 14.0198 3.82911e-16)
(-1.76291 15.0073 2.60028e-18)
(-2.24775 15.8786 2.36125e-15)
(-2.72958 16.6262 -5.40083e-16)
(-3.09625 17.166 8.32313e-16)
(-3.30235 17.4085 0)
(-0.754211 8.19354 1.74256e-16)
(-1.90885 9.59173 -1.07708e-15)
(-2.17214 11.3089 9.55892e-16)
(-2.42714 12.7243 1.33106e-15)
(-2.7844 13.9615 -9.17769e-16)
(-3.19013 15.0531 4.11009e-15)
(-3.70901 15.9958 1.53875e-15)
(-4.18429 16.7624 3.44269e-15)
(-4.50392 17.2482 -1.38633e-15)
(-4.65578 17.3574 -3.15202e-15)
(-1.46284 8.06889 -8.57627e-17)
(-2.75513 9.46965 9.21842e-16)
(-3.15589 11.1164 -1.25671e-15)
(-3.5398 12.5461 9.40917e-16)
(-3.98898 13.8411 -1.92581e-15)
(-4.46648 15.0097 1.81091e-15)
(-4.98769 16.0018 -9.78188e-15)
(-5.46567 16.7668 0)
(-5.76692 17.1917 -3.26886e-15)
(-5.89694 17.1892 2.97339e-15)
(-2.12954 7.95439 0)
(-3.57965 9.31505 5.98639e-16)
(-4.07448 10.8655 -6.03771e-16)
(-4.56774 12.2857 0)
(-5.08633 13.6167 -2.56285e-16)
(-5.62241 14.834 -2.61441e-16)
(-6.12771 15.8741 3.59338e-15)
(-6.62957 16.6455 -3.67152e-15)
(-6.93077 17.035 0)
(-7.05062 16.9422 -1.24203e-14)
(-2.78346 7.83929 4.36647e-17)
(-4.37997 9.11422 0)
(-4.9497 10.5525 0)
(-5.50799 11.9348 1.92856e-15)
(-6.07044 13.2754 -2.64764e-15)
(-6.64545 14.5243 2.95868e-15)
(-7.17067 15.6202 6.22863e-16)
(-7.68327 16.424 8.60176e-15)
(-7.99986 16.8145 -1.04318e-14)
(-8.13335 16.6541 6.3262e-15)
(-3.43013 7.71445 0)
(-5.13458 8.85152 -6.44326e-16)
(-5.75557 10.1739 -3.26372e-15)
(-6.36543 11.4994 -1.04538e-15)
(-6.95342 12.823 -4.99375e-15)
(-7.53798 14.0921 3.00067e-15)
(-8.11319 15.2491 -7.42216e-15)
(-8.60432 16.1412 5.97663e-16)
(-8.97864 16.5936 -3.47598e-15)
(-9.16417 16.3841 -1.02298e-14)
(-4.07858 7.56085 -9.90643e-17)
(-5.83085 8.52997 6.65654e-16)
(-6.45878 9.74637 4.11243e-15)
(-7.08722 11.0037 4.31004e-16)
(-7.69087 12.2884 2.6885e-15)
(-8.27642 13.56 0)
(-8.86224 14.7749 7.38839e-15)
(-9.38435 15.8256 8.71926e-15)
(-9.82457 16.4586 9.79382e-15)
(-10.1618 16.2482 7.97451e-15)
(-4.73175 7.33843 -1.02164e-16)
(-6.36899 8.11133 6.82931e-16)
(-6.94601 9.20729 -7.1844e-16)
(-7.55226 10.3517 -2.33184e-15)
(-8.14457 11.5382 7.80942e-15)
(-8.7044 12.7517 1.0204e-14)
(-9.28392 13.9608 -3.53736e-15)
(-9.88571 15.1045 0)
(-10.3778 16.0668 0)
(-11.0777 16.131 -9.26046e-15)
(-5.53765 7.0243 5.21829e-18)
(-7.02806 7.7218 7.82146e-16)
(-7.71231 8.74569 0)
(-8.50943 9.79381 0)
(-9.30747 10.8538 -3.50952e-15)
(-10.0775 11.9443 5.88579e-18)
(-10.7971 13.0759 6.4921e-15)
(-11.4226 14.2345 -1.445e-14)
(-11.9664 15.2892 1.66968e-14)
(-12.4909 15.6359 1.32984e-15)
(-1.77476 17.3228 0)
(-1.79958 17.0251 0)
(-1.78437 16.3921 0)
(-1.75061 15.6491 -7.59771e-16)
(-1.72268 14.926 0)
(-1.61576 14.2245 0)
(-2.2291 13.1717 8.76568e-16)
(-0.302156 10.6078 0)
(-2.80916 15.0818 0)
(-0.964912 -0.0866293 0)
(-3.32739 17.3079 1.35668e-15)
(-3.24518 16.8812 2.41825e-15)
(-3.08831 16.1944 1.75482e-16)
(-2.9528 15.4738 9.11403e-16)
(-2.82529 14.7962 1.06539e-16)
(-2.67845 14.1348 1.19942e-15)
(-2.74688 13.0489 1.26245e-16)
(-1.0261 10.7498 3.55796e-17)
(-3.88646 14.0742 -2.7576e-15)
(-0.723929 -0.51791 -4.53502e-16)
(-4.62138 17.1181 1.19708e-15)
(-4.47795 16.5909 0)
(-4.26431 15.8929 -1.93991e-15)
(-4.0929 15.2201 -1.75053e-15)
(-3.91331 14.5774 5.15014e-15)
(-3.73795 13.9018 -1.10486e-15)
(-3.54682 12.7828 1.88185e-15)
(-1.78629 10.9696 0)
(-5.26304 13.2413 2.98871e-15)
(0.131595 -1.08941 -1.50737e-17)
(-5.81591 16.8317 2.66294e-15)
(-5.61948 16.2265 6.8459e-15)
(-5.36197 15.5405 -7.32167e-15)
(-5.1721 14.9167 2.94147e-15)
(-4.96271 14.3016 6.08613e-17)
(-4.75512 13.6075 0)
(-4.39699 12.4966 -1.86175e-15)
(-2.63328 11.0872 -3.33812e-15)
(-6.28549 12.2405 -2.91141e-15)
(0.649386 -1.49777 2.16363e-15)
(-6.93303 16.4752 2.37828e-15)
(-6.67997 15.8079 -2.17397e-15)
(-6.38601 15.1492 7.55382e-15)
(-6.18707 14.5661 -3.06279e-15)
(-5.95033 13.9684 2.78572e-15)
(-5.70484 13.2635 -4.38173e-15)
(-5.18275 12.1997 4.133e-15)
(-3.44114 11.1061 3.61727e-15)
(-7.05183 11.2371 0)
(0.969629 -1.85013 -4.2889e-15)
(-7.98417 16.0699 2.97005e-15)
(-7.66032 15.3514 -1.33088e-14)
(-7.33864 14.7324 -4.04739e-15)
(-7.13981 14.1772 9.72155e-15)
(-6.87508 13.5848 8.74479e-15)
(-6.58252 12.8686 5.01814e-16)
(-5.93041 11.8698 3.07669e-16)
(-4.13472 11.0836 -3.26928e-15)
(-7.66883 10.197 -1.92377e-15)
(1.34255 -2.0901 4.70642e-15)
(-8.98362 15.6349 3.00925e-15)
(-8.56978 14.8655 4.7531e-15)
(-8.23142 14.2925 0)
(-8.04315 13.7529 -3.20856e-15)
(-7.75364 13.1577 -5.30984e-15)
(-7.42187 12.4279 5.40903e-16)
(-6.67809 11.4835 -1.23495e-14)
(-4.80005 10.9507 -3.69592e-15)
(-8.3538 9.15002 5.12442e-15)
(1.78101 -2.2224 -2.5913e-15)
(-9.93579 15.1939 1.19021e-14)
(-9.43173 14.3682 -4.30479e-15)
(-9.0807 13.8423 0)
(-8.90615 13.3065 -2.65623e-16)
(-8.59892 12.707 2.30736e-14)
(-8.24293 11.9678 -9.82876e-15)
(-7.43172 11.0763 -9.42637e-15)
(-5.43558 10.7745 7.35449e-15)
(-8.98209 8.12597 -6.24816e-15)
(2.24743 -2.2569 0)
(-10.7703 14.8167 3.40522e-16)
(-10.3025 13.8952 -4.5123e-15)
(-9.9016 13.4195 0)
(-9.7155 12.8733 7.44451e-15)
(-9.393 12.2698 -1.7544e-14)
(-9.01863 11.5249 1.03065e-14)
(-8.15193 10.6624 4.41319e-15)
(-5.98075 10.5599 0)
(-9.54692 7.17085 -1.94163e-16)
(2.67472 -2.16258 2.07027e-15)
(-11.2347 14.6834 4.27594e-16)
(-11.2014 13.3795 5.07608e-17)
(-10.6853 12.9434 0)
(-10.4071 12.4008 -1.48387e-14)
(-10.0499 11.8305 5.45433e-15)
(-9.69175 11.1409 -5.92828e-15)
(-8.88148 10.3146 5.02038e-15)
(-6.37059 10.3547 1.28505e-16)
(-9.88742 5.84581 -5.99284e-16)
(2.9523 -1.79672 -1.98094e-15)
(-10.8924 14.6482 3.2116e-15)
(-11.8162 12.8977 -5.7067e-15)
(-11.2257 12.587 0)
(-10.8306 12.0861 0)
(-10.3817 11.5789 0)
(-9.91345 11.0285 -3.01603e-15)
(-9.12045 10.3822 1.20463e-14)
(-7.01415 10.7717 0)
(-11.209 4.35578 0)
(3.32537 -1.94229 0)
(-11.3485 13.9105 -3.14543e-15)
(-12.3443 12.5178 -5.79024e-15)
(-11.8221 12.1746 0)
(-11.3819 11.6585 4.1957e-15)
(-10.9003 11.1294 -3.18204e-15)
(-10.3845 10.5654 3.06879e-15)
(-9.52794 10.0564 4.90267e-15)
(-7.42557 11.1537 -5.6273e-17)
(-11.5068 4.48766 1.6406e-15)
(3.68326 -2.31775 0)
(-13.0807 11.8688 4.26385e-16)
(-13.0368 11.6762 -3.74163e-17)
(-12.6687 11.247 0)
(-12.2073 10.759 3.85715e-16)
(-11.7241 10.2157 7.08755e-15)
(-11.2453 9.54494 -4.85651e-15)
(-10.3545 9.0738 -1.44081e-14)
(-7.97629 10.8317 -8.67018e-15)
(-11.1695 5.35551 1.23269e-14)
(3.97431 -2.35161 1.84697e-15)
(-14.1069 11.0369 -1.4115e-14)
(-13.7508 10.7802 5.34085e-15)
(-13.3398 10.4702 0)
(-12.8251 10.0608 -8.15894e-15)
(-12.2869 9.59881 -6.86136e-15)
(-11.7846 8.96253 1.11713e-14)
(-10.8908 8.44671 4.83958e-15)
(-8.46082 10.0341 0)
(-11.967 4.12873 -4.54207e-15)
(4.02234 -1.85393 7.03133e-16)
(-14.5609 9.92421 -3.95778e-16)
(-14.3181 9.80848 5.47735e-15)
(-13.9269 9.58186 0)
(-13.4028 9.24291 1.63349e-14)
(-12.8397 8.8679 -8.12784e-18)
(-12.3337 8.28824 -3.18977e-16)
(-11.5277 7.7329 1.04738e-14)
(-9.0088 9.83162 -8.19777e-15)
(-12.4975 3.33156 -5.66149e-15)
(4.14928 -1.56758 0)
(-14.9311 8.84997 -3.49718e-15)
(-14.8171 8.80764 1.17343e-14)
(-14.4674 8.62249 1.02341e-14)
(-13.9343 8.33944 -1.16431e-14)
(-13.3406 8.04652 -2.03268e-14)
(-12.8059 7.54233 -5.28285e-16)
(-12.0756 6.86082 -5.03927e-15)
(-9.42166 9.69803 -4.37002e-15)
(-13.0513 2.94267 -4.31901e-15)
(4.2011 -1.19881 -1.21437e-15)
(-15.3051 7.80128 -1.03964e-14)
(-15.2579 7.7969 5.51774e-15)
(-14.9257 7.63889 -4.14373e-15)
(-14.3744 7.40864 -1.15897e-14)
(-13.7502 7.19469 9.12563e-15)
(-13.1766 6.79316 -4.51462e-16)
(-12.5016 5.9412 9.13124e-15)
(-9.75479 9.37967 4.461e-15)
(-13.7527 2.70642 1.5123e-15)
(4.13414 -0.749425 -6.28256e-16)
(-15.68 6.68607 2.74183e-15)
(-15.655 6.70015 -2.5437e-15)
(-15.3193 6.56983 -1.39426e-16)
(-14.7375 6.39647 1.0843e-14)
(-14.0773 6.26658 -1.51879e-14)
(-13.4614 5.99153 4.85122e-15)
(-12.8074 5.00223 -4.69951e-15)
(-10.1206 8.73327 1.21832e-14)
(-14.5447 2.41033 0)
(3.831 0.195763 -1.05497e-16)
(-16.0404 5.45901 2.78116e-15)
(-15.9977 5.48007 2.40057e-15)
(-15.6288 5.39442 4.17728e-15)
(-15.0056 5.28896 -6.6864e-15)
(-14.3102 5.26188 2.78132e-15)
(-13.6563 5.14179 0)
(-12.9977 4.01457 -1.92091e-15)
(-10.3567 7.92622 -7.81835e-15)
(-15.2887 2.19785 4.33911e-17)
(3.11239 1.08109 2.13141e-15)
(-16.3709 4.11968 1.14222e-15)
(-16.2683 4.12462 0)
(-15.8465 4.08939 1.92835e-15)
(-15.1827 4.0529 1.73429e-15)
(-14.471 4.12597 1.44574e-16)
(-13.8041 4.16008 -1.06527e-15)
(-13.0551 2.92427 1.82402e-15)
(-10.5437 7.02909 0)
(-15.9015 2.22066 2.68929e-15)
(1.88069 1.27745 2.31976e-15)
(-16.6832 2.63989 1.1928e-15)
(-16.5045 2.51348 -2.13143e-15)
(-16.0029 2.39866 -1.50912e-16)
(-15.2773 2.30315 5.95286e-16)
(-14.5333 2.23841 -8.11649e-17)
(-13.8181 2.33816 9.54507e-16)
(-12.7872 1.30322 -1.73768e-15)
(-10.3147 4.5507 -1.40949e-16)
(-16.486 2.45002 2.39769e-15)
(0.963657 0.583046 -1.77923e-15)
(-17.0532 0.324881 1.67923e-29)
(-16.8496 0.101816 0)
(-16.2997 -0.0515894 0)
(-15.5832 -0.18445 -7.3522e-16)
(-14.8509 -0.277687 0)
(-14.1333 -0.261094 0)
(-13.1669 -1.16396 8.2159e-16)
(-10.2573 0.835955 0)
(-15.5124 -0.500893 0)
(-1.23799 -2.29693 -6.81695e-30)
(-14.2529 13.0033 1.06596e-15)
(-14.7658 11.0236 -7.68651e-15)
(-14.9981 9.84531 7.79075e-15)
(-15.158 8.76864 -1.11467e-14)
(-15.3999 7.7524 7.54622e-15)
(-15.6808 6.67197 -1.38134e-14)
(-15.9744 5.4725 3.03831e-15)
(-16.2666 4.14917 -2.8843e-15)
(-16.5681 2.70785 0)
(-16.9431 0.53703 -2.97837e-16)
(-14.722 12.2335 1.42431e-14)
(-15.0112 10.4616 0)
(-15.2298 9.46583 7.8993e-15)
(-15.2566 8.49325 -3.27384e-15)
(-15.3673 7.54946 -1.17786e-14)
(-15.5372 6.52117 0)
(-15.7415 5.36121 -3.19636e-15)
(-15.9603 4.09184 -1.20975e-15)
(-16.2089 2.72855 7.67899e-16)
(-16.5613 0.781 -3.14871e-16)
(-14.321 11.3172 -1.17715e-14)
(-14.7853 9.81479 0)
(-15.1239 8.92096 6.91085e-15)
(-15.1502 8.05071 7.30003e-16)
(-15.1823 7.1811 9.47217e-15)
(-15.2669 6.2185 -3.94551e-15)
(-15.3967 5.1154 0)
(-15.5502 3.92661 3.23407e-15)
(-15.7299 2.68054 -4.86227e-16)
(-16.0224 0.998802 3.67276e-16)
(-13.2709 10.4893 5.3818e-15)
(-14.1085 9.24934 -2.27253e-15)
(-14.6831 8.32993 5.17784e-15)
(-14.8678 7.52107 -5.60481e-15)
(-14.9227 6.72937 6.33013e-16)
(-14.9654 5.87488 3.53913e-15)
(-15.0422 4.88816 -9.69884e-15)
(-15.1331 3.81678 1.59105e-15)
(-15.228 2.66008 2.34571e-15)
(-15.4081 1.22524 5.73727e-17)
(-12.0793 9.72114 -8.01982e-15)
(-13.0175 8.70801 6.52009e-15)
(-13.8277 7.78715 0)
(-14.2298 6.9936 2.1363e-15)
(-14.4274 6.24352 2.35302e-15)
(-14.5186 5.45663 -2.78646e-16)
(-14.5868 4.55 1.63873e-15)
(-14.6351 3.56731 3.62427e-15)
(-14.6652 2.51674 -5.95262e-18)
(-14.7421 1.31539 3.39563e-16)
(-10.9091 8.97261 -3.18036e-15)
(-11.777 8.15961 5.02216e-15)
(-12.6478 7.27339 1.90563e-15)
(-13.2181 6.48726 -3.2463e-15)
(-13.5608 5.75788 -1.97237e-15)
(-13.7586 5.00826 -2.44429e-16)
(-13.8717 4.17191 -3.46292e-15)
(-13.9295 3.26546 1.0239e-15)
(-13.945 2.30287 3.44336e-16)
(-13.9663 1.2328 -3.626e-16)
(-9.80882 8.22487 0)
(-10.5206 7.57635 -1.64893e-15)
(-11.3362 6.76726 4.30974e-16)
(-11.9728 6.00491 -7.60704e-16)
(-12.4084 5.28259 1.29003e-15)
(-12.6872 4.55056 0)
(-12.8616 3.7623 7.98462e-16)
(-12.9409 2.92391 1.17985e-15)
(-12.9528 2.05322 -1.0754e-15)
(-12.9444 1.10916 -2.55097e-17)
(-8.7637 7.47615 0)
(-9.32338 6.9624 -4.1175e-16)
(-10.0121 6.24842 2.75102e-15)
(-10.6062 5.52476 -2.05818e-15)
(-11.0571 4.80977 0)
(-11.3689 4.08368 -3.88458e-16)
(-11.5655 3.31874 -9.85348e-16)
(-11.6573 2.5227 7.76599e-16)
(-11.6667 1.72187 8.47647e-16)
(-11.6325 0.877409 -3.29116e-16)
(-7.74092 6.68135 -7.69292e-16)
(-8.20396 6.25361 4.08251e-16)
(-8.75053 5.57934 3.98693e-16)
(-9.24015 4.86527 -3.96509e-16)
(-9.62851 4.14495 0)
(-9.90483 3.41844 4.11802e-16)
(-10.0743 2.68078 6.54276e-16)
(-10.1409 1.93517 -7.71794e-16)
(-10.1107 1.20872 -1.70797e-16)
(-10.0073 0.451994 1.51657e-17)
(-6.35145 6.25214 -1.44224e-16)
(-6.50173 6.02931 4.96701e-17)
(-6.80445 5.47918 3.70034e-17)
(-7.12759 4.84797 0)
(-7.42805 4.21658 -1.53931e-17)
(-7.69105 3.59375 0)
(-7.90849 2.97349 -8.55885e-17)
(-8.07182 2.3547 1.33064e-16)
(-8.16759 1.76451 3.17533e-17)
(-8.24435 1.19424 -9.71726e-18)
)
;

boundaryField
{
    right
    {
        type            cyclic;
    }
    left
    {
        type            cyclic;
    }
    outerWall
    {
        type            calculated;
        value           nonuniform List<vector> 
22
(
(-1.55201 41.8305 0)
(-4.64749 41.6006 0)
(-7.71741 41.1419 0)
(-10.7449 40.4569 0)
(-13.7132 39.5492 0)
(-16.6061 38.424 0)
(-19.4075 37.0874 0)
(-22.1022 35.5467 0)
(-24.6752 33.8104 0)
(-27.1124 31.8882 0)
(-28.9573 30.2506 0)
(-30.2506 28.9573 0)
(-31.8882 27.1124 0)
(-33.8104 24.6752 0)
(-35.5467 22.1022 0)
(-37.0874 19.4075 0)
(-38.424 16.6061 0)
(-39.5492 13.7132 0)
(-40.4569 10.7449 0)
(-41.1419 7.71741 0)
(-41.6006 4.64749 0)
(-41.8305 1.55201 0)
)
;
    }
    stirrerWall
    {
        type            calculated;
        value           nonuniform List<vector> 
42
(
(-0.310178 8.3662 0)
(-0.928834 8.32046 0)
(-1.54239 8.22894 0)
(-2.14746 8.09214 0)
(-2.74072 7.91082 0)
(-3.31888 7.68598 0)
(-3.87877 7.41885 0)
(-4.41729 7.11092 0)
(-4.93148 6.76387 0)
(-5.4185 6.37963 0)
(-6.07951 6.64185 0)
(-6.92878 7.56862 0)
(-7.77806 8.49539 0)
(-8.62734 9.42216 0)
(-9.47661 10.3489 0)
(-10.3259 11.2757 0)
(-11.1752 12.2025 0)
(-12.0244 13.1292 0)
(-12.8737 14.056 0)
(-13.723 14.9828 0)
(-14.4723 15.1215 0)
(-15.1215 14.4723 0)
(-14.9828 13.723 0)
(-14.056 12.8737 0)
(-13.1292 12.0244 0)
(-12.2025 11.1752 0)
(-11.2757 10.3259 0)
(-10.3489 9.47661 0)
(-9.42216 8.62734 0)
(-8.49539 7.77806 0)
(-7.56862 6.92878 0)
(-6.64185 6.07951 0)
(-6.37963 5.4185 0)
(-6.76387 4.93148 0)
(-7.11092 4.41729 0)
(-7.41885 3.87877 0)
(-7.68598 3.31888 0)
(-7.91082 2.74072 0)
(-8.09214 2.14746 0)
(-8.22894 1.54239 0)
(-8.32046 0.928834 0)
(-8.3662 0.310178 0)
)
;
    }
    top
    {
        type            empty;
    }
    bottom
    {
        type            empty;
    }
}


// ************************************************************************* //
