/*--------------------------------*- C++ -*----------------------------------*\
  =========                 |
  \\      /  F ield         | OpenFOAM: The Open Source CFD Toolbox
   \\    /   O peration     | Website:  https://openfoam.org
    \\  /    A nd           | Version:  10
     \\/     M anipulation  |
\*---------------------------------------------------------------------------*/
FoamFile
{
    format      ascii;
    class       volVectorField;
    location    "4000";
    object      Urel;
}
// * * * * * * * * * * * * * * * * * * * * * * * * * * * * * * * * * * * * * //

dimensions      [0 1 -1 0 0 0 0];

internalField   nonuniform List<vector> 
420
(
(0.993798 -0.738693 1.06621e-17)
(-0.0187623 -0.430688 -7.29174e-17)
(0.361775 0.046588 -2.88908e-16)
(0.487698 0.150978 7.69816e-17)
(0.479894 -0.017502 -4.80613e-16)
(0.382426 -0.391508 0)
(0.0750611 -0.863282 0)
(-0.315314 -1.41849 3.24105e-16)
(-0.645768 -2.11059 -3.64307e-16)
(-0.881681 -3.01391 0)
(1.01117 -0.703541 3.29972e-17)
(0.067754 -0.487823 -1.95691e-16)
(0.165949 0.0163245 9.4549e-16)
(0.204822 0.160627 -1.17534e-15)
(0.112006 0.0741994 3.82911e-16)
(-0.0661777 -0.185441 2.60028e-18)
(-0.411648 -0.561445 2.36125e-15)
(-0.754094 -1.06124 -5.40083e-16)
(-0.981375 -1.76896 8.32313e-16)
(-1.04808 -2.77401 0)
(0.90665 -0.666847 1.74256e-16)
(-0.0167667 -0.501074 -1.07708e-15)
(-0.0487611 -0.0166732 9.55892e-16)
(-0.0724063 0.165603 1.33106e-15)
(-0.198281 0.169592 -9.17769e-16)
(-0.372604 0.0277376 4.11009e-15)
(-0.660048 -0.2631 1.53875e-15)
(-0.903872 -0.730143 3.44269e-15)
(-0.992037 -1.47802 -1.38633e-15)
(-0.912427 -2.60261 -3.15202e-15)
(0.849569 -0.644182 -8.57627e-17)
(-0.120785 -0.455313 9.21842e-16)
(-0.199509 -0.0208449 -1.25671e-15)
(-0.261312 0.196308 9.40917e-16)
(-0.388333 0.278607 -1.92581e-15)
(-0.54363 0.234313 1.81091e-15)
(-0.742615 0.0133797 -9.78188e-15)
(-0.898345 -0.434659 0)
(-0.877326 -1.2229 -3.26886e-15)
(-0.685065 -2.4386 2.97339e-15)
(0.8217 -0.563437 0)
(-0.217526 -0.387498 5.98639e-16)
(-0.301352 -0.0221588 -6.03771e-16)
(-0.383514 0.212719 0)
(-0.490935 0.358204 -2.56285e-16)
(-0.6158 0.38974 -2.61441e-16)
(-0.709851 0.244101 3.59338e-15)
(-0.800425 -0.170395 -3.67152e-15)
(-0.690319 -0.966877 0)
(-0.398841 -2.2457 -1.24203e-14)
(0.790366 -0.436443 4.36647e-17)
(-0.308572 -0.312562 0)
(-0.380569 -0.0257175 0)
(-0.441021 0.204913 1.92856e-15)
(-0.505556 0.393723 -2.64764e-15)
(-0.58259 0.490575 2.95868e-15)
(-0.609785 0.434452 6.22863e-16)
(-0.624317 0.0860139 8.60176e-15)
(-0.442814 -0.675722 -1.04318e-14)
(-0.0781969 -1.98836 6.3262e-15)
(0.746606 -0.273676 0)
(-0.3763 -0.247658 -6.44326e-16)
(-0.41557 -0.0366624 -3.26372e-15)
(-0.443584 0.177145 -1.04538e-15)
(-0.449632 0.388906 -4.99375e-15)
(-0.452173 0.546041 3.00067e-15)
(-0.445318 0.590986 -7.42216e-15)
(-0.354337 0.370966 5.97663e-16)
(-0.14651 -0.288876 -3.47598e-15)
(0.250135 -1.61064 -1.02298e-14)
(0.678066 -0.0957246 -9.90643e-17)
(-0.411882 -0.191582 6.65654e-16)
(-0.377283 -0.0404821 4.11243e-15)
(-0.343052 0.151289 4.31004e-16)
(-0.283916 0.370252 2.6885e-15)
(-0.206607 0.576036 0)
(-0.129509 0.725046 7.38839e-15)
(0.0113556 0.709706 8.71926e-15)
(0.234148 0.276664 9.79382e-15)
(0.559986 -0.999932 7.97451e-15)
(0.578617 0.0555102 -1.02164e-16)
(-0.319149 -0.184638 6.82931e-16)
(-0.156464 -0.102028 -7.1844e-16)
(-0.0228498 0.0287842 -2.33184e-15)
(0.124832 0.201561 7.80942e-15)
(0.305074 0.401219 1.0204e-14)
(0.465709 0.596351 -3.53736e-15)
(0.60411 0.726015 0)
(0.852229 0.67419 0)
(0.892638 -0.27573 -9.26046e-15)
(0.29719 0.155078 5.21829e-18)
(-0.380638 -0.102967 7.82146e-16)
(-0.252064 -0.0349226 0)
(-0.236172 0.0571378 0)
(-0.221073 0.160913 -3.50952e-15)
(-0.177833 0.295079 5.88579e-18)
(-0.0841194 0.470234 6.4921e-15)
(0.10376 0.672427 -1.445e-14)
(0.373343 0.770543 1.66968e-14)
(0.662365 0.160699 1.32984e-15)
(-0.975151 -4.23246 0)
(-0.950363 -5.86692 0)
(-0.880228 -7.98004 0)
(-0.785654 -10.3618 -7.59771e-16)
(-0.690396 -12.8993 0)
(-0.508925 -15.6097 0)
(-1.03973 -18.8868 8.76568e-16)
(0.978605 -23.9133 0)
(-1.42722 -22.1658 0)
(0.529057 -40.353 0)
(-0.93297 -4.12881 1.35668e-15)
(-0.70221 -5.8849 2.41825e-15)
(-0.380861 -8.04371 1.75482e-16)
(-0.0632524 -10.3941 9.11403e-16)
(0.265885 -12.8761 1.06539e-16)
(0.63596 -15.5354 1.19942e-15)
(0.814697 -18.8333 1.26245e-16)
(2.80913 -23.5815 3.55796e-17)
(0.251761 -22.9687 -2.7576e-15)
(3.74976 -40.5631 -4.53502e-16)
(-0.645309 -4.0822 1.19708e-15)
(-0.2552 -5.92425 0)
(0.231555 -8.07802 -1.93991e-15)
(0.70536 -10.3625 -1.75053e-15)
(1.21976 -12.7898 5.15014e-15)
(1.76582 -15.4413 -1.10486e-15)
(2.36738 -18.7479 1.88185e-15)
(4.58233 -22.9831 0)
(1.60871 -23.3931 2.98871e-15)
(7.56039 -40.693 -1.50737e-17)
(-0.280024 -4.01583 2.66294e-15)
(0.259841 -5.9139 6.8459e-15)
(0.897619 -8.03142 -7.32167e-15)
(1.5085 -10.2401 2.94147e-15)
(2.18404 -12.6101 6.08613e-17)
(2.90774 -15.2471 0)
(3.83731 -18.5092 -1.86175e-15)
(6.23369 -22.3003 -3.33812e-15)
(3.28198 -23.784 -2.91141e-15)
(10.9924 -40.4419 2.16363e-15)
(0.132255 -3.90496 2.37828e-15)
(0.823635 -5.83614 -2.17397e-15)
(1.60289 -7.8942 7.55382e-15)
(2.33916 -10.0266 -3.06279e-15)
(3.17081 -12.3398 2.78572e-15)
(4.07498 -14.944 -4.38173e-15)
(5.32635 -18.1106 4.133e-15)
(7.87542 -21.5325 3.61727e-15)
(5.15872 -23.9793 0)
(14.17 -39.9206 -4.2889e-15)
(0.571724 -3.73104 2.97005e-15)
(1.42634 -5.67734 -1.33088e-14)
(2.3357 -7.65585 -4.04739e-15)
(3.18519 -9.71633 9.72155e-15)
(4.17031 -11.9752 8.74479e-15)
(5.26049 -14.5366 5.01814e-16)
(6.79571 -17.5785 3.07669e-16)
(9.56917 -20.6266 -3.26928e-15)
(7.11763 -24.0176 -1.92377e-15)
(17.3276 -39.0775 4.70642e-15)
(1.0159 -3.47796 3.00925e-15)
(2.05004 -5.43242 4.7531e-15)
(3.07519 -7.31759 0)
(4.02387 -9.31004 -3.20856e-15)
(5.15529 -11.5138 -5.30984e-15)
(6.41921 -14.0245 5.40903e-16)
(8.19506 -16.9406 -1.23495e-14)
(11.2158 -19.6567 -3.69592e-15)
(8.92721 -23.8745 5.12442e-15)
(20.4628 -37.9232 -2.5913e-15)
(1.45245 -3.12585 1.19021e-14)
(2.66291 -5.08745 -4.30479e-15)
(3.79607 -6.8709 0)
(4.83658 -8.79909 -2.65623e-16)
(6.10258 -10.9401 2.30736e-14)
(7.52012 -13.3862 -9.82876e-15)
(9.50666 -16.1675 -9.42637e-15)
(12.8041 -18.5617 7.35449e-15)
(10.6984 -23.5269 -6.24816e-15)
(23.5231 -36.4747 0)
(1.94417 -2.60933 3.40522e-16)
(3.20058 -4.61115 -4.5123e-15)
(4.47457 -6.28288 0)
(5.62741 -8.15344 7.44451e-15)
(7.02027 -10.2231 -1.7544e-14)
(8.57971 -12.5914 1.03065e-14)
(10.7585 -15.2512 4.41319e-15)
(14.3824 -17.3438 0)
(12.4247 -22.9362 -1.94163e-16)
(26.4272 -34.7091 2.07027e-15)
(2.73606 -1.75321 4.27594e-16)
(3.63587 -4.0759 5.07608e-17)
(5.11133 -5.63994 0)
(6.45167 -7.43149 -1.48387e-14)
(7.98488 -9.38449 5.45433e-15)
(9.64513 -11.605 -5.92828e-15)
(11.897 -14.1264 5.02038e-15)
(16.0041 -15.9631 1.28505e-16)
(14.2545 -22.5498 -5.99284e-16)
(29.0509 -32.493 -1.98094e-15)
(4.02326 -0.936299 3.2116e-15)
(4.0253 -3.65372 -5.7067e-15)
(5.64083 -5.03502 0)
(7.17085 -6.72127 0)
(8.87636 -8.54095 0)
(10.7359 -10.5444 -3.01603e-15)
(13.0692 -12.7996 1.20463e-14)
(16.881 -14.1915 0)
(14.5745 -22.5796 0)
(31.1995 -31.0613 0)
(4.23593 -1.00523 -3.14543e-15)
(4.20709 -3.32368 -5.79024e-15)
(5.79993 -4.69198 0)
(7.42549 -6.34294 4.1957e-15)
(9.21952 -8.12867 -3.18204e-15)
(11.1885 -10.0839 3.06879e-15)
(13.6539 -12.1332 4.90267e-15)
(17.5376 -12.7415 -5.6273e-17)
(15.4286 -21.2958 1.6406e-15)
(32.8023 -30.1919 0)
(3.3559 -2.10201 4.26385e-16)
(4.41858 -3.16109 -3.74163e-17)
(5.91464 -4.54958 0)
(7.62498 -6.09974 3.85715e-16)
(9.49089 -7.81915 7.08755e-15)
(11.5007 -9.79194 -4.85651e-15)
(14.0865 -11.7047 -1.44081e-14)
(18.3415 -11.5429 -8.67018e-15)
(17.2261 -18.7864 1.23269e-14)
(34.6706 -28.4502 1.84697e-15)
(3.31915 -1.67749 -1.4115e-14)
(4.75559 -2.72287 5.34085e-15)
(6.36264 -3.90594 0)
(8.20161 -5.28209 -8.15894e-15)
(10.206 -6.81446 -6.86136e-15)
(12.3317 -8.63582 1.11713e-14)
(15.0229 -10.4637 4.83958e-15)
(19.4429 -10.3291 0)
(18.1401 -17.8429 -4.54207e-15)
(36.5689 -25.6064 7.03133e-16)
(3.75886 -1.46403 -3.95778e-16)
(5.1375 -2.28616 5.47735e-15)
(6.78632 -3.2949 0)
(8.70278 -4.49982 1.63349e-14)
(10.8075 -5.83361 -8.12784e-18)
(13.0203 -7.47481 -3.18977e-16)
(15.7162 -9.20548 1.04738e-14)
(20.3274 -8.40807 -8.19777e-15)
(19.1554 -16.3489 -5.66149e-15)
(38.3671 -22.8433 0)
(4.18172 -1.14955 -3.49718e-15)
(5.48082 -1.81219 1.17343e-14)
(7.14269 -2.68412 1.02341e-14)
(9.1286 -3.72757 -1.16431e-14)
(11.3308 -4.86241 -2.03268e-14)
(13.6465 -6.29875 -5.28285e-16)
(16.3485 -8.01233 -5.03927e-15)
(21.1857 -6.31781 -4.37002e-15)
(19.9732 -14.3383 -4.31901e-15)
(39.9019 -19.8806 -1.21437e-15)
(4.49577 -0.754616 -1.03964e-14)
(5.77092 -1.28977 5.51774e-15)
(7.46259 -2.03545 -4.14373e-15)
(9.51913 -2.91635 -1.15897e-14)
(11.8099 -3.8507 9.12563e-15)
(14.2286 -5.04985 -4.51462e-16)
(16.9466 -6.78492 9.13124e-15)
(21.9554 -4.32422 4.461e-15)
(20.4619 -12.08 1.5123e-15)
(41.1215 -16.7345 -6.28256e-16)
(4.70023 -0.379219 2.74183e-15)
(5.98903 -0.803452 -2.5437e-15)
(7.72415 -1.41907 -1.39426e-16)
(9.85525 -2.12976 1.0843e-14)
(12.2309 -2.85456 -1.51879e-14)
(14.7461 -3.78829 4.85122e-15)
(17.5029 -5.50687 -4.69951e-15)
(22.518 -2.58329 1.21832e-14)
(20.6717 -9.80022 0)
(41.9015 -13.0046 -1.05497e-16)
(4.80707 -0.0768756 2.78116e-15)
(6.14277 -0.399256 2.40057e-15)
(7.94316 -0.865164 4.17728e-15)
(10.1513 -1.39165 -6.6864e-15)
(12.6015 -1.88487 2.78132e-15)
(15.1983 -2.52107 0)
(18.008 -4.21973 -1.92091e-15)
(23.0308 -0.940753 -7.81835e-15)
(20.7358 -7.36962 4.33911e-17)
(42.0566 -9.26195 2.13141e-15)
(4.82946 0.143613 1.14222e-15)
(6.24687 -0.0981279 0)
(8.12434 -0.406481 1.92835e-15)
(10.4 -0.745366 1.73429e-15)
(12.8962 -1.0071 1.44574e-16)
(15.539 -1.34368 -1.06527e-15)
(18.4755 -2.98993 1.82402e-15)
(23.409 0.660476 0)
(20.733 -4.65108 2.68929e-15)
(41.4843 -6.15135 2.31976e-15)
(4.75352 0.245474 1.1928e-15)
(6.26161 -0.0294905 -2.13143e-15)
(8.23518 -0.308788 -1.50912e-16)
(10.5906 -0.586402 5.95286e-16)
(13.139 -0.852769 -8.11649e-17)
(15.8521 -0.976257 9.54507e-16)
(19.095 -2.25836 -1.73768e-15)
(24.0167 0.715466 -1.40949e-16)
(20.5569 -1.6882 2.39769e-15)
(41.0088 -3.89064 -1.77923e-15)
(4.50211 -0.474727 1.67923e-29)
(6.04247 -0.7474 0)
(8.07244 -0.955731 0)
(10.4277 -1.14941 -7.3522e-16)
(12.9744 -1.30997 0)
(15.7009 -1.36793 0)
(18.8915 -2.35333 8.2159e-16)
(24.2637 -0.444806 0)
(21.7352 -1.88284 0)
(39.0284 -3.7909 -6.81695e-30)
(1.22231 -0.149943 1.06596e-15)
(1.64092 -0.946774 -7.68651e-15)
(2.25002 -0.876448 7.79075e-15)
(2.83676 -0.645663 -1.11467e-14)
(3.24262 -0.302754 7.54622e-15)
(3.50704 0.0201843 -1.38134e-14)
(3.6534 0.260618 3.03831e-15)
(3.69335 0.405817 -2.8843e-15)
(3.61432 0.453578 0)
(3.35103 -0.215771 -2.97837e-16)
(-0.203392 -0.10625 1.42431e-14)
(0.381345 -0.768442 0)
(0.952226 -0.592882 7.8993e-15)
(1.62588 -0.338881 -3.27384e-15)
(2.12294 -0.00758176 -1.17786e-14)
(2.46462 0.280718 0)
(2.67308 0.471611 -3.19636e-15)
(2.76596 0.579964 -1.20975e-15)
(2.72609 0.613678 7.67899e-16)
(2.47833 0.0747495 -3.14871e-16)
(-0.758929 -0.209128 -1.17715e-14)
(-0.406765 -0.675036 0)
(-0.00796538 -0.474749 6.91085e-15)
(0.620087 -0.199275 7.30003e-16)
(1.15565 0.122147 9.47217e-15)
(1.54901 0.389353 -3.94551e-15)
(1.80474 0.548078 0)
(1.94231 0.646197 3.23407e-15)
(1.9576 0.705057 -4.86227e-16)
(1.76282 0.339101 3.67276e-16)
(-0.665283 -0.223696 5.3818e-15)
(-0.744059 -0.500286 -2.27253e-15)
(-0.633239 -0.402809 5.17784e-15)
(-0.209711 -0.146803 -5.60481e-15)
(0.263056 0.168478 6.33013e-16)
(0.664639 0.457013 3.53913e-15)
(0.946203 0.643085 -9.69884e-15)
(1.12578 0.767818 1.59105e-15)
(1.21205 0.823976 2.34571e-15)
(1.12285 0.612082 5.73727e-17)
(-0.430054 -0.178497 -8.01982e-15)
(-0.666973 -0.301467 6.52009e-15)
(-0.843808 -0.282662 0)
(-0.683793 -0.0922012 2.1363e-15)
(-0.393672 0.180658 2.35302e-15)
(-0.074414 0.450021 -2.78646e-16)
(0.188552 0.627157 1.63873e-15)
(0.390229 0.749777 3.62427e-15)
(0.527548 0.820011 -5.95262e-18)
(0.534623 0.748774 3.39563e-16)
(-0.216188 -0.113788 -3.18036e-15)
(-0.440309 -0.10979 5.02216e-15)
(-0.72971 -0.133559 1.90563e-15)
(-0.784046 -0.0165276 -3.2463e-15)
(-0.679054 0.19299 -1.97237e-15)
(-0.500021 0.412863 -2.44429e-16)
(-0.30916 0.571257 -3.46292e-15)
(-0.137552 0.679346 1.0239e-15)
(0.000569086 0.745494 3.44336e-16)
(0.0563 0.71273 -3.626e-16)
(-0.072153 -0.0483955 0)
(-0.197725 0.0469312 -1.64893e-15)
(-0.483766 0.023091 4.30974e-16)
(-0.650521 0.0830591 -7.60704e-16)
(-0.678556 0.215619 1.29003e-15)
(-0.61416 0.366335 0)
(-0.511843 0.483807 7.98462e-16)
(-0.382193 0.569183 1.17985e-15)
(-0.254257 0.635191 -1.0754e-15)
(-0.175763 0.635617 -2.55097e-17)
(0.016911 0.0159021 0)
(-0.0140636 0.172856 -4.1175e-16)
(-0.225272 0.16692 2.75102e-15)
(-0.395596 0.184757 -2.05818e-15)
(-0.478897 0.24064 0)
(-0.481254 0.310551 -3.88458e-16)
(-0.428221 0.362354 -9.85348e-16)
(-0.331739 0.399316 7.76599e-16)
(-0.214958 0.443164 8.47647e-16)
(-0.117703 0.450393 -3.29116e-16)
(0.0838461 0.033933 -7.69292e-16)
(0.092006 0.203773 4.08251e-16)
(-0.0289833 0.160369 3.98693e-16)
(-0.140967 0.106998 -3.96509e-16)
(-0.201722 0.0735533 0)
(-0.202278 0.0563206 4.11802e-16)
(-0.149286 0.0464313 6.54276e-16)
(-0.0480632 0.0430873 -7.71794e-16)
(0.094463 0.0692996 -1.70797e-16)
(0.254025 0.071493 1.51657e-17)
(0.517769 0.417303 -1.44224e-16)
(0.781193 0.718946 4.96701e-17)
(0.852129 0.722536 3.70034e-17)
(0.860532 0.67123 0)
(0.847684 0.642754 -1.53931e-17)
(0.826785 0.642508 0)
(0.804578 0.66108 -8.55885e-17)
(0.788567 0.693843 1.33064e-16)
(0.791371 0.764333 3.17533e-17)
(0.763898 0.860244 -9.71726e-18)
)
;

boundaryField
{
    right
    {
        type            cyclic;
    }
    left
    {
        type            cyclic;
    }
    outerWall
    {
        type            noSlip;
    }
    stirrerWall
    {
        type            noSlip;
    }
    top
    {
        type            empty;
    }
    bottom
    {
        type            empty;
    }
}


// ************************************************************************* //
