/*--------------------------------*- C++ -*----------------------------------*\
  =========                 |
  \\      /  F ield         | OpenFOAM: The Open Source CFD Toolbox
   \\    /   O peration     | Website:  https://openfoam.org
    \\  /    A nd           | Version:  10
     \\/     M anipulation  |
\*---------------------------------------------------------------------------*/
FoamFile
{
    format      ascii;
    class       surfaceScalarField;
    location    "4000";
    object      phi;
}
// * * * * * * * * * * * * * * * * * * * * * * * * * * * * * * * * * * * * * //

dimensions      [0 3 -1 0 0 0 0];

internalField   nonuniform List<scalar> 
35320
(
1.44947e-08
8.90426e-06
-8.91875e-06
2.31682e-08
7.4788e-06
-7.48747e-06
2.78398e-08
6.90919e-06
-6.91387e-06
3.04756e-08
6.54598e-06
-6.54862e-06
3.19372e-08
6.28265e-06
-6.28412e-06
3.26897e-08
6.08023e-06
-6.08099e-06
3.29846e-08
5.91823e-06
-5.91853e-06
3.29643e-08
5.78482e-06
-5.7848e-06
3.27463e-08
5.67253e-06
-5.67232e-06
3.24102e-08
5.57624e-06
-5.5759e-06
3.20604e-08
5.49226e-06
-5.49191e-06
3.17739e-08
5.41804e-06
-5.41776e-06
3.15771e-08
5.35168e-06
-5.35148e-06
3.14616e-08
5.29169e-06
-5.29158e-06
3.14109e-08
5.23694e-06
-5.23689e-06
3.141e-08
5.18653e-06
-5.18653e-06
3.14452e-08
5.13979e-06
-5.13982e-06
3.15084e-08
5.09619e-06
-5.09626e-06
3.15922e-08
5.05535e-06
-5.05544e-06
3.16902e-08
5.01695e-06
-5.01704e-06
3.18046e-08
4.98073e-06
-4.98084e-06
3.19386e-08
4.94648e-06
-4.94662e-06
3.20874e-08
4.91405e-06
-4.9142e-06
3.22577e-08
4.88326e-06
-4.88343e-06
3.24453e-08
4.85398e-06
-4.85417e-06
3.26542e-08
4.82609e-06
-4.8263e-06
3.28831e-08
4.79947e-06
-4.7997e-06
3.31308e-08
4.77402e-06
-4.77427e-06
3.33992e-08
4.74964e-06
-4.74991e-06
3.36844e-08
4.72626e-06
-4.72655e-06
3.39883e-08
4.7038e-06
-4.7041e-06
3.43106e-08
4.68219e-06
-4.68252e-06
3.46515e-08
4.66138e-06
-4.66173e-06
3.50099e-08
4.64132e-06
-4.64168e-06
3.53846e-08
4.62195e-06
-4.62233e-06
3.57769e-08
4.60324e-06
-4.60363e-06
3.61863e-08
4.58515e-06
-4.58556e-06
3.66125e-08
4.56763e-06
-4.56806e-06
3.70546e-08
4.55068e-06
-4.55112e-06
3.75138e-08
4.53424e-06
-4.5347e-06
3.79891e-08
4.51831e-06
-4.51879e-06
3.8482e-08
4.50286e-06
-4.50335e-06
3.89909e-08
4.48787e-06
-4.48838e-06
3.95164e-08
4.47332e-06
-4.47384e-06
4.00594e-08
4.45919e-06
-4.45973e-06
4.06175e-08
4.44546e-06
-4.44602e-06
4.11913e-08
4.43213e-06
-4.4327e-06
4.17799e-08
4.41916e-06
-4.41975e-06
4.23817e-08
4.40654e-06
-4.40714e-06
4.29957e-08
4.39425e-06
-4.39487e-06
4.36217e-08
4.38229e-06
-4.38292e-06
4.426e-08
4.37067e-06
-4.37131e-06
4.49152e-08
4.35939e-06
-4.36005e-06
4.55923e-08
4.3485e-06
-4.34918e-06
4.63006e-08
4.33804e-06
-4.33875e-06
4.70523e-08
4.32807e-06
-4.32882e-06
4.78596e-08
4.31863e-06
-4.31944e-06
4.87347e-08
4.30976e-06
-4.31064e-06
4.9686e-08
4.30149e-06
-4.30244e-06
5.07131e-08
4.2938e-06
-4.29483e-06
5.18062e-08
4.28667e-06
-4.28776e-06
5.29413e-08
4.28003e-06
-4.28117e-06
5.40874e-08
4.27373e-06
-4.27488e-06
5.52279e-08
4.26762e-06
-4.26876e-06
5.63673e-08
4.26163e-06
-4.26277e-06
5.75042e-08
4.25576e-06
-4.2569e-06
5.86418e-08
4.24999e-06
-4.25112e-06
5.97804e-08
4.2443e-06
-4.24544e-06
6.092e-08
4.23869e-06
-4.23983e-06
6.20622e-08
4.23313e-06
-4.23427e-06
6.32055e-08
4.22762e-06
-4.22876e-06
6.43503e-08
4.22213e-06
-4.22328e-06
6.54957e-08
4.21665e-06
-4.2178e-06
6.66414e-08
4.21117e-06
-4.21231e-06
6.77871e-08
4.20565e-06
-4.2068e-06
6.89308e-08
4.2001e-06
-4.20124e-06
7.00724e-08
4.19448e-06
-4.19563e-06
7.12111e-08
4.18878e-06
-4.18992e-06
7.23453e-08
4.18299e-06
-4.18412e-06
7.34745e-08
4.17707e-06
-4.1782e-06
7.4598e-08
4.17101e-06
-4.17213e-06
7.57141e-08
4.16479e-06
-4.16591e-06
7.68214e-08
4.15838e-06
-4.15949e-06
7.79199e-08
4.15177e-06
-4.15287e-06
7.90082e-08
4.14493e-06
-4.14602e-06
8.00854e-08
4.13784e-06
-4.13892e-06
8.11502e-08
4.13046e-06
-4.13153e-06
8.22011e-08
4.12278e-06
-4.12384e-06
8.32377e-08
4.11477e-06
-4.11581e-06
8.42576e-08
4.1064e-06
-4.10742e-06
8.52601e-08
4.09764e-06
-4.09864e-06
4.0885e-06
-4.08948e-06
1.11194e-09
8.90315e-06
3.37058e-09
7.47654e-06
6.84195e-09
6.90572e-06
1.05141e-08
6.54231e-06
1.37673e-08
6.2794e-06
1.65087e-08
6.07749e-06
1.87586e-08
5.91598e-06
2.05899e-08
5.78299e-06
2.20911e-08
5.67103e-06
2.32795e-08
5.57505e-06
2.41665e-08
5.49137e-06
2.48813e-08
5.41733e-06
2.553e-08
5.35103e-06
2.6149e-08
5.29107e-06
2.67427e-08
5.23634e-06
2.73068e-08
5.18596e-06
2.78376e-08
5.13925e-06
2.83334e-08
5.0957e-06
2.87966e-08
5.05489e-06
2.92344e-08
5.01651e-06
2.96475e-08
4.98031e-06
3.00436e-08
4.94609e-06
3.04279e-08
4.91366e-06
3.08043e-08
4.88288e-06
3.11798e-08
4.85361e-06
3.15542e-08
4.82572e-06
3.19327e-08
4.79909e-06
3.23157e-08
4.77363e-06
3.27029e-08
4.74925e-06
3.30975e-08
4.72587e-06
3.35005e-08
4.7034e-06
3.39131e-08
4.68178e-06
3.43327e-08
4.66096e-06
3.47637e-08
4.64089e-06
3.52049e-08
4.62151e-06
3.56566e-08
4.60279e-06
3.6119e-08
4.58468e-06
3.65945e-08
4.56716e-06
3.70804e-08
4.55019e-06
3.7579e-08
4.53374e-06
3.80911e-08
4.5178e-06
3.8615e-08
4.50233e-06
3.91529e-08
4.48733e-06
3.97048e-08
4.47276e-06
4.02695e-08
4.45862e-06
4.08486e-08
4.44488e-06
4.14407e-08
4.43153e-06
4.2045e-08
4.41855e-06
4.26609e-08
4.40592e-06
4.32862e-08
4.39362e-06
4.39233e-08
4.38166e-06
4.45714e-08
4.37002e-06
4.52336e-08
4.35873e-06
4.59168e-08
4.34782e-06
4.66287e-08
4.33733e-06
4.73816e-08
4.32731e-06
4.81889e-08
4.31782e-06
4.90616e-08
4.30889e-06
5.00092e-08
4.30054e-06
5.1033e-08
4.29278e-06
5.21239e-08
4.28558e-06
5.32602e-08
4.27889e-06
5.441e-08
4.27258e-06
5.55569e-08
4.26647e-06
5.67e-08
4.26049e-06
5.78422e-08
4.25462e-06
5.89837e-08
4.24884e-06
6.01251e-08
4.24316e-06
6.1268e-08
4.23754e-06
6.24109e-08
4.23199e-06
6.35556e-08
4.22647e-06
6.4701e-08
4.22098e-06
6.58468e-08
4.2155e-06
6.69924e-08
4.21002e-06
6.8137e-08
4.20451e-06
6.92807e-08
4.19895e-06
7.04214e-08
4.19334e-06
7.15584e-08
4.18764e-06
7.26919e-08
4.18185e-06
7.38195e-08
4.17594e-06
7.49405e-08
4.16989e-06
7.60548e-08
4.16367e-06
7.71601e-08
4.15728e-06
7.82562e-08
4.15067e-06
7.9341e-08
4.14384e-06
8.0414e-08
4.13676e-06
8.14739e-08
4.1294e-06
8.25191e-08
4.12174e-06
8.35477e-08
4.11374e-06
8.45587e-08
4.10539e-06
8.55491e-08
4.09665e-06
4.08753e-06
1.99601e-09
8.90115e-06
3.83428e-09
7.4747e-06
5.87935e-09
6.90368e-06
7.95375e-09
6.54023e-06
9.94132e-09
6.27741e-06
1.18036e-08
6.07563e-06
1.35214e-08
5.91427e-06
1.51125e-08
5.7814e-06
1.66102e-08
5.66953e-06
1.80003e-08
5.57366e-06
1.91777e-08
5.4902e-06
2.01425e-08
5.41636e-06
2.10296e-08
5.35014e-06
2.19068e-08
5.29019e-06
2.27786e-08
5.23547e-06
2.36322e-08
5.18511e-06
2.44535e-08
5.13843e-06
2.52335e-08
5.09492e-06
2.59724e-08
5.05415e-06
2.66656e-08
5.01581e-06
2.7323e-08
4.97965e-06
2.79443e-08
4.94546e-06
2.85406e-08
4.91307e-06
2.91125e-08
4.88231e-06
2.96661e-08
4.85305e-06
3.02064e-08
4.82518e-06
3.07364e-08
4.79856e-06
3.12577e-08
4.77311e-06
3.17732e-08
4.74874e-06
3.22855e-08
4.72535e-06
3.27951e-08
4.70289e-06
3.33037e-08
4.68127e-06
3.38132e-08
4.66045e-06
3.43255e-08
4.64038e-06
3.48401e-08
4.621e-06
3.53593e-08
4.60227e-06
3.58845e-08
4.58416e-06
3.64137e-08
4.56663e-06
3.69516e-08
4.54965e-06
3.74974e-08
4.5332e-06
3.80495e-08
4.51724e-06
3.8612e-08
4.50177e-06
3.9184e-08
4.48675e-06
3.97658e-08
4.47218e-06
4.03584e-08
4.45803e-06
4.09622e-08
4.44428e-06
4.15763e-08
4.43092e-06
4.22006e-08
4.41793e-06
4.2833e-08
4.40529e-06
4.34755e-08
4.39298e-06
4.41255e-08
4.381e-06
4.4785e-08
4.36936e-06
4.54572e-08
4.35806e-06
4.61481e-08
4.34713e-06
4.68667e-08
4.33661e-06
4.7623e-08
4.32656e-06
4.84315e-08
4.31701e-06
4.93037e-08
4.30802e-06
5.02489e-08
4.29959e-06
5.12703e-08
4.29175e-06
5.23585e-08
4.28449e-06
5.34945e-08
4.27776e-06
5.46463e-08
4.27143e-06
5.57966e-08
4.26532e-06
5.69455e-08
4.25934e-06
5.80918e-08
4.25347e-06
5.9237e-08
4.2477e-06
6.03826e-08
4.24201e-06
6.15274e-08
4.2364e-06
6.26731e-08
4.23084e-06
6.38184e-08
4.22533e-06
6.49646e-08
4.21984e-06
6.61101e-08
4.21436e-06
6.72556e-08
4.20887e-06
6.83996e-08
4.20336e-06
6.95418e-08
4.19781e-06
7.06816e-08
4.1922e-06
7.18175e-08
4.18651e-06
7.29489e-08
4.18072e-06
7.40749e-08
4.17481e-06
7.51941e-08
4.16876e-06
7.63052e-08
4.16256e-06
7.7408e-08
4.15617e-06
7.85001e-08
4.14958e-06
7.95812e-08
4.14276e-06
8.06497e-08
4.13569e-06
8.17038e-08
4.12834e-06
8.27423e-08
4.1207e-06
8.3763e-08
4.11272e-06
8.47636e-08
4.10438e-06
8.57411e-08
4.09567e-06
4.08658e-06
1.56264e-09
8.89959e-06
3.00971e-09
7.47325e-06
4.71049e-09
6.90197e-06
6.38005e-09
6.53856e-06
7.97001e-09
6.27582e-06
9.46185e-09
6.07413e-06
1.08596e-08
5.91287e-06
1.22029e-08
5.78006e-06
1.35212e-08
5.66822e-06
1.48204e-08
5.57236e-06
1.60203e-08
5.489e-06
1.70486e-08
5.41533e-06
1.79747e-08
5.34921e-06
1.88941e-08
5.28927e-06
1.98342e-08
5.23453e-06
2.07863e-08
5.18416e-06
2.17288e-08
5.13749e-06
2.26461e-08
5.094e-06
2.35312e-08
5.05326e-06
2.43792e-08
5.01496e-06
2.51911e-08
4.97884e-06
2.5968e-08
4.94469e-06
2.67123e-08
4.91232e-06
2.74323e-08
4.88159e-06
2.81268e-08
4.85236e-06
2.88017e-08
4.8245e-06
2.94579e-08
4.7979e-06
3.01001e-08
4.77247e-06
3.07302e-08
4.74811e-06
3.13484e-08
4.72473e-06
3.19572e-08
4.70228e-06
3.25596e-08
4.68067e-06
3.31554e-08
4.65986e-06
3.3747e-08
4.63978e-06
3.43363e-08
4.62041e-06
3.49244e-08
4.60168e-06
3.55117e-08
4.58357e-06
3.61005e-08
4.56604e-06
3.66903e-08
4.54906e-06
3.72841e-08
4.5326e-06
3.7882e-08
4.51665e-06
3.84847e-08
4.50117e-06
3.9093e-08
4.48615e-06
3.97082e-08
4.47156e-06
4.03313e-08
4.4574e-06
4.0962e-08
4.44365e-06
4.16e-08
4.43028e-06
4.22461e-08
4.41728e-06
4.29e-08
4.40463e-06
4.35588e-08
4.39232e-06
4.42241e-08
4.38034e-06
4.48978e-08
4.36868e-06
4.55823e-08
4.35737e-06
4.62821e-08
4.34643e-06
4.70076e-08
4.33588e-06
4.77693e-08
4.32579e-06
4.85797e-08
4.3162e-06
4.94526e-08
4.30714e-06
5.03965e-08
4.29865e-06
5.14148e-08
4.29074e-06
5.25012e-08
4.2834e-06
5.36359e-08
4.27662e-06
5.47889e-08
4.27028e-06
5.59424e-08
4.26417e-06
5.70938e-08
4.25819e-06
5.82451e-08
4.25232e-06
5.93945e-08
4.24655e-06
6.05427e-08
4.24086e-06
6.16906e-08
4.23525e-06
6.28375e-08
4.22969e-06
6.39851e-08
4.22418e-06
6.51314e-08
4.21869e-06
6.62779e-08
4.21321e-06
6.74228e-08
4.20773e-06
6.85661e-08
4.20222e-06
6.9707e-08
4.19667e-06
7.08453e-08
4.19106e-06
7.19795e-08
4.18537e-06
7.31091e-08
4.17959e-06
7.42324e-08
4.17369e-06
7.53493e-08
4.16765e-06
7.6458e-08
4.16145e-06
7.75569e-08
4.15507e-06
7.86459e-08
4.14849e-06
7.97227e-08
4.14168e-06
8.07858e-08
4.13463e-06
8.1834e-08
4.12729e-06
8.2865e-08
4.11966e-06
8.38766e-08
4.1117e-06
8.48669e-08
4.10339e-06
8.58324e-08
4.0947e-06
4.08564e-06
8.80963e-10
8.8987e-06
1.74808e-09
7.47238e-06
2.94659e-09
6.90078e-06
4.26967e-09
6.53724e-06
5.633e-09
6.27445e-06
6.97363e-09
6.07279e-06
8.2851e-09
5.91155e-06
9.5775e-09
5.77876e-06
1.08606e-08
5.66693e-06
1.21353e-08
5.57108e-06
1.33796e-08
5.48775e-06
1.45071e-08
5.41421e-06
1.5502e-08
5.34822e-06
1.64589e-08
5.28832e-06
1.74367e-08
5.23355e-06
1.8439e-08
5.18315e-06
1.94475e-08
5.13648e-06
2.04472e-08
5.093e-06
2.14223e-08
5.05229e-06
2.23662e-08
5.01402e-06
2.32777e-08
4.97793e-06
2.4159e-08
4.94381e-06
2.50103e-08
4.91147e-06
2.58336e-08
4.88077e-06
2.66343e-08
4.85156e-06
2.74111e-08
4.82372e-06
2.81702e-08
4.79715e-06
2.89098e-08
4.77173e-06
2.96331e-08
4.74738e-06
3.0343e-08
4.72402e-06
3.10393e-08
4.70158e-06
3.17218e-08
4.67999e-06
3.23973e-08
4.65918e-06
3.30624e-08
4.63912e-06
3.37206e-08
4.61975e-06
3.43724e-08
4.60103e-06
3.50212e-08
4.58292e-06
3.56664e-08
4.56539e-06
3.63098e-08
4.54842e-06
3.69511e-08
4.53196e-06
3.75945e-08
4.516e-06
3.82383e-08
4.50052e-06
3.88848e-08
4.4855e-06
3.95352e-08
4.47091e-06
4.01897e-08
4.45675e-06
4.08485e-08
4.44299e-06
4.15135e-08
4.42961e-06
4.21827e-08
4.41661e-06
4.28571e-08
4.40396e-06
4.35356e-08
4.39164e-06
4.42193e-08
4.37965e-06
4.49074e-08
4.368e-06
4.5604e-08
4.35667e-06
4.63158e-08
4.34571e-06
4.70491e-08
4.33515e-06
4.78164e-08
4.32503e-06
4.86306e-08
4.31539e-06
4.95038e-08
4.30627e-06
5.04466e-08
4.29771e-06
5.14631e-08
4.28972e-06
5.25463e-08
4.28232e-06
5.36794e-08
4.27549e-06
5.48329e-08
4.26912e-06
5.59879e-08
4.26301e-06
5.71433e-08
4.25703e-06
5.82973e-08
4.25116e-06
5.94504e-08
4.24539e-06
6.06022e-08
4.23971e-06
6.17518e-08
4.2341e-06
6.29017e-08
4.22854e-06
6.40497e-08
4.22303e-06
6.51967e-08
4.21754e-06
6.63427e-08
4.21206e-06
6.7487e-08
4.20658e-06
6.86294e-08
4.20107e-06
6.97695e-08
4.19553e-06
7.09058e-08
4.18992e-06
7.20378e-08
4.18424e-06
7.31649e-08
4.17846e-06
7.4286e-08
4.17256e-06
7.5399e-08
4.16653e-06
7.65044e-08
4.16034e-06
7.76006e-08
4.15397e-06
7.86847e-08
4.1474e-06
7.97567e-08
4.14061e-06
8.08144e-08
4.13357e-06
8.18558e-08
4.12625e-06
8.28792e-08
4.11864e-06
8.38818e-08
4.1107e-06
8.48613e-08
4.10241e-06
8.58149e-08
4.09375e-06
4.08471e-06
5.76577e-10
8.89813e-06
1.23729e-09
7.47172e-06
2.12217e-09
6.89989e-06
3.15296e-09
6.53621e-06
4.27465e-09
6.27333e-06
5.42912e-09
6.07164e-06
6.59858e-09
5.91038e-06
7.78132e-09
5.77758e-06
8.97914e-09
5.66573e-06
1.01898e-08
5.56987e-06
1.14099e-08
5.48653e-06
1.25599e-08
5.41306e-06
1.35826e-08
5.34719e-06
1.45515e-08
5.28735e-06
1.5531e-08
5.23257e-06
1.65398e-08
5.18214e-06
1.75732e-08
5.13545e-06
1.86085e-08
5.09196e-06
1.96281e-08
5.05127e-06
2.06288e-08
5.01302e-06
2.16021e-08
4.97695e-06
2.25484e-08
4.94286e-06
2.34698e-08
4.91055e-06
2.43659e-08
4.87987e-06
2.52384e-08
4.85068e-06
2.6093e-08
4.82287e-06
2.6925e-08
4.79631e-06
2.77396e-08
4.77091e-06
2.8537e-08
4.74659e-06
2.93187e-08
4.72324e-06
3.00849e-08
4.70081e-06
3.08397e-08
4.67923e-06
3.15786e-08
4.65844e-06
3.23075e-08
4.63839e-06
3.30272e-08
4.61903e-06
3.37381e-08
4.60032e-06
3.44405e-08
4.58222e-06
3.51376e-08
4.5647e-06
3.58296e-08
4.54772e-06
3.6518e-08
4.53127e-06
3.72028e-08
4.51532e-06
3.78866e-08
4.49984e-06
3.85698e-08
4.48481e-06
3.92546e-08
4.47023e-06
3.99404e-08
4.45606e-06
4.06288e-08
4.4423e-06
4.13194e-08
4.42892e-06
4.20132e-08
4.41592e-06
4.27093e-08
4.40326e-06
4.34075e-08
4.39094e-06
4.41079e-08
4.37895e-06
4.48117e-08
4.36729e-06
4.5523e-08
4.35596e-06
4.62453e-08
4.34499e-06
4.69883e-08
4.33441e-06
4.77621e-08
4.32425e-06
4.85796e-08
4.31457e-06
4.9454e-08
4.30539e-06
5.0397e-08
4.29676e-06
5.14109e-08
4.2887e-06
5.24917e-08
4.28124e-06
5.36219e-08
4.27436e-06
5.47735e-08
4.26797e-06
5.59298e-08
4.26185e-06
5.70869e-08
4.25587e-06
5.82435e-08
4.25e-06
5.93998e-08
4.24423e-06
6.05535e-08
4.23855e-06
6.17069e-08
4.23294e-06
6.28574e-08
4.22739e-06
6.40067e-08
4.22188e-06
6.51543e-08
4.21639e-06
6.62999e-08
4.21092e-06
6.74438e-08
4.20543e-06
6.85849e-08
4.19993e-06
6.97227e-08
4.19439e-06
7.08571e-08
4.18878e-06
7.19866e-08
4.18311e-06
7.31106e-08
4.17733e-06
7.42288e-08
4.17144e-06
7.53394e-08
4.16542e-06
7.64403e-08
4.15924e-06
7.75313e-08
4.15288e-06
7.86112e-08
4.14632e-06
7.96775e-08
4.13954e-06
8.07294e-08
4.13251e-06
8.17641e-08
4.12521e-06
8.27792e-08
4.11762e-06
8.37735e-08
4.1097e-06
8.47426e-08
4.10144e-06
8.56844e-08
4.0928e-06
4.0838e-06
4.47719e-10
8.89768e-06
1.05081e-09
7.47112e-06
1.78378e-09
6.89916e-06
2.64841e-09
6.53534e-06
3.60075e-09
6.27238e-06
4.59956e-09
6.07064e-06
5.63688e-09
5.90935e-06
6.70037e-09
5.77652e-06
7.79524e-09
5.66464e-06
8.91782e-09
5.56875e-06
1.00711e-08
5.48538e-06
1.11801e-08
5.41195e-06
1.21892e-08
5.34618e-06
1.31374e-08
5.2864e-06
1.40897e-08
5.23162e-06
1.50752e-08
5.18116e-06
1.60926e-08
5.13443e-06
1.71244e-08
5.09093e-06
1.81566e-08
5.05023e-06
1.91774e-08
5.012e-06
2.01772e-08
4.97595e-06
2.11588e-08
4.94188e-06
2.21166e-08
4.90959e-06
2.3056e-08
4.87893e-06
2.39769e-08
4.84976e-06
2.48763e-08
4.82197e-06
2.5762e-08
4.79543e-06
2.6629e-08
4.77005e-06
2.74804e-08
4.74573e-06
2.83156e-08
4.7224e-06
2.91367e-08
4.69999e-06
2.99426e-08
4.67842e-06
3.07362e-08
4.65765e-06
3.15175e-08
4.63761e-06
3.22859e-08
4.61826e-06
3.30451e-08
4.59956e-06
3.37957e-08
4.58147e-06
3.4536e-08
4.56395e-06
3.52709e-08
4.54699e-06
3.59998e-08
4.53054e-06
3.67231e-08
4.51459e-06
3.7443e-08
4.49912e-06
3.81614e-08
4.4841e-06
3.88764e-08
4.46951e-06
3.95916e-08
4.45535e-06
4.03075e-08
4.44158e-06
4.10236e-08
4.42821e-06
4.17394e-08
4.4152e-06
4.24567e-08
4.40254e-06
4.31745e-08
4.39022e-06
4.38919e-08
4.37824e-06
4.46127e-08
4.36657e-06
4.53366e-08
4.35524e-06
4.60711e-08
4.34425e-06
4.6823e-08
4.33365e-06
4.76031e-08
4.32347e-06
4.84248e-08
4.31374e-06
4.93017e-08
4.30452e-06
5.02433e-08
4.29582e-06
5.12546e-08
4.28769e-06
5.23324e-08
4.28016e-06
5.34587e-08
4.27323e-06
5.46083e-08
4.26682e-06
5.57628e-08
4.2607e-06
5.69207e-08
4.25471e-06
5.80796e-08
4.24884e-06
5.92371e-08
4.24308e-06
6.03937e-08
4.2374e-06
6.15479e-08
4.23179e-06
6.27006e-08
4.22624e-06
6.38506e-08
4.22073e-06
6.49984e-08
4.21524e-06
6.61436e-08
4.20977e-06
6.7286e-08
4.20429e-06
6.84259e-08
4.19879e-06
6.95614e-08
4.19325e-06
7.06934e-08
4.18765e-06
7.18205e-08
4.18198e-06
7.29411e-08
4.17621e-06
7.40551e-08
4.17033e-06
7.51611e-08
4.16431e-06
7.62586e-08
4.15814e-06
7.7345e-08
4.15179e-06
7.84195e-08
4.14525e-06
7.94804e-08
4.13848e-06
8.05256e-08
4.13147e-06
8.15532e-08
4.12419e-06
8.25612e-08
4.11661e-06
8.35458e-08
4.10872e-06
8.45056e-08
4.10048e-06
8.54368e-08
4.09187e-06
4.0829e-06
3.56974e-10
8.89732e-06
8.87557e-10
7.47059e-06
1.51443e-09
6.89853e-06
2.25728e-09
6.5346e-06
3.08772e-09
6.27155e-06
3.98276e-09
6.06974e-06
4.91947e-09
5.90841e-06
5.9002e-09
5.77553e-06
6.91605e-09
5.66362e-06
7.96832e-09
5.56769e-06
9.05282e-09
5.48429e-06
1.01153e-08
5.41088e-06
1.11007e-08
5.3452e-06
1.20323e-08
5.28546e-06
1.29545e-08
5.23069e-06
1.39102e-08
5.1802e-06
1.48987e-08
5.13344e-06
1.59141e-08
5.08991e-06
1.69409e-08
5.04921e-06
1.79593e-08
5.01098e-06
1.89698e-08
4.97494e-06
1.99622e-08
4.94088e-06
2.09404e-08
4.90861e-06
2.19014e-08
4.87797e-06
2.28462e-08
4.84882e-06
2.3778e-08
4.82103e-06
2.46933e-08
4.79451e-06
2.55946e-08
4.76915e-06
2.64819e-08
4.74485e-06
2.73542e-08
4.72153e-06
2.82133e-08
4.69913e-06
2.90589e-08
4.67758e-06
2.98915e-08
4.65681e-06
3.07108e-08
4.63679e-06
3.15193e-08
4.61745e-06
3.23176e-08
4.59876e-06
3.31042e-08
4.58068e-06
3.38831e-08
4.56318e-06
3.46524e-08
4.54622e-06
3.54148e-08
4.52978e-06
3.61709e-08
4.51384e-06
3.69223e-08
4.49837e-06
3.76684e-08
4.48335e-06
3.84126e-08
4.46877e-06
3.91531e-08
4.4546e-06
3.98933e-08
4.44084e-06
4.06317e-08
4.42747e-06
4.13698e-08
4.41446e-06
4.21062e-08
4.40181e-06
4.28417e-08
4.38949e-06
4.35762e-08
4.3775e-06
4.43101e-08
4.36583e-06
4.50477e-08
4.3545e-06
4.57926e-08
4.34351e-06
4.65529e-08
4.33289e-06
4.73401e-08
4.32268e-06
4.81652e-08
4.31292e-06
4.90427e-08
4.30364e-06
4.99829e-08
4.29488e-06
5.09923e-08
4.28668e-06
5.20652e-08
4.27908e-06
5.31866e-08
4.27211e-06
5.43314e-08
4.26567e-06
5.54844e-08
4.25954e-06
5.66414e-08
4.25356e-06
5.78005e-08
4.24768e-06
5.89588e-08
4.24192e-06
6.01169e-08
4.23624e-06
6.12723e-08
4.23063e-06
6.24255e-08
4.22508e-06
6.35758e-08
4.21957e-06
6.47237e-08
4.21409e-06
6.58681e-08
4.20862e-06
6.70097e-08
4.20315e-06
6.8147e-08
4.19765e-06
6.92808e-08
4.19211e-06
7.04093e-08
4.18652e-06
7.15326e-08
4.18085e-06
7.265e-08
4.17509e-06
7.37597e-08
4.16922e-06
7.48616e-08
4.16321e-06
7.59536e-08
4.15705e-06
7.70349e-08
4.15071e-06
7.8104e-08
4.14417e-06
7.91588e-08
4.13742e-06
8.01978e-08
4.13042e-06
8.12184e-08
4.12316e-06
8.22182e-08
4.11561e-06
8.31951e-08
4.10774e-06
8.41453e-08
4.09952e-06
8.50669e-08
4.09095e-06
4.08201e-06
2.67342e-10
8.89705e-06
7.22652e-10
7.47013e-06
1.26593e-09
6.89798e-06
1.91584e-09
6.53395e-06
2.65743e-09
6.2708e-06
3.46811e-09
6.06893e-06
4.33472e-09
5.90754e-06
5.24881e-09
5.77462e-06
6.20796e-09
5.66266e-06
7.20229e-09
5.5667e-06
8.22634e-09
5.48327e-06
9.24222e-09
5.40987e-06
1.02082e-08
5.34423e-06
1.11221e-08
5.28455e-06
1.20261e-08
5.22979e-06
1.29492e-08
5.17928e-06
1.39124e-08
5.13248e-06
1.49043e-08
5.08892e-06
1.59118e-08
5.0482e-06
1.69251e-08
5.00996e-06
1.79309e-08
4.97394e-06
1.8926e-08
4.93989e-06
1.99086e-08
4.90763e-06
2.0878e-08
4.877e-06
2.18353e-08
4.84786e-06
2.27804e-08
4.82009e-06
2.3714e-08
4.79358e-06
2.46366e-08
4.76822e-06
2.55451e-08
4.74394e-06
2.64426e-08
4.72063e-06
2.7327e-08
4.69825e-06
2.8199e-08
4.6767e-06
2.90584e-08
4.65595e-06
2.99069e-08
4.63594e-06
3.07438e-08
4.61661e-06
3.15688e-08
4.59793e-06
3.2385e-08
4.57986e-06
3.31907e-08
4.56237e-06
3.39885e-08
4.54542e-06
3.47775e-08
4.52899e-06
3.55598e-08
4.51305e-06
3.63358e-08
4.49759e-06
3.71063e-08
4.48258e-06
3.78727e-08
4.468e-06
3.8636e-08
4.45384e-06
3.9395e-08
4.44008e-06
4.01528e-08
4.42671e-06
4.09084e-08
4.4137e-06
4.16612e-08
4.40105e-06
4.24118e-08
4.38874e-06
4.31611e-08
4.37675e-06
4.39083e-08
4.36509e-06
4.46564e-08
4.35375e-06
4.54111e-08
4.34275e-06
4.61793e-08
4.33212e-06
4.69709e-08
4.32189e-06
4.7799e-08
4.31209e-06
4.86768e-08
4.30276e-06
4.96155e-08
4.29394e-06
5.06207e-08
4.28567e-06
5.16885e-08
4.27801e-06
5.28024e-08
4.27099e-06
5.39413e-08
4.26453e-06
5.50897e-08
4.2584e-06
5.6245e-08
4.2524e-06
5.74028e-08
4.24652e-06
5.85621e-08
4.24076e-06
5.97194e-08
4.23508e-06
6.08754e-08
4.22947e-06
6.20284e-08
4.22393e-06
6.31787e-08
4.21842e-06
6.43255e-08
4.21295e-06
6.54684e-08
4.20748e-06
6.66078e-08
4.20201e-06
6.77427e-08
4.19651e-06
6.88733e-08
4.19098e-06
6.99986e-08
4.18539e-06
7.1118e-08
4.17973e-06
7.2231e-08
4.17398e-06
7.33361e-08
4.16811e-06
7.44329e-08
4.16211e-06
7.55197e-08
4.15596e-06
7.65955e-08
4.14963e-06
7.76585e-08
4.14311e-06
7.87073e-08
4.13637e-06
7.97394e-08
4.12939e-06
8.07531e-08
4.12215e-06
8.17466e-08
4.11461e-06
8.27153e-08
4.10677e-06
8.36579e-08
4.09858e-06
8.45709e-08
4.09003e-06
4.08113e-06
1.92709e-10
8.89686e-06
5.90039e-10
7.46973e-06
1.07437e-09
6.8975e-06
1.65435e-09
6.53336e-06
2.32514e-09
6.27013e-06
3.06994e-09
6.06819e-06
3.87685e-09
5.90673e-06
4.73627e-09
5.77376e-06
5.64138e-09
5.66176e-06
6.58393e-09
5.56576e-06
7.55351e-09
5.4823e-06
8.52573e-09
5.40889e-06
9.46914e-09
5.34329e-06
1.03692e-08
5.28365e-06
1.12516e-08
5.22891e-06
1.21516e-08
5.17838e-06
1.30823e-08
5.13154e-06
1.40493e-08
5.08795e-06
1.50358e-08
5.04721e-06
1.6033e-08
5.00897e-06
1.70282e-08
4.97294e-06
1.80166e-08
4.9389e-06
1.89973e-08
4.90665e-06
1.99663e-08
4.87603e-06
2.09273e-08
4.8469e-06
2.18782e-08
4.81914e-06
2.28185e-08
4.79264e-06
2.37488e-08
4.76729e-06
2.46703e-08
4.74301e-06
2.55795e-08
4.71972e-06
2.64792e-08
4.69735e-06
2.73675e-08
4.67582e-06
2.82454e-08
4.65507e-06
2.91118e-08
4.63507e-06
2.9967e-08
4.61575e-06
3.08117e-08
4.59709e-06
3.16466e-08
4.57903e-06
3.24727e-08
4.56154e-06
3.32896e-08
4.5446e-06
3.40978e-08
4.52818e-06
3.48989e-08
4.51225e-06
3.56935e-08
4.49679e-06
3.64826e-08
4.48179e-06
3.72663e-08
4.46722e-06
3.80457e-08
4.45306e-06
3.88222e-08
4.43931e-06
3.95948e-08
4.42594e-06
4.03639e-08
4.41293e-06
4.11307e-08
4.40028e-06
4.18933e-08
4.38797e-06
4.26525e-08
4.37599e-06
4.34095e-08
4.36433e-06
4.41673e-08
4.35299e-06
4.49288e-08
4.34199e-06
4.57021e-08
4.33135e-06
4.64968e-08
4.32109e-06
4.73263e-08
4.31126e-06
4.82027e-08
4.30188e-06
4.91384e-08
4.293e-06
5.01383e-08
4.28467e-06
5.11983e-08
4.27695e-06
5.2305e-08
4.26988e-06
5.34356e-08
4.2634e-06
5.45787e-08
4.25725e-06
5.57293e-08
4.25125e-06
5.68841e-08
4.24537e-06
5.80407e-08
4.2396e-06
5.91972e-08
4.23392e-06
6.03522e-08
4.22832e-06
6.15042e-08
4.22277e-06
6.26531e-08
4.21727e-06
6.3798e-08
4.2118e-06
6.49397e-08
4.20634e-06
6.6076e-08
4.20087e-06
6.72087e-08
4.19538e-06
6.83352e-08
4.18985e-06
6.94562e-08
4.18427e-06
7.05714e-08
4.17862e-06
7.16792e-08
4.17287e-06
7.27792e-08
4.16701e-06
7.387e-08
4.16102e-06
7.49507e-08
4.15487e-06
7.60202e-08
4.14856e-06
7.70769e-08
4.14205e-06
7.81193e-08
4.13533e-06
7.91453e-08
4.12836e-06
8.01536e-08
4.12114e-06
8.11399e-08
4.11362e-06
8.21031e-08
4.1058e-06
8.30383e-08
4.09764e-06
8.39435e-08
4.08912e-06
4.08025e-06
1.4205e-10
8.89671e-06
4.92296e-10
7.46938e-06
9.26923e-10
6.89706e-06
1.45141e-09
6.53284e-06
2.06337e-09
6.26952e-06
2.75284e-09
6.06749e-06
3.50794e-09
5.90598e-06
4.32237e-09
5.77294e-06
5.17785e-09
5.6609e-06
6.07086e-09
5.56486e-06
6.98894e-09
5.48138e-06
7.92247e-09
5.40796e-06
8.83933e-09
5.34237e-06
9.72218e-09
5.28277e-06
1.0588e-08
5.22804e-06
1.14647e-08
5.1775e-06
1.23708e-08
5.13064e-06
1.33085e-08
5.08702e-06
1.42732e-08
5.04625e-06
1.52498e-08
5.00799e-06
1.62314e-08
4.97196e-06
1.72093e-08
4.93792e-06
1.81796e-08
4.90567e-06
1.91451e-08
4.87506e-06
2.01011e-08
4.84594e-06
2.10495e-08
4.81819e-06
2.19898e-08
4.79169e-06
2.29224e-08
4.76636e-06
2.38463e-08
4.74209e-06
2.47626e-08
4.71881e-06
2.56686e-08
4.69644e-06
2.65639e-08
4.67492e-06
2.74502e-08
4.65419e-06
2.83265e-08
4.63419e-06
2.91931e-08
4.61489e-06
3.00499e-08
4.59623e-06
3.08968e-08
4.57818e-06
3.17348e-08
4.5607e-06
3.25631e-08
4.54377e-06
3.33848e-08
4.52736e-06
3.41994e-08
4.51144e-06
3.50054e-08
4.49599e-06
3.58057e-08
4.48099e-06
3.66015e-08
4.46642e-06
3.73924e-08
4.45227e-06
3.81787e-08
4.43852e-06
3.89617e-08
4.42515e-06
3.9741e-08
4.41215e-06
4.05162e-08
4.39951e-06
4.12874e-08
4.3872e-06
4.20549e-08
4.37522e-06
4.28187e-08
4.36356e-06
4.35816e-08
4.35223e-06
4.4348e-08
4.34122e-06
4.51242e-08
4.33057e-06
4.59209e-08
4.3203e-06
4.67491e-08
4.31043e-06
4.76227e-08
4.30101e-06
4.85527e-08
4.29207e-06
4.95455e-08
4.28368e-06
5.05966e-08
4.2759e-06
5.16918e-08
4.26879e-06
5.28123e-08
4.26228e-06
5.39472e-08
4.25612e-06
5.50914e-08
4.2501e-06
5.6241e-08
4.24422e-06
5.73941e-08
4.23844e-06
5.85474e-08
4.23277e-06
5.96997e-08
4.22716e-06
6.08492e-08
4.22162e-06
6.19957e-08
4.21613e-06
6.31386e-08
4.21066e-06
6.42765e-08
4.2052e-06
6.54101e-08
4.19974e-06
6.6538e-08
4.19425e-06
6.76604e-08
4.18873e-06
6.87773e-08
4.18315e-06
6.98863e-08
4.1775e-06
7.09885e-08
4.17176e-06
7.20822e-08
4.16591e-06
7.31669e-08
4.15993e-06
7.4241e-08
4.1538e-06
7.53041e-08
4.14749e-06
7.63541e-08
4.141e-06
7.739e-08
4.13429e-06
7.84101e-08
4.12734e-06
7.94122e-08
4.12013e-06
8.0394e-08
4.11264e-06
8.1352e-08
4.10484e-06
8.22821e-08
4.09671e-06
8.31804e-08
4.08822e-06
4.07938e-06
9.29047e-11
8.89662e-06
3.98775e-10
7.46908e-06
7.94709e-10
6.89667e-06
1.27383e-09
6.53236e-06
1.83829e-09
6.26895e-06
2.47904e-09
6.06685e-06
3.19157e-09
5.90526e-06
3.95724e-09
5.77218e-06
4.77127e-09
5.66009e-06
5.62147e-09
5.56401e-06
6.49707e-09
5.4805e-06
7.39053e-09
5.40707e-06
8.27845e-09
5.34148e-06
9.14553e-09
5.2819e-06
9.99769e-09
5.22719e-06
1.08536e-08
5.17664e-06
1.17352e-08
5.12976e-06
1.26487e-08
5.0861e-06
1.35892e-08
5.04531e-06
1.45475e-08
5.00703e-06
1.55112e-08
4.97099e-06
1.64764e-08
4.93695e-06
1.7436e-08
4.90471e-06
1.83908e-08
4.87411e-06
1.93382e-08
4.84499e-06
2.02796e-08
4.81725e-06
2.12149e-08
4.79076e-06
2.21449e-08
4.76543e-06
2.30664e-08
4.74117e-06
2.39808e-08
4.71789e-06
2.48859e-08
4.69553e-06
2.57838e-08
4.67402e-06
2.66724e-08
4.6533e-06
2.75519e-08
4.63331e-06
2.84219e-08
4.61402e-06
2.92835e-08
4.59537e-06
3.0136e-08
4.57733e-06
3.09791e-08
4.55986e-06
3.1815e-08
4.54294e-06
3.26423e-08
4.52653e-06
3.34614e-08
4.51062e-06
3.42757e-08
4.49517e-06
3.50823e-08
4.48018e-06
3.58828e-08
4.46562e-06
3.66806e-08
4.45147e-06
3.74722e-08
4.43773e-06
3.8261e-08
4.42436e-06
3.90451e-08
4.41137e-06
3.98246e-08
4.39873e-06
4.06e-08
4.38643e-06
4.1371e-08
4.37445e-06
4.21394e-08
4.3628e-06
4.29043e-08
4.35146e-06
4.36716e-08
4.34046e-06
4.44487e-08
4.32979e-06
4.52429e-08
4.3195e-06
4.60678e-08
4.30961e-06
4.69357e-08
4.30014e-06
4.7858e-08
4.29115e-06
4.88407e-08
4.2827e-06
4.98801e-08
4.27486e-06
5.09624e-08
4.2677e-06
5.20709e-08
4.26117e-06
5.31951e-08
4.25499e-06
5.43302e-08
4.24897e-06
5.54732e-08
4.24307e-06
5.6619e-08
4.2373e-06
5.77675e-08
4.23162e-06
5.89148e-08
4.22602e-06
6.00609e-08
4.22048e-06
6.12032e-08
4.21498e-06
6.23415e-08
4.20952e-06
6.34757e-08
4.20406e-06
6.46043e-08
4.19861e-06
6.57275e-08
4.19313e-06
6.68446e-08
4.18761e-06
6.7955e-08
4.18204e-06
6.90586e-08
4.1764e-06
7.01539e-08
4.17067e-06
7.12405e-08
4.16482e-06
7.23177e-08
4.15885e-06
7.33848e-08
4.15273e-06
7.44404e-08
4.14644e-06
7.54835e-08
4.13995e-06
7.6513e-08
4.13326e-06
7.75272e-08
4.12632e-06
7.85248e-08
4.11913e-06
7.9503e-08
4.11166e-06
8.04578e-08
4.10388e-06
8.1384e-08
4.09578e-06
8.22771e-08
4.08733e-06
4.07852e-06
5.03597e-11
8.89657e-06
3.17454e-10
7.46881e-06
6.72196e-10
6.89631e-06
1.11012e-09
6.53192e-06
1.63446e-09
6.26843e-06
2.2378e-09
6.06625e-06
2.90522e-09
5.9046e-06
3.63072e-09
5.77145e-06
4.40484e-09
5.65931e-06
5.21654e-09
5.5632e-06
6.0546e-09
5.47966e-06
6.91032e-09
5.40621e-06
7.77102e-09
5.34062e-06
8.61727e-09
5.28105e-06
9.45347e-09
5.22635e-06
1.02936e-08
5.1758e-06
1.11555e-08
5.12889e-06
1.20453e-08
5.08521e-06
1.2963e-08
5.04439e-06
1.38991e-08
5.00609e-06
1.48468e-08
4.97005e-06
1.57963e-08
4.936e-06
1.67433e-08
4.90377e-06
1.76853e-08
4.87316e-06
1.86222e-08
4.84405e-06
1.95537e-08
4.81631e-06
2.04808e-08
4.78983e-06
2.14015e-08
4.76451e-06
2.23166e-08
4.74025e-06
2.32243e-08
4.71698e-06
2.41268e-08
4.69463e-06
2.50202e-08
4.67313e-06
2.59059e-08
4.65241e-06
2.67832e-08
4.63244e-06
2.76531e-08
4.61315e-06
2.85124e-08
4.59451e-06
2.93644e-08
4.57647e-06
3.0208e-08
4.55902e-06
3.10432e-08
4.5421e-06
3.18715e-08
4.5257e-06
3.26922e-08
4.5098e-06
3.35061e-08
4.49436e-06
3.4314e-08
4.47937e-06
3.51169e-08
4.46481e-06
3.59131e-08
4.45067e-06
3.67075e-08
4.43693e-06
3.74959e-08
4.42357e-06
3.82802e-08
4.41058e-06
3.90605e-08
4.39795e-06
3.98362e-08
4.38565e-06
4.06069e-08
4.37368e-06
4.13732e-08
4.36203e-06
4.21377e-08
4.3507e-06
4.29037e-08
4.33969e-06
4.36764e-08
4.32902e-06
4.44664e-08
4.31871e-06
4.52844e-08
4.30879e-06
4.61433e-08
4.29928e-06
4.70556e-08
4.29024e-06
4.80262e-08
4.28173e-06
4.90509e-08
4.27384e-06
5.01178e-08
4.26664e-06
5.12112e-08
4.26007e-06
5.23211e-08
4.25388e-06
5.34442e-08
4.24784e-06
5.45763e-08
4.24194e-06
5.57147e-08
4.23616e-06
5.68548e-08
4.23048e-06
5.79959e-08
4.22487e-06
5.9135e-08
4.21934e-06
6.0272e-08
4.21384e-06
6.14046e-08
4.20838e-06
6.25325e-08
4.20293e-06
6.36552e-08
4.19748e-06
6.4772e-08
4.19201e-06
6.58829e-08
4.1865e-06
6.69861e-08
4.18094e-06
6.80819e-08
4.1753e-06
6.91695e-08
4.16958e-06
7.02482e-08
4.16374e-06
7.13173e-08
4.15778e-06
7.23763e-08
4.15167e-06
7.34236e-08
4.14539e-06
7.44591e-08
4.13892e-06
7.54814e-08
4.13223e-06
7.64903e-08