/*--------------------------------*- C++ -*----------------------------------*\
  =========                 |
  \\      /  F ield         | OpenFOAM: The Open Source CFD Toolbox
   \\    /   O peration     | Website:  https://openfoam.org
    \\  /    A nd           | Version:  10
     \\/     M anipulation  |
\*---------------------------------------------------------------------------*/
FoamFile
{
    format      ascii;
    class       volVectorField;
    location    "4000";
    object      U;
}
// * * * * * * * * * * * * * * * * * * * * * * * * * * * * * * * * * * * * * //

dimensions      [0 1 -1 0 0 0 0];

internalField   nonuniform List<vector> 
17808
(
(-3.20582 3.52105 -2.37729e-17)
(-3.6398 3.97318 -2.65304e-18)
(-3.81779 4.17668 1.69775e-17)
(-3.94219 4.30908 1.77579e-17)
(-4.0353 4.41091 -4.09646e-18)
(-4.11029 4.49268 -2.82887e-17)
(-4.1729 4.56103 1.40371e-17)
(-4.22662 4.61972 -1.47727e-17)
(-4.27364 4.67114 2.47767e-17)
(-4.31549 4.71693 -1.33258e-20)
(-4.35323 4.75824 -1.1233e-17)
(-4.38762 4.79588 8.06838e-18)
(-4.41924 4.83047 -1.16727e-17)
(-4.44851 4.8625 1.25323e-18)
(-4.47579 4.89233 0)
(-4.50133 4.92024 1.18269e-18)
(-4.52533 4.94647 -2.30666e-18)
(-4.54795 4.97119 -2.25383e-18)
(-4.56931 4.99453 -9.91936e-18)
(-4.58953 5.0166 1.37672e-20)
(-4.60867 5.03751 8.49165e-18)
(-4.62681 5.05732 0)
(-4.64402 5.0761 8.18659e-18)
(-4.66035 5.09392 -8.07011e-18)
(-4.67585 5.11083 7.9336e-18)
(-4.69056 5.12688 -9.79088e-18)
(-4.70452 5.1421 -1.93e-18)
(-4.71778 5.15655 0)
(-4.73036 5.17025 -1.88148e-18)
(-4.74229 5.18324 -1.85927e-18)
(-4.7536 5.19555 7.3454e-18)
(-4.76431 5.2072 -5.46334e-18)
(-4.77445 5.21823 0)
(-4.78403 5.22864 0)
(-4.79308 5.23846 1.76431e-18)
(-4.8016 5.2477 8.73042e-18)
(-4.80962 5.25639 -5.20419e-18)
(-4.81714 5.26454 0)
(-4.82419 5.27216 -6.79746e-18)
(-4.83076 5.27927 1.80482e-20)
(-4.83688 5.28587 1.00471e-17)
(-4.84255 5.29198 9.94567e-18)
(-4.84778 5.2976 -6.592e-18)
(-4.85258 5.30275 3.26464e-18)
(-4.85695 5.30744 0)
(-4.86091 5.31167 -3.21283e-18)
(-4.86447 5.31544 9.55276e-18)
(-4.86762 5.31878 -1.26612e-17)
(-4.87037 5.32168 3.13824e-18)
(-4.87274 5.32415 0)
(-4.87472 5.3262 0)
(-4.87631 5.32783 9.18052e-18)
(-4.87753 5.32904 -3.04836e-18)
(-4.87836 5.32982 0)
(-4.87882 5.33019 2.97903e-18)
(-4.87888 5.33012 2.94679e-18)
(-4.87857 5.32963 -2.91257e-18)
(-4.87786 5.3287 -2.87684e-18)
(-4.87678 5.32735 -2.84035e-18)
(-4.87532 5.32556 5.59573e-18)
(-4.87349 5.32336 -1.202e-20)
(-4.87129 5.32075 5.45943e-18)
(-4.86875 5.31776 -5.42977e-18)
(-4.86587 5.31439 -5.36881e-18)
(-4.86265 5.31066 -1.06282e-17)
(-4.85911 5.30657 5.27142e-18)
(-4.85523 5.30212 -1.04567e-17)
(-4.85103 5.2973 1.03428e-17)
(-4.8465 5.29212 0)
(-4.84163 5.28659 5.06798e-18)
(-4.83644 5.28069 1.00157e-17)
(-4.83093 5.27443 -4.98839e-18)
(-4.82508 5.26781 -4.9194e-18)
(-4.81891 5.26084 4.84898e-18)
(-4.81241 5.2535 -1.43745e-20)
(-4.80558 5.2458 -1.41982e-17)
(-4.79842 5.23774 9.36052e-18)
(-4.79093 5.22931 0)
(-4.78311 5.22052 -4.56467e-18)
(-4.77495 5.21137 -1.34742e-17)
(-4.76647 5.20185 0)
(-4.75764 5.19196 0)
(-4.74848 5.1817 8.57968e-18)
(-4.73898 5.17107 0)
(-4.72913 5.16007 8.30782e-18)
(-4.71895 5.14869 0)
(-4.70841 5.13694 -1.53524e-22)
(-4.69753 5.1248 0)
(-4.6863 5.11228 0)
(-4.67472 5.09937 7.60243e-18)
(-4.66278 5.08607 1.49171e-17)
(-4.65047 5.07238 1.4628e-17)
(-3.19814 3.53383 -2.6422e-18)
(-3.62996 3.98616 2.65425e-18)
(-3.808 4.18843 0)
(-3.93135 4.32111 0)
(-4.024 4.42277 4.04224e-18)
(-4.0987 4.50435 -1.86434e-18)
(-4.16113 4.57254 1.38469e-17)
(-4.21473 4.6311 -1.13442e-17)
(-4.26167 4.68241 -1.52502e-18)
(-4.30345 4.72811 1.15592e-17)
(-4.34115 4.76935 -1.24235e-17)
(-4.37552 4.80698 2.64704e-18)
(-4.40712 4.84159 1.27493e-18)
(-4.43639 4.87364 -1.23272e-18)
(-4.46365 4.90349 0)
(-4.48917 4.93142 -1.16344e-18)
(-4.51314 4.95767 1.13463e-18)
(-4.53574 4.98241 1.10875e-18)
(-4.55708 5.00577 0)
(-4.57726 5.02787 0)
(-4.59638 5.0488 0)
(-4.6145 5.06863 -2.05112e-18)
(-4.63168 5.08744 0)
(-4.64799 5.10529 -1.98519e-18)
(-4.66346 5.12222 0)
(-4.67815 5.13829 1.92786e-18)
(-4.69209 5.15354 1.90201e-18)
(-4.70532 5.16802 0)
(-4.71788 5.18174 -7.4125e-18)
(-4.72979 5.19476 1.84894e-18)
(-4.74108 5.20709 5.44801e-18)
(-4.75178 5.21877 -1.79431e-18)
(-4.7619 5.22981 7.0967e-18)
(-4.77146 5.24024 -1.58302e-17)
(-4.78049 5.25008 5.23551e-18)
(-4.78899 5.25935 -1.72663e-18)
(-4.79699 5.26805 -3.42295e-18)
(-4.8045 5.27622 0)
(-4.81153 5.28386 0)
(-4.8181 5.29098 8.336e-18)
(-4.8242 5.29759 -6.63157e-18)
(-4.82986 5.30372 -4.0249e-23)
(-4.83508 5.30935 -3.25964e-18)
(-4.83986 5.31451 -6.46913e-18)
(-4.84423 5.31921 -3.20031e-18)
(-4.84818 5.32345 9.56734e-18)
(-4.85172 5.32723 -6.31426e-18)
(-4.85487 5.33058 9.42661e-18)
(-4.85762 5.33349 -9.33708e-18)
(-4.85997 5.33596 6.1963e-18)
(-4.86195 5.33802 -6.12905e-18)
(-4.86354 5.33965 6.1032e-18)
(-4.86475 5.34086 -3.0215e-18)
(-4.86559 5.34165 0)
(-4.86604 5.34202 -2.96701e-18)
(-4.86611 5.34196 0)
(-4.86579 5.34147 0)
(-4.8651 5.34056 2.87078e-18)
(-4.86402 5.33921 1.18332e-20)
(-4.86256 5.33743 5.6139e-18)
(-4.86074 5.33523 -5.53311e-18)
(-4.85855 5.33262 5.46957e-18)
(-4.85601 5.32962 0)
(-4.85313 5.32625 0)
(-4.84992 5.32251 1.06381e-17)
(-4.84638 5.31841 -5.27954e-18)
(-4.84251 5.31394 1.04789e-17)
(-4.83831 5.30912 -1.33283e-20)
(-4.83379 5.30393 -5.15051e-18)
(-4.82894 5.29838 0)
(-4.82376 5.29247 -1.00611e-17)
(-4.81825 5.2862 1.99441e-17)
(-4.81241 5.27957 -2.83444e-20)
(-4.80625 5.27258 -2.86905e-20)
(-4.79977 5.26523 -1.44673e-20)
(-4.79295 5.25751 4.75401e-18)
(-4.7858 5.24943 -9.43737e-18)
(-4.77833 5.24099 4.65258e-18)
(-4.77052 5.23219 9.17032e-18)
(-4.76238 5.22301 -4.5469e-18)
(-4.75391 5.21347 4.45378e-18)
(-4.7451 5.20357 -1.32327e-17)
(-4.73596 5.19329 1.30075e-17)
(-4.72648 5.18263 -3.17616e-20)
(-4.71665 5.17161 -8.4175e-18)
(-4.70649 5.16021 4.15728e-18)
(-4.69598 5.14842 -1.62908e-17)
(-4.68512 5.13626 0)
(-4.67391 5.12371 0)
(-4.66235 5.11078 -1.54531e-17)
(-4.65044 5.09745 -1.13607e-17)
(-4.63816 5.08374 -7.40889e-18)
(-3.1896 3.54384 5.27329e-18)
(-3.62141 3.99618 4.22188e-17)
(-3.79898 4.19889 -7.64953e-17)
(-3.92151 4.33218 3.48988e-17)
(-4.01372 4.43395 -1.99709e-18)
(-4.088 4.51561 0)
(-4.15007 4.58386 0)
(-4.20338 4.64247 0)
(-4.25011 4.69382 -2.25025e-17)
(-4.29172 4.73953 2.27487e-17)
(-4.32924 4.78076 1.3541e-18)
(-4.36347 4.81839 2.62445e-23)
(-4.39498 4.85303 2.00071e-17)
(-4.42417 4.88512 -3.99293e-17)
(-4.45136 4.91501 1.87943e-17)
(-4.47682 4.94298 1.71175e-17)
(-4.50074 4.96925 -1.67199e-17)
(-4.52328 4.99401 0)
(-4.54457 5.0174 0)
(-4.56471 5.03952 0)
(-4.58378 5.06047 0)
(-4.60186 5.08032 4.02967e-18)
(-4.61901 5.09916 0)
(-4.63528 5.11702 1.95079e-18)
(-4.65072 5.13398 0)
(-4.66538 5.15007 -1.89517e-18)
(-4.67929 5.16534 0)
(-4.6925 5.17984 7.37919e-18)
(-4.70503 5.19358 -7.30598e-18)
(-4.71691 5.20662 1.80397e-18)
(-4.72818 5.21897 -1.7845e-18)
(-4.73885 5.23067 8.82277e-18)
(-4.74895 5.24173 -1.57544e-20)
(-4.75849 5.25218 -5.20426e-18)
(-4.7675 5.26204 5.14075e-18)
(-4.77598 5.27132 -5.11178e-18)
(-4.78397 5.28004 1.6867e-18)
(-4.79146 5.28822 0)
(-4.79847 5.29588 0)
(-4.80502 5.30301 -9.86852e-18)
(-4.81111 5.30964 1.78992e-20)
(-4.81676 5.31577 1.81565e-20)
(-4.82196 5.32142 9.66358e-18)
(-4.82674 5.3266 -6.37939e-18)
(-4.83109 5.3313 3.1807e-18)
(-4.83503 5.33555 0)
(-4.83857 5.33934 0)
(-4.8417 5.3427 0)
(-4.84444 5.34561 1.02168e-20)
(-4.8468 5.34809 3.07118e-18)
(-4.84877 5.35015 0)
(-4.85035 5.35179 3.01691e-18)
(-4.85156 5.35301 -5.97658e-18)
(-4.85239 5.3538 8.91826e-18)
(-4.85284 5.35417 5.87403e-18)
(-4.85291 5.35412 -5.83964e-18)
(-4.8526 5.35364 -5.7561e-18)
(-4.85191 5.35272 2.86347e-18)
(-4.85084 5.35138 -2.81877e-18)
(-4.84939 5.34961 2.78503e-18)
(-4.84758 5.34741 5.50334e-18)
(-4.84539 5.3448 -5.44106e-18)
(-4.84286 5.3418 0)
(-4.83998 5.33842 0)
(-4.83678 5.33467 -7.81713e-23)
(-4.83324 5.33056 -1.05064e-17)
(-4.82938 5.32609 5.22866e-18)
(-4.82519 5.32125 -5.15756e-18)
(-4.82067 5.31606 1.53753e-17)
(-4.81583 5.3105 -1.36496e-20)
(-4.81066 5.30457 5.03064e-18)
(-4.80516 5.29829 -4.98187e-18)
(-4.79934 5.29165 0)
(-4.79319 5.28464 0)
(-4.78672 5.27727 0)
(-4.77991 5.26954 4.7596e-18)
(-4.77278 5.26145 -4.73402e-18)
(-4.76532 5.25299 -4.6629e-18)
(-4.75753 5.24416 0)
(-4.74941 5.23497 0)
(-4.74096 5.22541 -1.34422e-17)
(-4.73217 5.21548 2.2138e-17)
(-4.72305 5.20518 -1.74753e-22)
(-4.71359 5.19451 0)
(-4.70378 5.18346 -4.21703e-18)
(-4.69364 5.17203 3.2471e-20)
(-4.68315 5.16022 4.11703e-18)
(-4.67232 5.14804 -8.06568e-18)
(-4.66114 5.13546 -7.92901e-18)
(-4.6496 5.1225 1.16701e-17)
(-4.63771 5.10915 -3.36436e-20)
(-4.62546 5.0954 3.73911e-18)
(-3.18 3.55278 3.68383e-17)
(-3.61175 4.00533 3.93576e-17)
(-3.78862 4.20902 -4.02982e-17)
(-3.91076 4.34275 2.15663e-18)
(-4.00274 4.44472 0)
(-4.07675 4.5266 0)
(-4.1386 4.59501 0)
(-4.19172 4.65375 2.51256e-17)
(-4.23828 4.70522 -4.72679e-17)
(-4.27975 4.75103 4.47087e-17)
(-4.31712 4.79231 -2.1291e-17)
(-4.35121 4.82997 1.91063e-17)
(-4.3826 4.86466 -1.9663e-17)
(-4.4117 4.89682 1.18773e-18)
(-4.43882 4.92677 1.95747e-17)
(-4.4642 4.95479 -1.68255e-17)
(-4.48805 4.98111 1.74762e-17)
(-4.51053 5.00591 -1.0939e-18)
(-4.53176 5.02933 -1.67445e-17)
(-4.55184 5.05148 -1.02523e-18)
(-4.57086 5.07246 0)
(-4.58888 5.09234 -3.95598e-18)
(-4.60598 5.1112 0)
(-4.62221 5.12909 0)
(-4.63761 5.14607 -1.69764e-17)
(-4.65223 5.16218 1.49083e-17)
(-4.66611 5.17748 0)
(-4.67928 5.19199 0)
(-4.69178 5.20576 0)
(-4.70364 5.21882 -3.54734e-18)
(-4.71487 5.23119 1.75493e-18)
(-4.72552 5.2429 0)
(-4.73559 5.25398 0)
(-4.74511 5.26445 0)
(-4.7541 5.27432 -1.01208e-17)
(-4.76256 5.28362 1.50915e-17)
(-4.77053 5.29236 0)
(-4.778 5.30056 0)
(-4.785 5.30823 0)
(-4.79153 5.31537 1.45871e-17)
(-4.7976 5.32202 -3.52992e-20)
(-4.80323 5.32816 -3.19796e-17)
(-4.80842 5.33382 2.22256e-17)
(-4.81319 5.33901 -9.47664e-18)
(-4.81753 5.34372 0)
(-4.82146 5.34798 3.10929e-18)
(-4.82499 5.35178 1.23334e-17)
(-4.82812 5.35514 -1.22901e-17)
(-4.83085 5.35806 -3.04721e-18)
(-4.83319 5.36055 1.51143e-17)
(-4.83516 5.36261 -6.04454e-18)
(-4.83674 5.36425 -5.99289e-18)
(-4.83794 5.36547 -5.93906e-18)
(-4.83877 5.36627 -1.09449e-20)
(-4.83922 5.36665 -8.76008e-18)
(-4.83929 5.3666 0)
(-4.83899 5.36612 2.84975e-18)
(-4.8383 5.36521 -5.67342e-18)
(-4.83724 5.36387 -8.38681e-18)
(-4.8358 5.36211 2.77896e-18)
(-4.83399 5.35992 5.46959e-18)
(-4.83181 5.35731 1.205e-20)
(-4.82928 5.3543 2.44774e-20)
(-4.82641 5.35091 5.32872e-18)
(-4.8232 5.34716 -5.27644e-18)
(-4.81968 5.34304 5.23579e-18)
(-4.81582 5.33856 0)
(-4.81164 5.33371 -5.13915e-18)
(-4.80713 5.3285 -5.08254e-18)
(-4.8023 5.32293 1.35352e-20)
(-4.79714 5.317 -1.00264e-17)
(-4.79165 5.3107 9.96149e-18)
(-4.78584 5.30404 0)
(-4.77971 5.29702 -1.43051e-20)
(-4.77325 5.28964 -9.66958e-18)
(-4.76646 5.28189 4.77616e-18)
(-4.75934 5.27378 4.72355e-18)
(-4.7519 5.2653 4.66942e-18)
(-4.74413 5.25646 0)
(-4.73603 5.24725 0)
(-4.72759 5.23767 8.99853e-18)
(-4.71882 5.22772 -1.77594e-17)
(-4.70972 5.21739 -8.75853e-18)
(-4.70028 5.2067 8.63471e-18)
(-4.6905 5.19562 1.2747e-17)
(-4.68038 5.18417 4.17399e-18)
(-4.66992 5.17234 8.25085e-18)
(-4.65911 5.16012 4.04305e-18)
(-4.64795 5.14752 7.95214e-18)
(-4.63645 5.13453 -3.94218e-18)
(-4.62458 5.12115 3.84036e-18)
(-4.61236 5.10737 -3.43135e-20)
(-3.17029 3.56184 4.46142e-17)
(-3.60164 4.01478 -4.1772e-17)
(-3.7777 4.21937 -3.52106e-17)
(-3.89953 4.35343 6.39772e-17)
(-3.99125 4.45566 -2.92242e-17)
(-4.06502 4.53774 3.04099e-17)
(-4.12667 4.60632 -5.30368e-17)
(-4.17963 4.6652 2.64009e-20)
(-4.22605 4.7168 2.32614e-17)
(-4.26738 4.76272 0)
(-4.30464 4.80408 0)
(-4.33859 4.84179 -1.25138e-18)
(-4.36987 4.87653 -1.20544e-18)
(-4.39888 4.90875 1.16586e-18)
(-4.42593 4.93877 5.98691e-24)
(-4.45124 4.96687 -1.10009e-18)
(-4.47502 4.99324 -2.14534e-18)
(-4.49743 5.01809 -1.77644e-24)
(-4.51859 5.04155 0)
(-4.5386 5.06374 1.006e-18)
(-4.55756 5.08475 1.57882e-17)
(-4.57554 5.10466 -1.36013e-17)
(-4.59258 5.12355 0)
(-4.60876 5.14147 1.69115e-17)
(-4.62412 5.15848 -1.29875e-17)
(-4.63869 5.17462 -1.46116e-17)
(-4.65253 5.18994 1.44511e-17)
(-4.66567 5.20448 1.7827e-18)
(-4.67813 5.21827 0)
(-4.68995 5.23135 1.74296e-18)
(-4.70116 5.24374 0)
(-4.71178 5.25547 0)
(-4.72182 5.26657 -1.35191e-17)
(-4.73131 5.27706 1.17515e-17)
(-4.74027 5.28695 -3.32423e-18)
(-4.74872 5.29626 -1.31706e-17)
(-4.75666 5.30502 1.14623e-17)
(-4.76411 5.31323 -1.62251e-18)
(-4.77109 5.32091 -1.28659e-17)
(-4.7776 5.32807 1.28059e-17)
(-4.78366 5.33473 -1.26803e-17)
(-4.78928 5.34089 1.57791e-17)
(-4.79445 5.34656 -1.25048e-17)
(-4.79921 5.35175 3.66001e-20)
(-4.80354 5.35648 2.16227e-17)
(-4.80746 5.36074 -1.53627e-17)
(-4.81097 5.36455 0)
(-4.81409 5.36792 1.20986e-17)
(-4.81681 5.37085 -1.20617e-17)
(-4.81915 5.37334 0)
(-4.82111 5.37541 -2.97248e-18)
(-4.82269 5.37705 5.90614e-18)
(-4.82389 5.37828 -1.171e-17)
(-4.82471 5.37908 2.6202e-17)
(-4.82516 5.37946 -8.68661e-18)
(-4.82524 5.37941 -2.86329e-18)
(-4.82493 5.37894 1.41602e-17)
(-4.82425 5.37804 5.57055e-18)
(-4.82319 5.3767 2.73201e-18)
(-4.82176 5.37494 -4.68762e-20)
(-4.81996 5.37275 -3.25927e-17)
(-4.81779 5.37014 -5.32458e-18)
(-4.81526 5.36713 4.86367e-20)
(-4.81239 5.36373 1.05917e-17)
(-4.8092 5.35997 -1.57136e-17)
(-4.80567 5.35585 -1.03656e-17)
(-4.80183 5.35135 3.88511e-20)
(-4.79765 5.3465 5.14323e-18)
(-4.79315 5.34128 -5.0763e-18)
(-4.78833 5.33569 1.01099e-17)
(-4.78318 5.32975 0)
(-4.77771 5.32344 -9.90996e-18)
(-4.77191 5.31676 4.93112e-18)
(-4.76579 5.30973 1.43653e-20)
(-4.75934 5.30233 9.66108e-18)
(-4.75257 5.29456 -4.77442e-18)
(-4.74547 5.28644 0)
(-4.73805 5.27794 -9.34487e-18)
(-4.73029 5.26908 0)
(-4.72221 5.25985 -9.12969e-18)
(-4.71379 5.25024 0)
(-4.70505 5.24027 4.46769e-18)
(-4.69597 5.22993 4.40926e-18)
(-4.68655 5.2192 -1.29846e-17)
(-4.67679 5.20811 -4.2564e-18)
(-4.6667 5.19663 -1.26151e-17)
(-4.65626 5.18477 -4.13066e-18)
(-4.64548 5.17253 8.16643e-18)
(-4.63435 5.1599 -4.00134e-18)
(-4.62287 5.14688 7.93861e-18)
(-4.61104 5.13347 -3.86876e-18)
(-4.59884 5.11966 -1.14737e-17)
(-3.16046 3.57105 0)
(-3.59121 4.02458 0)
(-3.76653 4.22994 3.48819e-17)
(-3.88805 4.36433 -2.9444e-20)
(-3.97948 4.46683 -3.26848e-17)
(-4.053 4.54913 2.64457e-17)
(-4.11445 4.61787 -2.44938e-17)
(-4.16723 4.67689 0)
(-4.2135 4.72862 -1.42885e-18)
(-4.25469 4.77465 -2.29403e-17)
(-4.29182 4.81612 2.05488e-17)
(-4.32565 4.85389 2.45641e-18)
(-4.3568 4.88867 1.18271e-18)
(-4.38571 4.92096 -2.05794e-17)
(-4.41267 4.95105 1.66596e-17)
(-4.43791 4.97922 1.07946e-18)
(-4.46162 5.00566 1.05244e-18)
(-4.48395 5.03056 1.8497e-17)
(-4.50504 5.05407 -2.49737e-20)
(-4.52499 5.0763 -3.15795e-17)
(-4.54389 5.09735 1.5514e-17)
(-4.5618 5.1173 0)
(-4.57879 5.13622 -1.49773e-17)
(-4.59492 5.15418 2.63298e-20)
(-4.61022 5.17121 1.45651e-17)
(-4.62475 5.18738 1.79445e-18)
(-4.63855 5.20273 1.41593e-17)
(-4.65164 5.2173 -3.15065e-17)
(-4.66407 5.23111 2.76882e-17)
(-4.67585 5.24421 -2.86032e-20)
(-4.68702 5.25663 -1.52654e-17)
(-4.69761 5.26838 0)
(-4.70762 5.2795 0)
(-4.71709 5.29001 1.64816e-18)
(-4.72602 5.29991 1.63433e-18)
(-4.73444 5.30925 -3.24233e-18)
(-4.74236 5.31802 1.24726e-23)
(-4.74979 5.32625 1.5966e-18)
(-4.75674 5.33394 0)
(-4.76324 5.34112 -1.41484e-17)
(-4.76928 5.34778 9.396e-18)
(-4.77487 5.35395 -1.24041e-17)
(-4.78004 5.35964 1.54429e-17)
(-4.78477 5.36484 1.22427e-17)
(-4.78909 5.36958 -1.22015e-17)
(-4.793 5.37385 0)
(-4.79651 5.37767 0)
(-4.79961 5.38104 0)
(-4.80233 5.38398 0)
(-4.80466 5.38648 -2.9545e-18)
(-4.80661 5.38855 -8.78992e-18)
(-4.80818 5.3902 8.77672e-18)
(-4.80938 5.39142 0)
(-4.8102 5.39223 -2.87985e-18)
(-4.81065 5.39261 -1.14117e-17)
(-4.81072 5.39257 1.41979e-17)
(-4.81042 5.3921 2.81016e-18)
(-4.80974 5.3912 -3.20896e-23)
(-4.80869 5.38987 2.75526e-18)
(-4.80727 5.38811 0)
(-4.80547 5.38593 5.39094e-18)
(-4.80331 5.38332 0)
(-4.80079 5.3803 0)
(-4.79792 5.3769 -1.57169e-17)
(-4.79473 5.37313 2.60624e-17)
(-4.79122 5.36899 -5.20243e-18)
(-4.78738 5.36449 5.1411e-18)
(-4.78321 5.35962 0)
(-4.77872 5.35439 5.06625e-18)
(-4.77391 5.34879 5.00041e-18)
(-4.76877 5.34283 -1.99498e-17)
(-4.76331 5.33651 9.9204e-18)
(-4.75753 5.32982 0)
(-4.75142 5.32277 0)
(-4.74499 5.31535 4.81521e-18)
(-4.73824 5.30757 0)
(-4.73115 5.29942 4.72098e-18)
(-4.72375 5.29091 -4.64157e-18)
(-4.71601 5.28203 9.27265e-18)
(-4.70795 5.27277 -4.55331e-18)
(-4.69955 5.26315 1.35616e-17)
(-4.69083 5.25316 0)
(-4.68177 5.24279 -4.38808e-18)
(-4.67238 5.23204 4.36255e-18)
(-4.66264 5.22092 0)
(-4.65257 5.20941 -4.24378e-18)
(-4.64216 5.19753 1.24819e-17)
(-4.63141 5.18526 0)
(-4.62031 5.1726 0)
(-4.60886 5.15955 -1.19131e-17)
(-4.59705 5.14611 1.95767e-17)
(-4.58489 5.13227 7.69286e-18)
(-3.15033 3.58031 0)
(-3.58036 4.03463 -2.57746e-18)
(-3.75498 4.24066 2.30405e-18)
(-3.87618 4.37541 2.08305e-18)
(-3.96732 4.47819 2.84249e-17)
(-4.04061 4.56071 -2.7822e-17)
(-4.10185 4.62963 2.18777e-23)
(-4.15445 4.68881 -2.39344e-17)
(-4.20057 4.74067 2.38897e-17)
(-4.24163 4.78682 -2.12129e-17)
(-4.27863 4.8284 4.0333e-17)
(-4.31233 4.86625 -1.22928e-18)
(-4.34335 4.90109 -2.39422e-20)
(-4.37215 4.93344 -1.79675e-17)
(-4.39902 4.96361 0)
(-4.42418 4.99185 0)
(-4.44781 5.01837 1.65064e-17)
(-4.47008 5.04333 -3.32843e-17)
(-4.4911 5.06689 1.5808e-17)
(-4.51098 5.08917 -1.54735e-17)
(-4.5298 5.11026 1.52157e-17)
(-4.54765 5.13026 0)
(-4.56459 5.14922 -1.46911e-17)
(-4.58065 5.1672 1.08745e-17)
(-4.59591 5.18427 1.42635e-17)
(-4.61039 5.20048 -1.58598e-17)
(-4.62414 5.21585 0)
(-4.63719 5.23045 1.71796e-18)
(-4.64957 5.24429 0)
(-4.66132 5.25742 0)
(-4.67245 5.26985 1.66402e-18)
(-4.683 5.28163 -1.31715e-17)
(-4.69298 5.29277 1.30821e-17)
(-4.70241 5.3033 -1.13211e-17)
(-4.71132 5.31322 1.28648e-17)
(-4.71971 5.32257 3.18727e-18)
(-4.7276 5.33136 -1.10559e-17)
(-4.73501 5.33961 2.35536e-17)
(-4.74194 5.34732 -1.24906e-17)
(-4.74841 5.3545 1.54876e-18)
(-4.75443 5.36119 6.15434e-18)
(-4.76001 5.36737 -1.22126e-17)
(-4.76516 5.37306 9.13233e-18)
(-4.76988 5.37828 0)
(-4.77419 5.38302 6.00289e-18)
(-4.77808 5.3873 0)
(-4.78157 5.39113 8.88013e-18)
(-4.78467 5.39451 -2.98743e-18)
(-4.78738 5.39745 -1.17498e-17)
(-4.7897 5.39996 2.91613e-18)
(-4.79164 5.40203 0)
(-4.7932 5.40368 0)
(-4.7944 5.40491 0)
(-4.79522 5.40572 2.84681e-18)
(-4.79566 5.40611 -1.12859e-17)
(-4.79574 5.40607 2.24425e-17)
(-4.79544 5.4056 -2.50384e-17)
(-4.79477 5.40471 -2.71215e-18)
(-4.79372 5.40338 5.48363e-18)
(-4.79231 5.40163 -1.07859e-17)
(-4.79052 5.39944 4.66702e-20)
(-4.78836 5.39683 1.06024e-17)
(-4.78584 5.39381 5.24189e-18)
(-4.78299 5.3904 5.20739e-18)
(-4.7798 5.38663 0)
(-4.7763 5.38248 1.54021e-17)
(-4.77246 5.37797 -5.1161e-20)
(-4.76831 5.37309 -1.01751e-17)
(-4.76383 5.36785 -5.03932e-18)
(-4.75903 5.36224 0)
(-4.7539 5.35626 0)
(-4.74845 5.34992 -4.92698e-18)
(-4.74268 5.34322 0)
(-4.73659 5.33615 -4.84601e-18)
(-4.73018 5.32872 -1.43818e-17)
(-4.72344 5.32092 4.81823e-18)
(-4.71637 5.31275 -4.65488e-18)
(-4.70898 5.30422 9.36504e-18)
(-4.70127 5.29532 -4.61913e-18)
(-4.69323 5.28604 9.13888e-18)
(-4.68485 5.2764 -9.03641e-18)
(-4.67615 5.26638 0)
(-4.66712 5.25598 0)
(-4.65775 5.24521 8.71178e-18)
(-4.64804 5.23406 0)
(-4.638 5.22253 8.48234e-18)
(-4.62761 5.21062 -1.67277e-17)
(-4.61689 5.19832 0)
(-4.60581 5.18563 8.12058e-18)
(-4.59439 5.17255 0)
(-4.58262 5.15907 -7.8703e-18)
(-4.57049 5.1452 0)
(-3.13989 3.58969 4.4308e-17)
(-3.56907 4.04493 4.608e-17)
(-3.74302 4.25158 -7.29973e-17)
(-3.86386 4.3867 2.87254e-20)
(-3.95472 4.48978 3.36704e-17)
(-4.02778 4.57252 -2.90893e-17)
(-4.08882 4.64163 -1.55489e-18)
(-4.14125 4.70097 2.35593e-17)
(-4.18721 4.75298 2.34513e-17)
(-4.22814 4.79926 -4.03923e-17)
(-4.26502 4.84095 1.26123e-18)
(-4.29859 4.87889 1.77501e-17)
(-4.32949 4.91379 0)
(-4.35818 4.94621 1.10067e-18)
(-4.38495 4.97646 1.06797e-18)
(-4.41003 5.00478 0)
(-4.43359 5.03137 1.61895e-17)
(-4.45577 5.0564 -2.38573e-20)
(-4.47672 5.08002 -1.45334e-17)
(-4.49653 5.10235 9.49062e-19)
(-4.51529 5.12349 0)
(-4.53307 5.14353 -1.28093e-17)
(-4.54994 5.16253 1.26294e-17)
(-4.56595 5.18056 1.05997e-24)
(-4.58115 5.19766 -1.39898e-17)
(-4.59558 5.2139 1.55572e-17)
(-4.60928 5.22931 0)
(-4.62228 5.24393 0)
(-4.63462 5.25781 -1.16552e-17)
(-4.64633 5.27096 2.7573e-20)
(-4.65742 5.28342 1.30812e-17)
(-4.66793 5.29523 0)
(-4.67788 5.30639 -1.28172e-17)
(-4.68728 5.31693 1.11484e-17)
(-4.69615 5.32688 -1.103e-17)
(-4.70451 5.33625 1.09761e-17)
(-4.71238 5.34506 -1.55445e-18)
(-4.71976 5.35332 -1.07893e-17)
(-4.72667 5.36104 1.22815e-17)
(-4.73312 5.36825 0)
(-4.73912 5.37494 1.20922e-17)
(-4.74468 5.38114 -1.20514e-17)
(-4.7498 5.38684 0)
(-4.75451 5.39207 0)
(-4.7588 5.39682 -1.47624e-17)
(-4.76268 5.40111 8.83634e-18)
(-4.76616 5.40495 1.45974e-17)
(-4.76924 5.40834 -2.03511e-17)
(-4.77194 5.41128 1.15862e-17)
(-4.77425 5.41379 0)
(-4.77619 5.41587 0)
(-4.77775 5.41753 1.42074e-17)
(-4.77893 5.41876 -1.13379e-17)
(-4.77975 5.41957 -2.81221e-18)
(-4.78019 5.41996 0)
(-4.78027 5.41992 -1.38477e-17)
(-4.77997 5.41946 4.38461e-20)
(-4.7793 5.41857 8.20915e-18)
(-4.77827 5.41725 1.62009e-17)
(-4.77686 5.4155 -1.34082e-17)
(-4.77508 5.41332 5.29785e-18)
(-4.77293 5.41071 0)
(-4.77042 5.40768 -6.07769e-23)
(-4.76757 5.40427 0)
(-4.76439 5.40048 5.13458e-18)
(-4.76089 5.39632 5.07931e-18)
(-4.75706 5.3918 -1.0172e-17)
(-4.75292 5.38691 5.04146e-18)
(-4.74845 5.38165 5.00871e-18)
(-4.74366 5.37603 4.97495e-18)
(-4.73855 5.37004 -9.85312e-18)
(-4.73311 5.36369 1.47398e-17)
(-4.72736 5.35697 0)
(-4.72128 5.34989 4.82822e-18)
(-4.71488 5.34243 -4.78816e-18)
(-4.70816 5.33462 -9.49357e-18)
(-4.70111 5.32643 -4.70388e-18)
(-4.69375 5.31788 0)
(-4.68605 5.30895 4.61373e-18)
(-4.67803 5.29965 0)
(-4.66968 5.28999 9.03484e-18)
(-4.661 5.27994 0)
(-4.65199 5.26952 0)
(-4.64264 5.25873 -8.69191e-18)
(-4.63297 5.24755 3.28609e-20)
(-4.62295 5.23599 8.50318e-18)
(-4.61259 5.22405 1.61062e-22)
(-4.6019 5.21172 -8.27244e-18)
(-4.59085 5.199 -8.15396e-18)
(-4.57946 5.18588 -1.60321e-17)
(-4.56772 5.17238 7.94577e-18)
(-4.55563 5.15847 0)
(-3.12915 3.59924 -4.41722e-17)
(-3.55736 4.05551 3.81744e-17)
(-3.73066 4.26274 0)
(-3.85112 4.39826 3.25011e-17)
(-3.9417 4.50162 -3.31968e-17)
(-4.01451 4.5846 -1.39298e-23)
(-4.07535 4.65391 2.33133e-17)
(-4.12761 4.71342 -2.48095e-20)
(-4.17342 4.76557 -2.44183e-17)
(-4.21421 4.81198 0)
(-4.25096 4.85379 -1.21445e-18)
(-4.28441 4.89182 -1.85495e-17)
(-4.31518 4.9268 1.78667e-17)
(-4.34376 4.95929 0)
(-4.37044 4.98961 -1.04725e-18)
(-4.39543 5.01801 -1.01864e-18)
(-4.41891 5.04468 0)
(-4.44102 5.06978 -1.45362e-17)
(-4.46189 5.09346 2.94231e-17)
(-4.48163 5.11585 -3.07037e-17)
(-4.50032 5.13704 2.9229e-17)
(-4.51804 5.15713 -1.81999e-18)
(-4.53484 5.17617 -1.23819e-17)
(-4.55079 5.19424 1.7407e-18)
(-4.56593 5.21139 0)
(-4.58031 5.22766 -1.69369e-18)
(-4.59396 5.24311 0)
(-4.60691 5.25776 1.48667e-17)
(-4.6192 5.27167 -1.47306e-17)
(-4.63086 5.28485 1.29341e-17)
(-4.64192 5.29734 -2.56445e-17)
(-4.65239 5.30917 1.43072e-17)
(-4.6623 5.32036 0)
(-4.67166 5.33092 1.24777e-17)
(-4.6805 5.34089 -2.78887e-17)
(-4.68883 5.35028 1.23181e-17)
(-4.69667 5.35911 7.71074e-24)
(-4.70402 5.36739 0)
(-4.71091 5.37513 -1.35456e-17)
(-4.71733 5.38235 3.20494e-20)
(-4.72331 5.38905 8.94606e-18)
(-4.72885 5.39526 0)
(-4.73396 5.40098 -1.17517e-17)
(-4.73864 5.40622 1.46458e-17)
(-4.74292 5.41098 0)
(-4.74678 5.41529 2.11747e-23)
(-4.75025 5.41913 -1.1498e-17)
(-4.75332 5.42252 2.00499e-17)
(-4.75601 5.42548 -1.42679e-17)
(-4.75831 5.42799 0)
(-4.76024 5.43008 2.82137e-18)
(-4.76179 5.43173 -2.80699e-18)
(-4.76297 5.43297 0)
(-4.76378 5.43378 -1.10845e-17)
(-4.76422 5.43417 1.10583e-17)
(-4.7643 5.43414 2.74095e-18)
(-4.764 5.43368 0)
(-4.76334 5.43279 5.39858e-18)
(-4.76231 5.43148 -2.67577e-18)
(-4.76091 5.42973 2.7398e-23)
(-4.75914 5.42755 5.22339e-18)
(-4.75699 5.42494 -1.04087e-17)
(-4.75449 5.42191 -5.14823e-18)
(-4.75164 5.41849 -5.11796e-18)
(-4.74848 5.41469 -5.0908e-18)
(-4.74498 5.41053 0)
(-4.74117 5.40599 5.03436e-18)
(-4.73703 5.40109 -5.00507e-18)
(-4.73257 5.39582 -9.94954e-18)
(-4.72779 5.39018 -4.94354e-18)
(-4.72269 5.38418 -9.79532e-18)
(-4.71727 5.37781 1.46602e-17)
(-4.71153 5.37108 -9.65783e-18)
(-4.70547 5.36397 4.83503e-18)
(-4.69909 5.3565 1.42791e-17)
(-4.69239 5.34867 -4.75944e-18)
(-4.68536 5.34046 4.68999e-18)
(-4.67801 5.33188 -9.26613e-18)
(-4.67034 5.32294 9.23972e-18)
(-4.66234 5.31362 0)
(-4.65401 5.30393 -1.8053e-17)
(-4.64536 5.29386 -8.93043e-18)
(-4.63637 5.28341 8.83149e-18)
(-4.62706 5.27259 -1.74594e-17)
(-4.6174 5.26139 8.62514e-18)
(-4.60742 5.2498 -1.70023e-17)
(-4.59709 5.23782 1.68493e-17)
(-4.58642 5.22546 1.586e-22)
(-4.57541 5.21271 8.14672e-18)
(-4.56406 5.19956 -3.45381e-20)
(-4.55235 5.18602 -7.94586e-18)
(-4.54029 5.17208 7.79036e-18)
(-3.11808 3.60899 -4.14791e-17)
(-3.54524 4.06636 -4.04068e-17)
(-3.7179 4.27417 2.70591e-20)
(-3.83795 4.41009 6.42052e-17)
(-3.92823 4.51375 -2.72691e-17)
(-4.0008 4.59697 2.81966e-17)
(-4.06144 4.66648 -2.2952e-17)
(-4.11352 4.72616 0)
(-4.15917 4.77846 1.33162e-18)
(-4.19982 4.82501 1.88269e-17)
(-4.23645 4.86693 -1.78864e-17)
(-4.26977 4.90507 2.27569e-18)
(-4.30042 4.94013 1.09418e-18)
(-4.32888 4.97268 -1.58594e-17)
(-4.35546 5.00308 1.74645e-17)
(-4.38036 5.03156 1.69654e-17)
(-4.40376 5.05831 -1.55861e-17)
(-4.42579 5.08348 1.52004e-17)
(-4.44659 5.10723 -1.4897e-17)
(-4.46626 5.12968 -9.11938e-19)
(-4.48488 5.15093 -1.4312e-17)
(-4.50252 5.17106 1.40918e-17)
(-4.51927 5.19015 1.73202e-18)
(-4.53515 5.20827 -1.70625e-18)
(-4.55024 5.22546 0)
(-4.56455 5.24177 -1.32709e-17)
(-4.57815 5.25725 1.31331e-17)
(-4.59105 5.27194 -1.62118e-18)
(-4.6033 5.28588 0)
(-4.61491 5.29909 1.42731e-17)
(-4.62592 5.31161 -1.41634e-17)
(-4.63635 5.32347 -1.55671e-17)
(-4.64622 5.33468 1.23728e-17)
(-4.65555 5.34527 -1.22455e-17)
(-4.66436 5.35526 1.37017e-17)
(-4.67266 5.36468 0)
(-4.68046 5.37352 1.49946e-18)
(-4.68778 5.38182 1.48961e-18)
(-4.69464 5.38957 -8.86598e-18)
(-4.70104 5.39681 2.35408e-17)
(-4.70699 5.40353 -2.95752e-18)
(-4.71251 5.40976 -2.03627e-17)
(-4.7176 5.41549 1.15888e-17)
(-4.72227 5.42074 5.7383e-18)
(-4.72653 5.42551 -1.1468e-17)
(-4.73038 5.42982 2.84818e-18)
(-4.73383 5.43368 1.13183e-17)
(-4.73689 5.43708 -5.65882e-18)
(-4.73956 5.44004 1.40158e-17)
(-4.74185 5.44256 -8.39998e-18)
(-4.74377 5.44465 -2.14708e-23)
(-4.74531 5.44631 0)
(-4.74649 5.44755 -1.09943e-17)
(-4.7473 5.44836 1.37158e-17)
(-4.74774 5.44875 0)
(-4.74781 5.44872 0)
(-4.74752 5.44827 1.07314e-17)
(-4.74686 5.44738 -5.37974e-18)
(-4.74583 5.44607 -1.32525e-17)
(-4.74444 5.44433 -7.84327e-18)
(-4.74268 5.44215 1.0406e-17)
(-4.74054 5.43954 -5.13969e-18)
(-4.73804 5.4365 5.07351e-18)
(-4.73521 5.43307 -5.09235e-18)
(-4.73204 5.42927 -1.00635e-17)
(-4.72856 5.42509 1.00613e-17)
(-4.72475 5.42055 -9.9845e-18)
(-4.72063 5.41563 0)
(-4.71618 5.41035 1.9724e-17)
(-4.71141 5.4047 -9.84364e-18)
(-4.70633 5.39868 -9.73075e-18)
(-4.70092 5.3923 4.8749e-18)
(-4.6952 5.38554 0)
(-4.68915 5.37842 4.78183e-18)
(-4.68279 5.37094 0)
(-4.67611 5.36308 4.71034e-18)
(-4.6691 5.35485 4.64303e-18)
(-4.66177 5.34625 -9.29599e-18)
(-4.65412 5.33729 0)
(-4.64614 5.32794 4.54955e-18)
(-4.63784 5.31823 1.80221e-17)
(-4.62921 5.30813 8.91996e-18)
(-4.62025 5.29766 -8.82574e-18)
(-4.61096 5.28681 1.49644e-22)
(-4.60134 5.27558 0)
(-4.59138 5.26396 -8.52553e-18)
(-4.58109 5.25195 -3.35297e-20)
(-4.57045 5.23956 -3.39163e-20)
(-4.55948 5.22677 0)
(-4.54815 5.21359 -8.08935e-18)
(-4.53648 5.20002 1.5915e-17)
(-4.52446 5.18603 -3.5509e-20)
(-3.10666 3.61894 -4.13629e-17)
(-3.53269 4.07748 -4.01224e-17)
(-3.70471 4.28586 7.07453e-17)
(-3.82433 4.4222 -3.17005e-17)
(-3.91431 4.52617 0)
(-3.98663 4.60963 0)
(-4.04706 4.67935 0)
(-4.09896 4.73921 2.23325e-17)
(-4.14445 4.79166 -2.093e-17)
(-4.18496 4.83834 1.23249e-18)
(-4.22145 4.88039 1.86927e-17)
(-4.25465 4.91863 -1.13811e-18)
(-4.28517 4.95378 -3.53964e-17)
(-4.31352 4.98641 1.55661e-17)
(-4.33999 5.01689 -2.01242e-18)
(-4.3648 5.04544 1.66279e-17)
(-4.38812 5.07227 9.31698e-19)
(-4.41007 5.09752 -1.58514e-17)
(-4.4308 5.12134 0)
(-4.45039 5.14385 1.60737e-17)
(-4.46893 5.16515 -1.40471e-17)
(-4.48651 5.18534 1.72458e-18)
(-4.50319 5.20448 -1.69722e-18)
(-4.51901 5.22264 1.67205e-18)
(-4.53403 5.23987 0)
(-4.5483 5.25623 1.30068e-17)
(-4.56184 5.27175 -1.28729e-17)
(-4.57469 5.28648 1.5892e-18)
(-4.58688 5.30045 1.57219e-18)
(-4.59845 5.31369 -3.11283e-18)
(-4.60942 5.32624 1.38625e-17)
(-4.61981 5.33813 -2.29213e-17)
(-4.62964 5.34937 1.21364e-17)
(-4.63893 5.35998 1.051e-17)
(-4.6477 5.37 -2.38758e-17)
(-4.65596 5.37943 1.18682e-17)
(-4.66373 5.3883 1.47181e-18)
(-4.67103 5.39661 -1.46244e-18)
(-4.67785 5.40439 1.16131e-17)
(-4.68423 5.41164 -1.01309e-17)
(-4.69016 5.41838 -5.73208e-18)
(-4.69565 5.42462 8.59118e-18)
(-4.70072 5.43037 -2.84342e-18)
(-4.70537 5.43563 1.12993e-17)
(-4.7096 5.44041 -1.1277e-17)
(-4.71344 5.44474 1.399e-17)
(-4.71688 5.4486 -3.52361e-20)
(-4.71992 5.45201 -2.81146e-18)
(-4.72258 5.45497 -1.10707e-17)
(-4.72486 5.4575 -2.75091e-18)
(-4.72677 5.45959 8.19738e-18)
(-4.72831 5.46126 -1.09257e-17)
(-4.72948 5.4625 -2.714e-18)
(-4.73028 5.46332 0)
(-4.73072 5.46371 -2.68649e-18)
(-4.73079 5.46368 -1.06633e-17)
(-4.7305 5.46323 1.32919e-17)
(-4.72984 5.46235 1.5792e-17)
(-4.72882 5.46104 -5.25178e-18)
(-4.72744 5.4593 0)
(-4.72568 5.45712 5.13405e-18)
(-4.72355 5.45451 1.52286e-17)
(-4.72106 5.45147 -1.01081e-17)
(-4.71823 5.44803 5.01652e-18)
(-4.71508 5.44422 -9.96406e-18)
(-4.7116 5.44004 4.86631e-20)
(-4.7078 5.43548 1.98129e-17)
(-4.70369 5.43055 0)
(-4.69925 5.42526 -5.73113e-23)
(-4.6945 5.41959 9.71502e-18)
(-4.68943 5.41356 -9.71278e-18)
(-4.68404 5.40716 0)
(-4.67833 5.40039 1.43263e-17)
(-4.67231 5.39325 -5.59214e-20)
(-4.66596 5.38574 -9.47025e-18)
(-4.6593 5.37786 4.65804e-18)
(-4.65231 5.36961 -4.6808e-18)
(-4.645 5.36099 0)
(-4.63738 5.352 0)
(-4.62942 5.34263 -6.89795e-23)
(-4.62115 5.33289 -1.3983e-22)
(-4.61254 5.32277 8.90231e-18)
(-4.60361 5.31227 -8.81287e-18)
(-4.59435 5.30139 3.24777e-20)
(-4.58476 5.29013 6.56454e-20)
(-4.57483 5.27848 2.56139e-17)
(-4.56457 5.26644 8.42604e-18)