/*--------------------------------*- C++ -*----------------------------------*\
  =========                 |
  \\      /  F ield         | OpenFOAM: The Open Source CFD Toolbox
   \\    /   O peration     | Website:  https://openfoam.org
    \\  /    A nd           | Version:  10
     \\/     M anipulation  |
\*---------------------------------------------------------------------------*/
FoamFile
{
    format      ascii;
    class       volScalarField;
    location    "4000";
    object      yPlus;
}
// * * * * * * * * * * * * * * * * * * * * * * * * * * * * * * * * * * * * * //

dimensions      [0 0 0 0 0 0 0];

internalField   uniform 0;

boundaryField
{
    right
    {
        type            cyclic;
    }
    left
    {
        type            cyclic;
    }
    outerWall
    {
        type            calculated;
        value           nonuniform List<scalar> 
200
(
24.8629
24.8657
24.8713
24.8757
24.8796
24.8832
24.8864
24.8892
24.8915
24.8936
24.8955
24.8971
24.8986
24.8999
24.9011
24.9022
24.9032
24.9041
24.9049
24.9057
24.9064
24.9071
24.9077
24.9082
24.9087
24.9092
24.9096
24.91
24.9103
24.9105
24.9108
24.9109
24.911
24.9111
24.9111
24.911
24.9109
24.9107
24.9104
24.91
24.9096
24.9091
24.9085
24.9079
24.9071
24.9063
24.9054
24.9044
24.9033
24.9021
24.9007
24.8993
24.8978
24.8962
24.8945
24.8926
24.8907
24.8887
24.8865
24.8842
24.8818
24.8793
24.8767
24.874
24.8711
24.8681
24.8651
24.8619
24.8586
24.8552
24.8517
24.848
24.8443
24.8404
24.8365
24.8323
24.8281
24.8228
24.8191
24.8157
24.8187
24.826
24.8357
24.844
24.8514
24.8583
24.8644
24.8699
24.8748
24.8792
24.8831
24.8866
24.8898
24.8926
24.8951
24.8974
24.8994
24.9011
24.9026
24.9039
24.905
24.9058
24.9065
24.9069
24.9072
24.9072
24.907
24.9066
24.906
24.9052
24.9042
24.9029
24.9013
24.8995
24.8973
24.8947
24.8916
24.8876
24.8823
24.8728
24.8134
24.8132
24.8108
24.8073
24.8047
24.8029
24.8015
24.8001
24.7993
24.7988
24.7982
24.7974
24.7966
24.7958
24.795
24.7943
24.7937
24.7931
24.7926
24.7921
24.7918
24.7914
24.7912
24.791
24.7908
24.7908
24.7908
24.7908
24.7909
24.7911
24.7913
24.7916
24.792
24.7924
24.7928
24.7933
24.7938
24.7944
24.795
24.7957
24.7964
24.7972
24.798
24.7988
24.7996
24.8005
24.8014
24.8024
24.8033
24.8043
24.8053
24.8063
24.8074
24.8085
24.8095
24.8106
24.8117
24.8129
24.814
24.8151
24.8162
24.8174
24.8185
24.8196
24.8207
24.8219
24.823
24.824
24.8251
24.8261
24.8271
24.828
24.8289
24.8297
24.8304
24.8308
24.831
24.8306
24.8292
24.8237
)
;
    }
    stirrerWall
    {
        type            calculated;
        value           nonuniform List<scalar> 0();
    }
    top
    {
        type            empty;
    }
    bottom
    {
        type            empty;
    }
    procBoundary2to3
    {
        type            processor;
        value           uniform 0;
    }
}


// ************************************************************************* //
