/*--------------------------------*- C++ -*----------------------------------*\
  =========                 |
  \\      /  F ield         | OpenFOAM: The Open Source CFD Toolbox
   \\    /   O peration     | Website:  https://openfoam.org
    \\  /    A nd           | Version:  10
     \\/     M anipulation  |
\*---------------------------------------------------------------------------*/
FoamFile
{
    format      ascii;
    class       volScalarField;
    location    "1800";
    object      k;
}
// * * * * * * * * * * * * * * * * * * * * * * * * * * * * * * * * * * * * * //

dimensions      [0 2 -2 0 0 0 0];

internalField   nonuniform List<scalar> 
420
(
2.22045e-16
2.22045e-16
2.22045e-16
2.22045e-16
2.22045e-16
2.22045e-16
2.22045e-16
2.27149e-16
2.22277e-16
2.22045e-16
2.22045e-16
2.22045e-16
2.22045e-16
2.22045e-16
2.22045e-16
2.22045e-16
2.22045e-16
2.22045e-16
2.22045e-16
2.22045e-16
2.22045e-16
2.22045e-16
2.22045e-16
2.22045e-16
2.22045e-16
2.22045e-16
2.22045e-16
2.22045e-16
2.22045e-16
2.22045e-16
2.22045e-16
2.22045e-16
2.22045e-16
2.22045e-16
2.22045e-16
2.22045e-16
2.22045e-16
2.22045e-16
2.22045e-16
2.22045e-16
2.22045e-16
2.22045e-16
2.22045e-16
2.22045e-16
2.22045e-16
2.22045e-16
2.22045e-16
2.22045e-16
2.22045e-16
2.22045e-16
2.22045e-16
2.22045e-16
2.22045e-16
2.22045e-16
2.22045e-16
2.22045e-16
2.22045e-16
2.22045e-16
2.22045e-16
2.22045e-16
2.22045e-16
2.22045e-16
2.22045e-16
2.22045e-16
2.22045e-16
2.22045e-16
2.22045e-16
2.22045e-16
2.22045e-16
2.22045e-16
2.22045e-16
2.22045e-16
2.22045e-16
2.22045e-16
2.22045e-16
2.22045e-16
2.22045e-16
2.22045e-16
2.22045e-16
2.22045e-16
2.22045e-16
2.22045e-16
2.22045e-16
2.22045e-16
2.22045e-16
2.22045e-16
2.22045e-16
2.22045e-16
2.22045e-16
2.22045e-16
2.22045e-16
2.22045e-16
2.22045e-16
2.22045e-16
2.22045e-16
2.22045e-16
2.22045e-16
2.22045e-16
2.22045e-16
2.22045e-16
2.22045e-16
2.22045e-16
2.39212e-16
2.61929e-16
2.69879e-16
2.53972e-16
2.22889e-16
2.22045e-16
2.56667e-16
4.60797e-16
2.22045e-16
2.22045e-16
2.30513e-16
2.57861e-16
2.66977e-16
2.52844e-16
2.23296e-16
2.22045e-16
2.60886e-16
4.72889e-16
2.22045e-16
2.22045e-16
2.22639e-16
2.55019e-16
2.65525e-16
2.52076e-16
2.24589e-16
2.22045e-16
2.68579e-16
4.83289e-16
2.22045e-16
2.22045e-16
2.22045e-16
2.52639e-16
2.64344e-16
2.5111e-16
2.25206e-16
2.22045e-16
2.75858e-16
4.93122e-16
2.22045e-16
2.22045e-16
2.22045e-16
2.50168e-16
2.62899e-16
2.50072e-16
2.26096e-16
2.22045e-16
2.83746e-16
5.04478e-16
2.22045e-16
2.22045e-16
2.22045e-16
2.47636e-16
2.61007e-16
2.48987e-16
2.27673e-16
2.23304e-16
2.91819e-16
5.1606e-16
2.22045e-16
2.22045e-16
2.22045e-16
2.46091e-16
2.5929e-16
2.47939e-16
2.29743e-16
2.27376e-16
2.99996e-16
5.26569e-16
2.22045e-16
2.22045e-16
2.22045e-16
2.45348e-16
2.57631e-16
2.46887e-16
2.31965e-16
2.31945e-16
3.07729e-16
5.35146e-16
2.22045e-16
2.22045e-16
2.22045e-16
2.45729e-16
2.56134e-16
2.46195e-16
2.34168e-16
2.36828e-16
3.15064e-16
5.41343e-16
2.22045e-16
2.22045e-16
2.22045e-16
2.47609e-16
2.54841e-16
2.45851e-16
2.36051e-16
2.41127e-16
3.22624e-16
5.44772e-16
2.22045e-16
2.22045e-16
2.22045e-16
2.52452e-16
2.55327e-16
2.47628e-16
2.39176e-16
2.42209e-16
3.26529e-16
5.44801e-16
2.22045e-16
2.22045e-16
2.23385e-16
2.5147e-16
2.53483e-16
2.48531e-16
2.43065e-16
2.37452e-16
3.24378e-16
5.4622e-16
2.22045e-16
2.22045e-16
2.31225e-16
2.46024e-16
2.48501e-16
2.46836e-16
2.45887e-16
2.33625e-16
3.23659e-16
5.4445e-16
2.22045e-16
2.22045e-16
2.34612e-16
2.40905e-16
2.44894e-16
2.46012e-16
2.47875e-16
2.31752e-16
3.21859e-16
5.32436e-16
2.22045e-16
2.25056e-16
2.33523e-16
2.38778e-16
2.45357e-16
2.48869e-16
2.5208e-16
2.27635e-16
3.13929e-16
5.14834e-16
2.22045e-16
2.24111e-16
2.31105e-16
2.37917e-16
2.47703e-16
2.5309e-16
2.56454e-16
2.23555e-16
3.04232e-16
4.92347e-16
2.22045e-16
2.23938e-16
2.31407e-16
2.40377e-16
2.53191e-16
2.59544e-16
2.60488e-16
2.22045e-16
2.92899e-16
4.66941e-16
2.22599e-16
2.26798e-16
2.35202e-16
2.46424e-16
2.62271e-16
2.68507e-16
2.63616e-16
2.22045e-16
2.80032e-16
4.40206e-16
2.27226e-16
2.31633e-16
2.41606e-16
2.55593e-16
2.74693e-16
2.79681e-16
2.65749e-16
2.22045e-16
2.68385e-16
4.14022e-16
2.34071e-16
2.38865e-16
2.5031e-16
2.67106e-16
2.89551e-16
2.9217e-16
2.64848e-16
2.22045e-16
2.61603e-16
3.95305e-16
2.43462e-16
2.47196e-16
2.58297e-16
2.77104e-16
3.00975e-16
2.99566e-16
2.56093e-16
2.22045e-16
2.59167e-16
3.87262e-16
2.40382e-16
2.40575e-16
2.50453e-16
2.71058e-16
2.93822e-16
2.86211e-16
2.43942e-16
2.22045e-16
2.59141e-16
3.89957e-16
2.22045e-16
2.22045e-16
2.22045e-16
2.22045e-16
2.22045e-16
2.22045e-16
2.22045e-16
2.27216e-16
2.38115e-16
2.40751e-16
2.22045e-16
2.22045e-16
2.22045e-16
2.22045e-16
2.22045e-16
2.22045e-16
2.22045e-16
2.22045e-16
2.31148e-16
2.3902e-16
2.22045e-16
2.22045e-16
2.22045e-16
2.22045e-16
2.22045e-16
2.22045e-16
2.22045e-16
2.22045e-16
2.22045e-16
2.31005e-16
2.22045e-16
2.22045e-16
2.22045e-16
2.22045e-16
2.22045e-16
2.22045e-16
2.22045e-16
2.22045e-16
2.22045e-16
2.22045e-16
2.22045e-16
2.22045e-16
2.22045e-16
2.22045e-16
2.22045e-16
2.22045e-16
2.22045e-16
2.22045e-16
2.22045e-16
2.22045e-16
2.22045e-16
2.22045e-16
2.22045e-16
2.22045e-16
2.22045e-16
2.22045e-16
2.22045e-16
2.22045e-16
2.22045e-16
2.22045e-16
2.22045e-16
2.22045e-16
2.22045e-16
2.22045e-16
2.22045e-16
2.22045e-16
2.22045e-16
2.22045e-16
2.22045e-16
2.22045e-16
2.22045e-16
2.22045e-16
2.22045e-16
2.22045e-16
2.22045e-16
2.22045e-16
2.22045e-16
2.22045e-16
2.22045e-16
2.22045e-16
2.22045e-16
2.22045e-16
2.22045e-16
2.22045e-16
2.22045e-16
2.22045e-16
2.22045e-16
2.22045e-16
2.22045e-16
2.22045e-16
2.22045e-16
2.22045e-16
2.22045e-16
2.22045e-16
2.22045e-16
2.22045e-16
2.22045e-16
2.22045e-16
2.22045e-16
2.22045e-16
)
;

boundaryField
{
    right
    {
        type            cyclic;
    }
    left
    {
        type            cyclic;
    }
    outerWall
    {
        type            kqRWallFunction;
        value           nonuniform List<scalar> 
22
(
4.60797e-16
4.72889e-16
4.83289e-16
4.93122e-16
5.04478e-16
5.1606e-16
5.26569e-16
5.35146e-16
5.41343e-16
5.44772e-16
5.44801e-16
5.4622e-16
5.4445e-16
5.32436e-16
5.14834e-16
4.92347e-16
4.66941e-16
4.40206e-16
4.14022e-16
3.95305e-16
3.87262e-16
3.89957e-16
)
;
    }
    stirrerWall
    {
        type            kqRWallFunction;
        value           uniform 2.22045e-16;
    }
    top
    {
        type            empty;
    }
    bottom
    {
        type            empty;
    }
}


// ************************************************************************* //
