/*--------------------------------*- C++ -*----------------------------------*\
  =========                 |
  \\      /  F ield         | OpenFOAM: The Open Source CFD Toolbox
   \\    /   O peration     | Website:  https://openfoam.org
    \\  /    A nd           | Version:  10
     \\/     M anipulation  |
\*---------------------------------------------------------------------------*/
FoamFile
{
    format      ascii;
    class       volScalarField;
    location    "1800";
    object      nut;
}
// * * * * * * * * * * * * * * * * * * * * * * * * * * * * * * * * * * * * * //

dimensions      [0 2 -1 0 0 0 0];

internalField   nonuniform List<scalar> 
420
(
1.04478e-20
6.70344e-20
1.71239e-19
3.03166e-19
4.48123e-19
5.81848e-19
5.95794e-19
5.5584e-19
5.35359e-19
5.55345e-19
1.04473e-20
6.66377e-20
1.8776e-19
3.44965e-19
5.08671e-19
6.37743e-19
6.7563e-19
6.4e-19
5.76245e-19
5.19486e-19
1.04471e-20
6.77562e-20
2.01344e-19
3.82783e-19
5.58794e-19
6.69488e-19
6.78329e-19
6.18103e-19
5.38257e-19
4.71293e-19
1.04472e-20
6.75781e-20
2.0589e-19
3.96993e-19
5.71994e-19
6.70085e-19
6.61682e-19
5.85344e-19
4.92145e-19
4.15784e-19
1.04476e-20
6.68944e-20
2.02153e-19
3.81615e-19
5.40412e-19
6.30534e-19
6.22138e-19
5.41294e-19
4.41783e-19
3.56333e-19
1.04483e-20
6.57345e-20
1.85081e-19
3.22369e-19
4.43048e-19
5.26228e-19
5.40938e-19
4.82377e-19
3.86778e-19
2.93931e-19
1.04493e-20
6.17251e-20
1.43484e-19
2.17538e-19
2.8622e-19
3.48822e-19
3.87627e-19
3.7854e-19
3.16656e-19
2.27617e-19
1.04506e-20
4.80178e-20
8.06084e-20
1.06891e-19
1.34686e-19
1.64827e-19
1.92791e-19
2.09574e-19
2.0176e-19
1.54407e-19
1.04522e-20
2.14321e-20
2.79555e-20
3.49116e-20
4.28221e-20
5.14452e-20
6.03265e-20
6.85781e-20
7.46661e-20
7.5734e-20
2.82342e-21
3.6643e-21
4.61494e-21
5.67535e-21
6.84552e-21
8.12545e-21
9.51514e-21
1.10146e-20
1.26238e-20
1.43428e-20
5.24724e-19
5.28826e-19
6.29207e-19
7.93454e-19
8.51154e-19
7.17703e-19
5.00586e-19
3.52588e-19
2.23652e-19
1.13566e-19
4.88404e-19
4.9729e-19
5.8966e-19
7.88552e-19
8.58424e-19
7.27606e-19
5.10853e-19
3.56752e-19
2.27871e-19
1.14385e-19
4.35681e-19
4.46725e-19
5.35018e-19
7.74103e-19
8.64838e-19
7.37153e-19
5.21926e-19
3.6033e-19
2.35947e-19
1.14301e-19
3.74216e-19
3.85514e-19
4.87562e-19
7.53683e-19
8.70565e-19
7.47724e-19
5.33898e-19
3.66005e-19
2.44922e-19
1.15635e-19
3.08118e-19
3.18971e-19
4.33604e-19
7.26884e-19
8.73864e-19
7.58799e-19
5.47915e-19
3.73511e-19
2.55349e-19
1.16763e-19
2.4089e-19
2.52767e-19
3.76296e-19
6.95337e-19
8.73837e-19
7.70185e-19
5.64425e-19
3.848e-19
2.66994e-19
1.17721e-19
1.76047e-19
1.92271e-19
3.21083e-19
6.64707e-19
8.63233e-19
7.81272e-19
5.82557e-19
4.01131e-19
2.78468e-19
1.18638e-19
1.17187e-19
1.41089e-19
2.72935e-19
6.38307e-19
8.67813e-19
7.60374e-19
6.01103e-19
4.17564e-19
2.89235e-19
1.19525e-19
6.77586e-20
1.00398e-19
2.355e-19
6.21449e-19
8.61264e-19
7.66333e-19
6.19578e-19
4.33855e-19
2.98958e-19
1.20258e-19
3.07137e-20
7.03084e-20
2.12689e-19
6.20789e-19
8.51745e-19
8.03269e-19
6.35698e-19
4.48789e-19
2.97986e-19
1.20479e-19
1.03958e-20
5.32486e-20
2.28967e-19
6.7245e-19
8.47694e-19
8.03714e-19
6.50675e-19
3.74984e-19
2.96914e-19
1.20562e-19
1.03958e-20
6.45446e-20
2.95574e-19
6.67017e-19
7.07092e-19
6.7529e-19
6.23325e-19
3.97945e-19
3.26624e-19
1.20718e-19
4.86057e-20
1.79308e-19
5.04252e-19
6.96016e-19
7.43386e-19
7.20502e-19
5.69259e-19
4.80384e-19
3.08841e-19
1.20056e-19
2.34497e-19
4.72158e-19
7.05965e-19
7.80103e-19
8.0778e-19
7.91653e-19
6.20505e-19
4.50323e-19
2.81361e-19
1.18028e-19
5.70464e-19
7.09103e-19
7.3886e-19
7.63156e-19
7.92171e-19
7.8719e-19
5.93449e-19
4.73965e-19
2.80032e-19
1.14923e-19
7.51239e-19
7.6019e-19
7.39008e-19
7.38964e-19
7.80651e-19
7.83779e-19
5.70447e-19
4.65021e-19
2.74105e-19
1.11031e-19
7.77879e-19
7.41257e-19
7.09804e-19
7.21387e-19
7.78054e-19
7.84118e-19
5.51354e-19
4.54756e-19
2.65203e-19
1.06636e-19
7.51312e-19
7.08761e-19
6.84519e-19
7.14434e-19
7.87198e-19
7.89555e-19
5.56985e-19
4.41058e-19
2.66455e-19
1.0185e-19
7.17768e-19
6.73781e-19
6.66322e-19
7.20217e-19
8.09252e-19
7.99555e-19
5.4847e-19
4.21913e-19
2.87905e-19
9.91968e-20
6.80879e-19
6.44023e-19
6.58809e-19
7.40264e-19
8.43444e-19
8.11703e-19
4.90524e-19
3.98122e-19
2.72754e-19
9.9622e-20
6.46723e-19
6.21494e-19
6.60422e-19
7.70415e-19
8.79463e-19
6.34424e-19
4.08979e-19
3.72307e-19
2.51387e-19
1.04712e-19
5.94826e-19
5.84819e-19
6.50242e-19
7.85172e-19
8.84126e-19
6.55995e-19
4.20333e-19
3.52183e-19
2.33635e-19
1.02775e-19
1.43428e-20
1.10915e-19
4.00569e-19
6.83147e-19
7.8423e-19
7.89589e-19
7.57539e-19
7.23171e-19
6.87273e-19
5.54244e-19
1.26238e-20
8.51301e-20
2.94323e-19
5.67575e-19
7.23009e-19
7.73013e-19
7.73017e-19
7.46173e-19
7.28836e-19
5.43569e-19
1.10146e-20
6.99357e-20
2.18536e-19
4.34058e-19
6.02564e-19
6.8768e-19
7.1969e-19
7.2127e-19
7.03843e-19
5.9149e-19
9.51514e-21
5.52579e-20
1.53405e-19
2.99638e-19
4.64528e-19
5.6876e-19
6.22144e-19
6.40199e-19
6.41666e-19
6.42574e-19
8.12545e-21
4.6224e-20
1.21953e-19
2.26631e-19
3.45516e-19
4.47605e-19
5.11021e-19
5.32816e-19
5.36878e-19
5.43773e-19
6.84552e-21
3.94736e-20
1.04636e-19
1.90056e-19
2.79857e-19
3.54555e-19
3.99328e-19
4.1393e-19
4.12977e-19
4.1466e-19
5.67535e-21
3.32155e-20
9.04341e-20
1.61772e-19
2.25192e-19
2.66632e-19
2.85127e-19
2.87756e-19
2.83634e-19
2.82257e-19
4.61494e-21
2.71261e-20
7.19277e-20
1.17201e-19
1.45202e-19
1.57704e-19
1.61916e-19
1.62287e-19
1.60851e-19
1.61276e-19
3.6643e-21
2.08451e-20
4.32166e-20
5.37698e-20
5.77949e-20
5.98048e-20
6.11449e-20
6.22266e-20
6.29619e-20
6.45076e-20
2.82342e-21
1.04522e-20
1.04506e-20
1.04493e-20
1.04483e-20
1.04476e-20
1.04472e-20
1.04471e-20
1.04473e-20
1.04478e-20
)
;

boundaryField
{
    right
    {
        type            cyclic;
    }
    left
    {
        type            cyclic;
    }
    outerWall
    {
        type            nutkWallFunction;
        Cmu             0.09;
        kappa           0.41;
        E               9.8;
        value           uniform 0;
    }
    stirrerWall
    {
        type            nutkWallFunction;
        Cmu             0.09;
        kappa           0.41;
        E               9.8;
        value           uniform 0;
    }
    top
    {
        type            empty;
    }
    bottom
    {
        type            empty;
    }
}


// ************************************************************************* //
