/*--------------------------------*- C++ -*----------------------------------*\
  =========                 |
  \\      /  F ield         | OpenFOAM: The Open Source CFD Toolbox
   \\    /   O peration     | Website:  https://openfoam.org
    \\  /    A nd           | Version:  10
     \\/     M anipulation  |
\*---------------------------------------------------------------------------*/
FoamFile
{
    format      ascii;
    class       volScalarField;
    location    "1800";
    object      omega;
}
// * * * * * * * * * * * * * * * * * * * * * * * * * * * * * * * * * * * * * //

dimensions      [0 0 -1 0 0 0 0];

internalField   nonuniform List<scalar> 
420
(
21252.7
3312.4
1296.7
732.419
495.499
381.62
336.811
338.535
365.953
399.832
21253.7
3332.12
1182.6
643.673
436.519
348.173
328.648
346.945
385.33
427.431
21254.2
3277.11
1102.81
580.079
397.364
331.663
327.34
359.236
412.525
471.139
21254
3285.75
1078.46
559.317
388.194
331.368
335.576
379.34
451.177
534.039
21253.2
3319.33
1098.4
581.856
410.88
352.153
356.906
410.211
502.61
623.137
21251.7
3377.9
1199.72
688.79
501.175
421.955
410.481
460.314
574.088
755.432
21249.7
3597.32
1547.52
1020.72
775.784
636.556
572.831
586.581
701.218
975.517
21247.1
4624.21
2754.61
2077.29
1648.61
1347.14
1151.74
1059.5
1100.54
1438.05
21243.8
10360.4
7942.8
6360.2
5185.29
4316.14
3680.71
3237.84
2973.84
2931.9
78643.9
60596.7
48114.3
39124.4
32436.5
27327.1
23335.9
20159.1
17589.3
15481.3
423.165
419.882
380.181
330.113
317.074
353.868
445.256
629.757
1147.62
3581.27
454.634
446.509
390.926
327.006
311.008
347.501
437.104
622.405
1144.88
3581.17
509.649
497.05
416.134
329.437
307.023
341.958
430.309
616.226
1138.3
3581.13
593.36
575.97
455.419
335.206
303.647
335.833
421.815
606.671
1126.31
3581.18
720.649
696.127
512.09
344.165
300.846
329.562
412.648
594.479
1111.21
3581.3
921.767
878.457
590.079
356.138
298.691
323.283
403.371
580.312
1092.98
3581.49
1261.28
1154.85
691.55
370.225
297.348
317.353
394.37
566.838
1077.31
3581.76
1894.79
1573.79
813.545
384.373
296.874
312.152
385.899
555.471
1063.94
3582.1
3276.99
2211.63
942.866
395.414
297.393
308.102
377.948
545.869
1053.87
3582.51
7229.5
3158.15
1043.99
398.861
299.199
306.063
371.326
537.283
1054.77
3582.99
21359.1
4169.96
969.767
375.421
301.202
308.105
367.581
526.384
1057.33
3575.63
21359.1
3440.17
755.768
349.244
301.822
309.26
366.368
500.979
993.126
3575.63
4568.28
1238.34
458.551
319.798
300.733
308.917
365.458
486.33
931.114
3582.99
946.899
470.276
332.329
308.812
303.17
310.757
366.556
482.924
927.337
3582.51
389.235
317.382
308.486
312.882
309.727
316.148
371.799
479.675
912.238
3582.1
295.571
294.81
312.723
321.961
317.303
322.91
379.836
480.743
900.791
3581.76
285.449
302.106
326.016
333.214
325.416
331.001
390.464
488.272
896.319
3581.49
296.281
319.992
343.602
344.922
333.171
340.074
403.554
503.436
900.526
3581.3
316.573
343.78
362.597
354.883
339.44
349.796
419.291
526.28
917.786
3581.18
343.778
370.895
379.944
360.826
343.297
359.947
436.91
557.731
959.116
3581.13
376.456
397.745
391.109
359.682
342.225
368.067
452.828
596.401
1030.95
3581.17
404.121
411.367
385.168
345.221
332.331
366.908
459.369
630.48
1109.17
3581.27
15481.3
2001.93
554.323
325.032
283.137
281.215
293.113
314.194
344.133
375.326
17589.3
2608.3
754.425
391.216
307.112
287.246
287.244
297.578
317.147
341.023
20159.1
3174.98
1016.06
511.556
368.5
322.889
308.528
307.852
315.474
326.443
23335.9
4018.33
1447.44
741.042
478
390.401
356.902
346.837
346.044
345.555
27327.1
4803.67
1820.74
979.762
642.646
496.072
434.511
416.738
413.585
408.34
32436.5
5625.14
2122.06
1168.31
793.422
626.264
556.045
536.43
537.669
535.486
39124.4
6684.97
2455.32
1372.58
986.024
832.774
778.756
771.642
782.855
786.676
48114.3
8185.65
3087.05
1894.57
1529.22
1407.98
1371.36
1368.22
1380.43
1376.8
60596.7
10652.1
5137.95
4129.54
3841.94
3712.82
3631.45
3568.32
3526.65
3442.15
78643.9
21243.8
21247.1
21249.7
21251.7
21253.2
21254
21254.2
21253.7
21252.7
)
;

boundaryField
{
    right
    {
        type            cyclic;
    }
    left
    {
        type            cyclic;
    }
    outerWall
    {
        beta1           0.075;
        blended         0;
        type            omegaWallFunction;
        value           nonuniform List<scalar> 
22
(
3581.27
3581.17
3581.13
3581.18
3581.3
3581.49
3581.76
3582.1
3582.51
3582.99
3575.63
3575.63
3582.99
3582.51
3582.1
3581.76
3581.49
3581.3
3581.18
3581.13
3581.17
3581.27
)
;
    }
    stirrerWall
    {
        beta1           0.075;
        blended         0;
        type            omegaWallFunction;
        value           nonuniform List<scalar> 
42
(
21252.7
21253.7
21254.2
21254
21253.2
21251.7
21249.7
21247.1
21243.8
78643.9
78643.9
60596.7
48114.3
39124.4
32436.5
27327.1
23335.9
20159.1
17589.3
15481.3
21359.1
21359.1
15481.3
17589.3
20159.1
23335.9
27327.1
32436.5
39124.4
48114.3
60596.7
78643.9
78643.9
21243.8
21247.1
21249.7
21251.7
21253.2
21254
21254.2
21253.7
21252.7
)
;
    }
    top
    {
        type            empty;
    }
    bottom
    {
        type            empty;
    }
}


// ************************************************************************* //
