/*--------------------------------*- C++ -*----------------------------------*\
  =========                 |
  \\      /  F ield         | OpenFOAM: The Open Source CFD Toolbox
   \\    /   O peration     | Website:  https://openfoam.org
    \\  /    A nd           | Version:  10
     \\/     M anipulation  |
\*---------------------------------------------------------------------------*/
FoamFile
{
    format      ascii;
    class       volScalarField;
    location    "1800";
    object      p;
}
// * * * * * * * * * * * * * * * * * * * * * * * * * * * * * * * * * * * * * //

dimensions      [0 2 -2 0 0 0 0];

internalField   nonuniform List<scalar> 
420
(
0.137735
14.0681
29.6089
47.3876
66.7922
87.2518
108.318
129.464
150.344
170.679
-1.25465
13.464
28.9805
46.6167
65.8731
86.2375
107.303
128.571
149.635
170.208
-1.63165
13.0943
28.4052
45.8047
64.8407
85.0755
106.153
127.594
148.934
169.815
-1.44334
12.9759
27.9632
45.0421
63.7926
83.8617
104.959
126.634
148.323
169.542
-1.11836
13.0544
27.7128
44.4327
62.8525
82.7126
103.803
125.708
147.769
169.367
-0.793206
13.2967
27.6826
44.0418
62.1045
81.7039
102.709
124.78
147.216
169.247
-0.507417
13.6782
27.8875
43.9097
61.5976
80.8711
101.679
123.809
146.614
169.179
-0.283211
14.1666
28.3066
44.0335
61.3514
80.2426
100.717
122.711
145.791
168.967
-0.17446
14.7317
28.8645
44.3373
61.3237
79.8093
99.8103
121.33
144.166
167.543
-0.156008
15.3819
29.4386
44.7697
61.5815
79.789
99.3446
120.174
141.948
164.203
190.15
209.167
227.745
245.48
262.601
279.553
295.392
313.01
309.143
381.074
189.941
209.139
227.765
245.486
262.609
279.53
295.329
312.222
307.661
375.062
189.802
209.114
227.709
245.39
262.526
279.437
295.317
312.085
306.322
366.266
189.763
209.123
227.611
245.225
262.352
279.234
295.194
311.765
305.16
357.469
189.819
209.18
227.529
245.083
262.189
279.055
295.043
311.062
303.035
351.533
189.963
209.284
227.501
245.033
262.091
278.899
294.831
309.902
299.657
346.502
190.264
209.399
227.437
245.008
262.017
278.712
294.452
308.429
296.097
341.263
190.686
209.465
227.231
244.952
261.994
278.584
294.096
307.332
293.579
336.015
190.607
209.696
227.161
244.977
262.088
278.609
294.037
307.347
293.505
331.09
189.21
210.517
227.67
245.17
262.229
278.796
294.557
308.693
293.277
327.634
188.19
210.74
228.029
245.266
262.082
278.556
294.818
311.255
284.14
326.392
188.549
210.444
228.083
245.062
261.583
277.768
293.748
309.375
278.865
324.047
192.757
210.673
228.221
245.116
261.389
277.163
292.105
303.688
282.042
321.761
192.47
210.364
227.982
244.979
261.213
276.71
291.069
301.922
284.097
320.82
191.624
209.847
227.625
244.735
260.995
276.351
290.656
302.381
286.813
323.312
191.083
209.391
227.309
244.548
260.891
276.236
290.655
303.364
290.139
328.886
190.815
209.131
227.146
244.508
260.968
276.433
291.193
305.195
294.575
336.285
190.691
209.035
227.148
244.643
261.278
277.05
292.394
307.769
300.348
348.1
190.623
209.064
227.302
244.938
261.773
277.917
293.626
310.088
308.114
368.751
190.56
209.153
227.535
245.302
262.309
278.652
294.024
310.59
314.46
394.029
190.494
209.235
227.708
245.544
262.619
278.948
294.064
310.409
313.599
400.258
190.411
209.299
227.826
245.577
262.579
279.194
294.727
312.107
312.043
383.93
175.117
173.222
172.316
172.046
171.985
171.941
171.826
171.619
171.364
171.09
149.323
150.229
151.025
151.652
152.061
152.222
152.117
151.791
151.345
150.9
122.798
125.925
128.477
130.182
131.203
131.679
131.68
131.323
130.752
130.151
98.9754
102.412
105.73
108.157
109.702
110.509
110.695
110.405
109.818
109.117
77.9856
80.7504
83.8291
86.3752
88.1255
89.1309
89.492
89.3239
88.7949
88.0775
59.3282
61.2021
63.516
65.6425
67.2406
68.2434
68.683
68.6271
68.2025
67.5582
42.6643
43.7385
45.1315
46.5412
47.6988
48.4756
48.8511
48.8501
48.5425
48.0334
27.805
28.2383
28.7929
29.4131
29.985
30.4131
30.6402
30.6488
30.4623
30.1169
14.708
14.5268
14.4178
14.429
14.532
14.659
14.7452
14.7519
14.669
14.4708
2.53552
1.35091
0.413389
-0.0871222
-0.313936
-0.411025
-0.468783
-0.547038
-0.642728
-0.564598
)
;

boundaryField
{
    right
    {
        type            cyclic;
    }
    left
    {
        type            cyclic;
    }
    outerWall
    {
        type            zeroGradient;
    }
    stirrerWall
    {
        type            zeroGradient;
    }
    top
    {
        type            empty;
    }
    bottom
    {
        type            empty;
    }
}


// ************************************************************************* //
