/*--------------------------------*- C++ -*----------------------------------*\
  =========                 |
  \\      /  F ield         | OpenFOAM: The Open Source CFD Toolbox
   \\    /   O peration     | Website:  https://openfoam.org
    \\  /    A nd           | Version:  10
     \\/     M anipulation  |
\*---------------------------------------------------------------------------*/
FoamFile
{
    format      ascii;
    class       surfaceScalarField;
    location    "1800";
    object      phi;
}
// * * * * * * * * * * * * * * * * * * * * * * * * * * * * * * * * * * * * * //

dimensions      [0 3 -1 0 0 0 0];

internalField   nonuniform List<scalar> 
788
(
-5.31127e-07
-1.17727e-05
2.37182e-06
-9.19021e-06
3.96079e-06
-2.83778e-06
4.8794e-06
-9.72071e-07
4.55874e-06
-2.37539e-06
2.23162e-06
-6.02538e-06
-2.25486e-06
-1.07106e-05
-8.24581e-06
-1.66816e-05
-1.46977e-05
-2.44818e-05
-3.54749e-05
-2.01992e-05
4.19399e-07
-1.21516e-05
8.73265e-07
-9.5161e-06
1.34896e-06
-3.12519e-06
1.15297e-06
-5.61138e-07
-5.50985e-07
-4.94022e-07
-4.22344e-06
-2.23784e-06
-9.45e-06
-5.38288e-06
-1.55249e-05
-1.0478e-05
-2.15144e-05
-1.82955e-05
-3.0791e-05
-2.5914e-05
-7.73196e-08
-1.20191e-05
-9.46199e-07
-8.46436e-06
-1.21578e-06
-2.62097e-06
-1.9816e-06
4.34801e-07
-4.01957e-06
1.73564e-06
-7.60186e-06
1.49298e-06
-1.23847e-05
-4.565e-07
-1.76596e-05
-5.03111e-06
-2.24912e-05
-1.32421e-05
-2.70931e-05
-2.59222e-05
-6.1001e-07
-1.13497e-05
-2.19842e-06
-6.68762e-06
-2.83193e-06
-1.75076e-06
-3.75228e-06
1.57938e-06
-5.61587e-06
3.79464e-06
-8.65834e-06
4.70909e-06
-1.26638e-05
3.72518e-06
-1.70111e-05
-4.894e-07
-2.09731e-05
-9.08005e-06
-2.40192e-05
-2.3873e-05
-1.10139e-06
-1.01871e-05
-2.93903e-06
-4.67443e-06
-3.7691e-06
-7.02548e-07
-4.62475e-06
2.62763e-06
-6.00842e-06
5.33311e-06
-8.16838e-06
6.99894e-06
-1.11297e-05
6.82012e-06
-1.46806e-05
3.20882e-06
-1.80233e-05
-5.59917e-06
-2.13896e-05
-2.05573e-05
-1.59889e-06
-8.53218e-06
-3.47332e-06
-2.65367e-06
-4.23183e-06
2.29881e-07
-4.6414e-06
3.17169e-06
-5.23142e-06
6.01303e-06
-6.38172e-06
8.21809e-06
-8.30501e-06
8.82792e-06
-1.09801e-05
5.99764e-06
-1.38528e-05
-2.60987e-06
-1.88608e-05
-1.6315e-05
-1.95498e-06
-6.53251e-06
-3.68341e-06
-8.17348e-07
-4.25899e-06
9.25542e-07
-4.2095e-06
3.19139e-06
-3.8794e-06
5.70668e-06
-3.58719e-06
7.94479e-06
-3.86941e-06
9.16998e-06
-5.36944e-06
7.61643e-06
-8.04473e-06
2.07867e-07
-1.58537e-05
-1.09672e-05
-2.08181e-06
-4.41712e-06
-3.26288e-06
4.4043e-07
-3.24401e-06
9.78332e-07
-2.38902e-06
2.34408e-06
-8.36265e-07
4.11569e-06
1.12093e-06
5.95774e-06
2.93138e-06
7.39489e-06
3.32585e-06
7.34554e-06
8.49782e-07
2.85154e-06
-1.10261e-05
-3.87922e-06
-1.91877e-06
-2.47174e-06
-1.86166e-06
4.33276e-07
-9.52611e-07
8.27745e-08
8.5099e-07
4.86384e-07
3.7272e-06
1.15685e-06
7.51571e-06
2.11583e-06
1.16699e-05
3.2732e-06
1.48069e-05
4.36113e-06
1.34502e-05
4.44277e-06
-1.73245e-06
4.33345e-06
-2.45448e-06
-2.01882e-06
-1.96482e-06
-1.52544e-06
-4.07479e-07
1.71189e-06
5.05337e-06
9.53174e-06
1.40765e-05
1.23581e-05
-2.41041e-05
-5.07822e-05
-2.66121e-05
-7.81062e-05
-2.86815e-05
-0.000118153
-3.19125e-05
-0.000170617
-3.66413e-05
-0.000236281
-4.23061e-05
-0.000319895
-4.51775e-05
-0.000435043
-4.87363e-05
-0.000619128
-2.03931e-05
-0.000690483
-0.00124503
-2.83343e-05
-4.80363e-05
-2.93416e-05
-7.68551e-05
-3.01666e-05
-0.000117386
-3.20974e-05
-0.000169169
-3.49003e-05
-0.000234166
-3.69687e-05
-0.000318185
-3.60609e-05
-0.000435895
-3.98669e-05
-0.000615384
-2.07597e-05
-0.000709405
-0.0012659
-2.77036e-05
-4.60043e-05
-2.83051e-05
-7.61011e-05
-2.89247e-05
-0.000116818
-3.05315e-05
-0.000167817
-3.25418e-05
-0.000232345
-3.38337e-05
-0.000316824
-3.33893e-05
-0.000436422
-3.85641e-05
-0.000610665
-2.00852e-05
-0.000727788
-0.00128587
-2.52956e-05
-4.44808e-05
-2.57714e-05
-7.56468e-05
-2.64574e-05
-0.000116319
-2.79327e-05
-0.000166624
-2.94072e-05
-0.000230947
-3.00751e-05
-0.000315957
-3.03227e-05
-0.000436275
-3.64668e-05
-0.000604465
-1.89309e-05
-0.000745327
-0.00130467
-2.1805e-05
-4.32247e-05
-2.22692e-05
-7.52972e-05
-2.31103e-05
-0.000115716
-2.4557e-05
-0.000165435
-2.58278e-05
-0.000229706
-2.65058e-05
-0.000315111
-2.7459e-05
-0.000435509
-3.35491e-05
-0.00059819
-1.77106e-05
-0.000761212
-0.00132229
-1.74498e-05
-4.21261e-05
-1.79541e-05
-7.49561e-05
-1.89468e-05
-0.000114976
-2.03482e-05
-0.000164243
-2.151e-05
-0.000228537
-2.24305e-05
-0.000314114
-2.4083e-05
-0.000434102
-2.8093e-05
-0.000594017
-1.4844e-05
-0.000774534
-0.00133707
-1.21153e-05
-4.10235e-05
-1.2846e-05
-7.44124e-05
-1.40457e-05
-0.000114029
-1.54159e-05
-0.000163028
-1.65353e-05
-0.00022735
-1.77705e-05
-0.000312862
-1.97741e-05
-0.000432383
-2.14936e-05
-0.000592153
-1.23056e-05
-0.000783813
-0.00134932
-5.69159e-06
-3.92854e-05
-7.03399e-06
-7.32998e-05
-8.54704e-06
-0.000112764
-9.94644e-06
-0.000161734
-1.11703e-05
-0.00022599
-1.29273e-05
-0.000311109
-1.5582e-05
-0.000430047
-1.60202e-05
-0.00059156
-9.74071e-06
-0.000790165
-0.00135907
1.78334e-06
-3.67877e-05
-3.16822e-07
-7.14463e-05
-1.98191e-06
-0.000111331
-3.30245e-06
-0.000160492
-4.57584e-06
-0.000224543
-6.73151e-06
-0.000308963
-9.90326e-06
-0.000427206
-1.1641e-05
-0.000589649
-5.04795e-06
-0.000796716
-0.00136409
9.23591e-06
-3.3818e-05
6.87691e-06
-6.93246e-05
5.4527e-06
-0.000110254
4.97446e-06
-0.000160211
4.1251e-06
-0.000223565
6.81224e-07
-0.000305368
-6.04458e-06
-0.00042052
-8.09848e-06
-0.000587621
-1.91326e-06
-0.000803274
-0.00136559
6.67428e-06
-4.06019e-05
7.12552e-06
-7.0069e-05
7.05202e-06
-0.000110503
7.55914e-06
-0.00016076
8.68345e-06
-0.00022441
9.18068e-06
-0.000305835
4.81748e-06
-0.000416381
-1.33685e-05
-0.000569317
-1.98764e-05
-0.000797047
-0.00138539
8.94457e-06
-4.9629e-05
1.00176e-05
-7.14231e-05
1.01003e-05
-0.000110826
1.07299e-05
-0.000161341
1.20542e-05
-0.000225396
1.35235e-05
-0.000307398
1.19509e-05
-0.000415151
-3.49573e-06
-0.000553503
-1.70999e-05
-0.000783455
-0.00140257
9.24882e-06
-4.28331e-05
-1.61517e-05
1.06534e-05
-7.28354e-05
1.05703e-05
-0.000111086
1.04737e-05
-0.000161345
1.05094e-05
-0.000225171
9.84778e-06
-0.000306701
9.88766e-06
-0.000415361
1.92612e-05
-0.000562719
8.48363e-06
-0.000772806
-0.00139393
1.22663e-05
-4.78833e-05
-7.11678e-06
1.46872e-05
-7.54537e-05
1.58681e-05
-0.000112718
1.6925e-05
-0.000162453
1.78681e-05
-0.000225711
1.74484e-05
-0.000306229
1.53974e-05
-0.00041365
1.21358e-05
-0.000559475
2.81471e-06
-0.000763497
-0.00139104
1.53919e-05
-5.26502e-05
-1.0596e-05
1.77896e-05
-7.81097e-05
1.92165e-05
-0.000114559
2.07657e-05
-0.000164048
2.25015e-05
-0.000227073
2.31136e-05
-0.000306835
2.19677e-05
-0.000412741
1.86502e-05
-0.000555819
2.41573e-06
-0.000747294
-0.0013886
1.82953e-05
-5.6108e-05
-1.48951e-05
2.03505e-05
-8.04078e-05
2.18692e-05
-0.000116459
2.38128e-05
-0.000166006
2.62807e-05
-0.000229116
2.79774e-05
-0.000308518
2.83245e-05
-0.000413485
2.97623e-05
-0.000556978
6.85068e-06
-0.000724426
-0.00138174
2.1123e-05
-5.85252e-05
-1.87622e-05
2.2949e-05
-8.24252e-05
2.46046e-05
-0.00011846
2.7072e-05
-0.000168489
3.04666e-05
-0.000232129
3.36818e-05
-0.000311768
3.63707e-05
-0.00041663
4.09383e-05
-0.000561288
1.20412e-05
-0.000695589
-0.00136966
2.23336e-05
-6.0142e-05
-2.07445e-05
2.39846e-05
-8.42143e-05
2.5894e-05
-0.000120671
2.89145e-05
-0.000171504
3.30846e-05
-0.000235926
3.72918e-05
-0.000316028
4.07248e-05
-0.000420518
4.74022e-05
-0.000567696
1.95722e-05
-0.000667825
-0.00135003
2.1297e-05
-6.10652e-05
-2.03798e-05
2.29058e-05
-8.59054e-05
2.52048e-05
-0.000123225
2.88397e-05
-0.000175113
3.38506e-05
-0.000240565
3.92973e-05
-0.000321523
4.50864e-05
-0.000426732
5.61328e-05
-0.000578433
3.1893e-05
-0.000643701
-0.00131805
1.85092e-05
-6.13467e-05
-1.82025e-05
1.99064e-05
-8.73277e-05
2.21622e-05
-0.000125683
2.59045e-05
-0.0001788
3.12267e-05
-0.000245515
3.71801e-05
-0.000327503
4.72807e-05
-0.000437206
6.59613e-05
-0.000596728
4.08872e-05
-0.000618766
-0.00127718
1.32167e-05
-6.0229e-05
-1.42633e-05
1.2388e-05
-8.64922e-05
1.19925e-05
-0.000125408
1.1709e-05
-0.000178383
1.19371e-05
-0.000245334
1.42194e-05
-0.000329846
2.1993e-05
-0.00044546
4.74884e-05
-0.000621582
5.74217e-05
-0.000627834
-0.00121989
-8.39006e-06
3.74886e-06
-1.3281e-05
-1.79465e-05
-2.29155e-05
-2.85511e-05
-3.4182e-05
-4.16937e-05
-3.90366e-05
-4.7077e-06
-1.67386e-05
5.62515e-07
-2.70777e-05
3.15749e-06
-3.3986e-05
-3.81122e-06
-3.88322e-05
-1.02084e-05
-4.23065e-05
-1.54159e-05
-4.47557e-05
-1.83757e-05
-4.62804e-05
-1.887e-05
-4.68401e-05
-1.75748e-05
-4.61112e-05
-1.48546e-05
-7.31214e-07
-5.55489e-06
6.18849e-06
-1.18355e-05
9.55573e-06
-1.84898e-05
2.80859e-06
-2.40754e-05
-4.68004e-06
-2.85461e-05
-1.0999e-05
-3.19399e-05
-1.50294e-05
-3.42468e-05
-1.65776e-05
-3.53536e-05
-1.64596e-05
-3.52236e-05
-1.49981e-05
-4.9239e-06
-3.02868e-07
6.53296e-06
-1.86421e-06
1.10229e-05
-6.46751e-06
7.14165e-06
-1.16957e-05
2.92496e-07
-1.6491e-05
-6.45685e-06
-2.03753e-05
-1.13772e-05
-2.32435e-05
-1.38882e-05
-2.4982e-05
-1.48506e-05
-2.57446e-05
-1.43558e-05
-8.02703e-06
1.86025e-06
4.62614e-06
4.02676e-06
8.59488e-06
2.84081e-06
7.94938e-06
-4.08445e-07
3.21212e-06
-4.57419e-06
-2.6147e-06
-8.5595e-06
-7.69221e-06
-1.19596e-05
-1.0742e-05
-1.46522e-05
-1.23408e-05
-1.66107e-05
-1.25197e-05
-9.35118e-06
2.0664e-06
2.47037e-06
5.7917e-06
4.57554e-06
7.41659e-06
5.97754e-06
6.68998e-06
3.65362e-06
4.2279e-06
-4.32189e-07
8.97495e-07
-4.62792e-06
-2.54907e-06
-7.50678e-06
-5.69374e-06
-9.32665e-06
-8.20824e-06
-1.00426e-05
-8.8414e-06
1.5428e-06
8.42273e-07
4.94037e-06
9.26459e-07
7.82483e-06
2.84204e-06
8.94333e-06
2.3364e-06
8.27397e-06
5.19394e-08
6.23512e-06
-2.75213e-06
3.55529e-06
-4.93603e-06
7.27917e-07
-6.54036e-06
-1.76848e-06
-7.49879e-06
-7.25953e-06
9.60189e-07
-1.74823e-07
3.20797e-06
-1.49025e-06
5.95518e-06
-3.70821e-08
7.82511e-06
3.67952e-07
8.251e-06
-4.58037e-07
7.33593e-06
-1.89656e-06
5.56232e-06
-3.17664e-06
3.29503e-06
-4.23504e-06
9.88994e-07
-5.09946e-06
-5.25671e-06
6.35989e-07
-8.37114e-07
1.68526e-06
-2.61752e-06
3.3799e-06
-1.76302e-06
4.82788e-06
-1.09358e-06
5.4049e-06
-1.03513e-06
4.9344e-06
-1.40347e-06
3.64893e-06
-1.83521e-06
1.79151e-06
-2.28806e-06
-2.89162e-07
-2.90632e-06
-3.09149e-06
3.78323e-07
-1.2217e-06
2.83018e-07
-2.53245e-06
5.80644e-07
-2.03829e-06
8.90694e-07
-1.37109e-06
8.40488e-07
-9.4104e-07
2.12702e-07
-7.15799e-07
-9.59999e-07
-5.82397e-07
-2.66523e-06
-4.81321e-07
-4.90044e-06
-5.44929e-07
-4.26368e-07
-1.21963e-06
-3.73769e-06
-5.75746e-06
-7.10496e-06
-8.01739e-06
-8.69986e-06
-9.24423e-06
-9.68252e-06
-1.01714e-05
)
;

boundaryField
{
    right
    {
        type            cyclic;
        value           nonuniform List<scalar> 
20
(
0.00122415
0.000662242
0.000624055
0.000439239
0.000326121
0.000240846
0.000173772
0.000120516
8.10617e-05
5.50297e-05
4.11893e-05
3.09295e-05
2.26332e-05
1.52617e-05
8.57039e-06
3.02973e-06
4.82761e-07
1.78649e-06
6.8048e-06
1.05061e-05
)
;
    }
    left
    {
        type            cyclic;
        value           nonuniform List<scalar> 
20
(
-0.00122415
-0.000662242
-0.000624055
-0.000439239
-0.000326121
-0.000240846
-0.000173772
-0.000120516
-8.10617e-05
-5.50297e-05
-4.11893e-05
-3.09295e-05
-2.26332e-05
-1.52617e-05
-8.57039e-06
-3.02973e-06
-4.82761e-07
-1.78649e-06
-6.8048e-06
-1.05061e-05
)
;
    }
    outerWall
    {
        type            calculated;
        value           uniform 0;
    }
    stirrerWall
    {
        type            calculated;
        value           uniform 0;
    }
    top
    {
        type            empty;
        value           nonuniform List<scalar> 0();
    }
    bottom
    {
        type            empty;
        value           nonuniform List<scalar> 0();
    }
}


// ************************************************************************* //
