/*--------------------------------*- C++ -*----------------------------------*\
  =========                 |
  \\      /  F ield         | OpenFOAM: The Open Source CFD Toolbox
   \\    /   O peration     | Website:  https://openfoam.org
    \\  /    A nd           | Version:  10
     \\/     M anipulation  |
\*---------------------------------------------------------------------------*/
FoamFile
{
    format      ascii;
    class       volVectorField;
    location    "1800";
    object      U;
}
// * * * * * * * * * * * * * * * * * * * * * * * * * * * * * * * * * * * * * //

dimensions      [0 1 -1 0 0 0 0];

internalField   nonuniform List<vector> 
420
(
(0.622353 8.1086 1.2043e-17)
(-0.428144 9.54959 -7.96175e-17)
(-0.0480817 11.3183 -3.01598e-16)
(0.0649738 12.7208 7.89731e-17)
(0.0209713 13.8146 -4.80094e-16)
(-0.123482 14.6857 0)
(-0.536129 15.4534 0)
(-1.04683 16.1223 2.95716e-16)
(-1.52112 16.6711 -3.21045e-16)
(-1.88453 17.0309 0)
(-0.0210525 8.06085 3.67067e-17)
(-1.09137 9.43313 -2.15292e-16)
(-1.13284 11.2246 1.00551e-15)
(-1.21843 12.6626 -1.20258e-15)
(-1.45083 13.8379 3.91923e-16)
(-1.78011 14.8272 6.11506e-18)
(-2.32977 15.6865 2.1681e-15)
(-2.87835 16.417 -5.07823e-16)
(-3.34775 16.9833 7.25616e-16)
(-3.62693 17.2597 0)
(-0.794816 8.01731 2.26814e-16)
(-1.92704 9.32158 -1.17565e-15)
(-2.21726 11.0507 1.01436e-15)
(-2.4712 12.5068 1.35349e-15)
(-2.83405 13.7665 -9.29505e-16)
(-3.25297 14.877 3.99586e-15)
(-3.84149 15.8301 1.37509e-15)
(-4.38724 16.6096 3.04082e-15)
(-4.78281 17.1628 -1.27982e-15)
(-4.97251 17.2981 -2.88752e-15)
(-1.50465 7.91583 -1.21164e-16)
(-2.77091 9.23195 9.87762e-16)
(-3.20668 10.8692 -1.34926e-15)
(-3.60644 12.331 9.59387e-16)
(-4.07294 13.654 -1.95249e-15)
(-4.55698 14.857 1.7267e-15)
(-5.1694 15.8761 -8.85757e-15)
(-5.69431 16.6724 0)
(-6.02721 17.1692 -2.9948e-15)
(-6.18502 17.1836 2.70798e-15)
(-2.17241 7.82488 0)
(-3.59316 9.11535 6.25832e-16)
(-4.12403 10.6454 -6.7331e-16)
(-4.65337 12.0868 0)
(-5.2046 13.447 -2.29756e-16)
(-5.74722 14.7077 -2.52976e-16)
(-6.33919 15.7839 3.30911e-15)
(-6.86335 16.5902 -3.34682e-15)
(-7.17647 17.0396 0)
(-7.29618 16.9692 -1.1365e-14)
(-2.83027 7.7343 5.96843e-17)
(-4.40007 8.95704 0)
(-5.01323 10.3705 0)
(-5.60767 11.7634 2.02591e-15)
(-6.20098 13.132 -2.69918e-15)
(-6.79874 14.427 3.00133e-15)
(-7.38791 15.5606 5.46962e-16)
(-7.92899 16.3957 7.71215e-15)
(-8.2231 16.8302 -9.47908e-15)
(-8.33573 16.6891 5.80362e-15)
(-3.4808 7.63625 0)
(-5.15782 8.74074 -6.78869e-16)
(-5.83532 10.0348 -3.42863e-15)
(-6.48379 11.367 -1.05839e-15)
(-7.11482 12.7166 -5.01985e-15)
(-7.73834 14.0277 2.9215e-15)
(-8.31708 15.2243 -7.06171e-15)
(-8.83104 16.1492 4.81308e-16)
(-9.15975 16.622 -3.14679e-15)
(-9.30684 16.4196 -9.38812e-15)
(-4.1244 7.51036 -1.34686e-16)
(-5.8379 8.46897 7.19416e-16)
(-6.52301 9.6606 4.25776e-15)
(-7.18429 10.9271 3.77477e-16)
(-7.8212 12.2387 2.60548e-15)
(-8.43946 13.5543 0)
(-9.038 14.8223 6.86384e-15)
(-9.55223 15.9125 7.7328e-15)
(-9.92209 16.5431 8.76295e-15)
(-10.2058 16.3062 7.32983e-15)
(-4.75406 7.30578 -1.39424e-16)
(-6.33206 8.08612 7.52939e-16)
(-6.94242 9.16522 -7.78527e-16)
(-7.56012 10.3146 -2.33911e-15)
(-8.15088 11.5209 7.75285e-15)
(-8.71314 12.7622 9.78339e-15)
(-9.24439 14.0063 -3.49672e-15)
(-9.76662 15.1989 0)
(-10.2566 16.195 0)
(-10.9924 16.2374 -8.68988e-15)
(-5.5498 7.01256 6.78522e-17)
(-7.06236 7.70466 8.5341e-16)
(-7.77355 8.72406 0)
(-8.58837 9.78241 0)
(-9.39486 10.8692 -3.51667e-15)
(-10.1625 12.0045 1.62891e-17)
(-10.8688 13.1959 6.34151e-15)
(-11.4731 14.4147 -1.40281e-14)
(-11.9646 15.5074 1.65152e-14)
(-12.4431 15.8563 1.34141e-15)
(-2.07678 17.1408 0)
(-2.16746 16.939 0)
(-2.19819 16.331 0)
(-2.24035 15.5387 -7.2218e-16)
(-2.29072 14.7251 0)
(-2.24108 13.8182 0)
(-2.73296 12.4656 8.71884e-16)
(-1.11374 9.44462 0)
(-3.00246 12.5777 0)
(-1.17779 -0.623396 0)
(-3.68655 17.2218 1.23162e-15)
(-3.63122 16.867 2.26951e-15)
(-3.53204 16.1898 1.86612e-16)
(-3.43725 15.4237 8.93563e-16)
(-3.34743 14.6546 1.19746e-16)
(-3.18977 13.7653 1.18313e-15)
(-3.09004 12.3022 1.00814e-16)
(-1.66781 9.44965 -1.66401e-17)
(-3.63926 11.3398 -2.38066e-15)
(-0.943275 -1.16896 -3.55365e-16)
(-4.96018 17.0904 1.10259e-15)
(-4.8388 16.6151 0)
(-4.66211 15.9238 -1.83983e-15)
(-4.5096 15.2141 -1.68803e-15)
(-4.33899 14.4846 4.91002e-15)
(-4.13028 13.5782 -1.06474e-15)
(-3.72149 12.039 1.80804e-15)
(-2.3603 9.46857 0)
(-4.71718 10.3495 2.50019e-15)
(0.136482 -1.86993 -1.04413e-17)
(-6.10836 16.8485 2.45128e-15)
(-5.92891 16.2858 6.41922e-15)
(-5.6989 15.6028 -6.8986e-15)
(-5.51216 14.9474 2.77751e-15)
(-5.2833 14.2465 5.87813e-17)
(-5.00913 13.3239 0)
(-4.3715 11.7926 -1.79082e-15)
(-2.95679 9.49575 -3.01724e-15)
(-5.50929 9.26029 -2.41925e-15)
(0.785744 -2.37958 1.79929e-15)
(-7.1732 16.5218 2.18267e-15)
(-6.93383 15.8937 -2.03266e-15)
(-6.66258 15.2361 7.16961e-15)
(-6.45729 14.6252 -2.91648e-15)
(-6.18479 13.9394 2.67844e-15)
(-5.85056 13.0039 -4.20058e-15)
(-5.05516 11.5299 3.89065e-15)
(-3.55364 9.61286 3.22357e-15)
(-6.11024 8.19443 0)
(1.26675 -2.82893 -3.53859e-15)
(-8.17134 16.1351 2.76762e-15)
(-7.8636 15.4611 -1.25475e-14)
(-7.56224 14.843 -3.8764e-15)
(-7.34764 14.2636 9.3543e-15)
(-7.03419 13.5873 8.4832e-15)
(-6.64424 12.6496 4.92061e-16)
(-5.71321 11.2536 2.98356e-16)
(-4.10289 9.6043 -2.84226e-15)
(-6.47376 7.20573 -1.26134e-15)
(1.76555 -3.18848 3.91383e-15)
(-9.10405 15.717 2.7962e-15)
(-8.71868 15.004 4.52342e-15)
(-8.40011 14.426 0)
(-8.18506 13.8635 -3.09458e-15)
(-7.83339 13.1954 -5.14695e-15)
(-7.3902 12.2684 5.31383e-16)
(-6.35874 10.9598 -1.18636e-14)
(-4.54867 9.53356 -3.35221e-15)
(-6.79934 6.29632 3.97416e-15)
(2.2887 -3.39417 -2.21324e-15)
(-9.97567 15.3154 1.11878e-14)
(-9.52199 14.5474 -4.07007e-15)
(-9.19215 13.9998 0)
(-8.98065 13.4389 -2.62922e-16)
(-8.60203 12.7808 2.26058e-14)
(-8.11777 11.8785 -9.59085e-15)
(-7.02296 10.6436 -9.00741e-15)
(-4.95149 9.38881 6.83512e-15)
(-7.1933 5.52412 -5.18095e-15)
(2.83167 -3.4677 0)
(-10.7591 15.0276 3.36208e-16)
(-10.3505 14.1281 -4.33434e-15)
(-9.95579 13.6018 0)
(-9.71987 13.0244 7.41802e-15)
(-9.31685 12.3752 -1.73557e-14)
(-8.79961 11.5007 1.01596e-14)
(-7.63935 10.3355 4.28877e-15)
(-5.28238 9.22277 0)
(-7.58944 4.81616 -2.33083e-16)
(3.34051 -3.37188 1.6366e-15)
(-11.2609 15.0246 4.1776e-16)
(-11.2314 13.6094 9.12384e-17)
(-10.6704 13.1132 0)
(-10.3339 12.5487 -1.48569e-14)
(-9.90414 11.9536 5.41166e-15)
(-9.41827 11.161 -5.91676e-15)
(-8.28287 10.0702 4.74925e-15)
(-5.66133 9.02912 -1.64089e-16)
(-7.773 3.70657 -7.49065e-16)
(3.69823 -3.01077 -1.56848e-15)
(-10.8362 15.0675 3.38161e-15)
(-11.8697 13.1201 -5.87911e-15)
(-11.1469 12.794 0)
(-10.6961 12.2769 0)
(-10.1851 11.7666 0)
(-9.62751 11.1475 -3.07037e-15)
(-8.60187 10.299 1.20281e-14)
(-6.44511 9.45997 0)
(-9.07356 2.3768 0)
(4.11166 -3.13145 0)
(-11.2367 14.3148 -3.34638e-15)
(-12.355 12.7348 -6.14838e-15)
(-11.7072 12.3697 0)
(-11.2113 11.8463 4.3322e-15)
(-10.6705 11.3264 -3.26071e-15)
(-10.072 10.7319 3.15758e-15)
(-9.01474 10.1181 5.0171e-15)
(-6.77941 10.055 4.29473e-19)
(-9.24417 2.5601 1.5075e-15)
(4.52253 -3.46226 0)
(-13.0529 11.8884 5.05822e-16)
(-12.9511 11.8312 -6.44208e-17)
(-12.5132 11.39 0)
(-12.0034 10.9087 4.14498e-16)
(-11.4734 10.3769 7.33786e-15)
(-10.9158 9.70686 -4.94417e-15)
(-9.8378 9.20427 -1.46534e-14)
(-7.12193 10.0695 -8.26279e-15)
(-8.73005 3.49192 1.14178e-14)
(4.92303 -3.44834 1.61399e-15)
(-13.9717 11.122 -1.41933e-14)
(-13.5607 10.9159 5.43708e-15)
(-13.1119 10.6314 0)
(-12.5639 10.2388 -8.47128e-15)
(-11.9868 9.79886 -7.143e-15)
(-11.4199 9.18302 1.16076e-14)
(-10.3816 8.63951 4.98696e-15)
(-7.66154 9.5188 0)
(-9.40933 2.60205 -4.04279e-15)
(4.97071 -2.85098 7.57146e-16)
(-14.2962 9.98769 -4.15717e-16)
(-14.0521 9.93363 5.64627e-15)
(-13.6565 9.7267 0)
(-13.1103 9.40218 1.70757e-14)
(-12.5142 9.05407 -2.81055e-17)
(-11.9519 8.51793 -3.63029e-16)
(-11.0299 7.9548 1.09023e-14)
(-8.20583 9.52773 -8.09488e-15)
(-9.91591 2.1661 -5.32165e-15)
(5.08085 -2.51472 0)
(-14.5894 8.90925 -3.61809e-15)
(-14.505 8.93117 1.19974e-14)
(-14.1573 8.76597 1.03588e-14)
(-13.6034 8.49412 -1.17978e-14)
(-12.9812 8.22644 -2.09146e-14)
(-12.4007 7.77486 -6.16004e-16)
(-11.5936 7.10975 -5.30187e-15)
(-8.6193 9.46225 -4.35725e-15)
(-10.5101 2.09341 -4.12957e-15)
(5.11794 -2.02997 -1.19127e-15)
(-14.9161 7.87782 -1.01801e-14)
(-14.9007 7.93288 5.40481e-15)
(-14.583 7.78151 -4.05356e-15)
(-14.0073 7.557 -1.15128e-14)
(-13.3488 7.37136 9.10947e-15)
(-12.7272 7.02842 -5.25067e-16)
(-11.9989 6.24374 9.36716e-15)
(-8.95914 9.30751 4.46092e-15)
(-11.3584 2.14775 1.50494e-15)
(5.02206 -1.52251 -6.63849e-16)
(-15.2639 6.77327 2.626e-15)
(-15.2798 6.83363 -2.42824e-15)
(-14.9587 6.69829 -1.33759e-16)
(-14.3421 6.5176 1.06e-14)
(-13.6387 6.41459 -1.50342e-14)
(-12.972 6.18892 4.84347e-15)
(-12.287 5.27791 -4.81767e-15)
(-9.39633 8.71664 1.208e-14)
(-12.3348 2.17667 0)
(4.73019 -0.645158 -1.26765e-16)
(-15.6199 5.54189 2.59986e-15)
(-15.6269 5.58891 2.26673e-15)
(-15.2674 5.4859 3.97953e-15)
(-14.5961 5.35388 -6.42952e-15)
(-13.844 5.34979 2.71472e-15)
(-13.127 5.27836 0)
(-12.4411 4.23897 -1.93959e-15)
(-9.62879 8.01032 -7.8355e-15)
(-13.2006 2.22744 1.25423e-17)
(3.97416 0.648186 2.21217e-15)
(-15.9826 4.21134 1.06001e-15)
(-15.9312 4.2196 0)
(-15.5112 4.14337 1.81676e-15)
(-14.7847 4.04646 1.66414e-15)
(-13.9969 4.13167 1.5622e-16)
(-13.2405 4.20698 -1.04316e-15)
(-12.435 3.04924 1.82738e-15)
(-9.75509 7.19993 0)
(-13.9782 2.49549 2.65597e-15)
(2.63676 0.914139 2.39245e-15)
(-16.34 2.75824 1.09199e-15)
(-16.1963 2.61973 -1.9648e-15)
(-15.681 2.44464 -1.49781e-16)
(-14.8837 2.30303 5.4324e-16)
(-14.0577 2.15158 -9.31118e-17)
(-13.2361 2.18854 9.09302e-16)
(-12.0824 1.15159 -1.74136e-15)
(-9.42629 4.58182 -1.62403e-16)
(-15.0135 2.76221 2.35149e-15)
(1.56916 0.458362 -1.81902e-15)
(-16.7674 0.260595 1.51152e-29)
(-16.641 -0.0392372 0)
(-16.1222 -0.326426 0)
(-15.36 -0.570451 -6.95422e-16)
(-14.5488 -0.779699 0)
(-13.6378 -0.895944 0)
(-12.3658 -1.63153 8.22762e-16)
(-9.0456 -0.125898 0)
(-13.2084 -0.806898 0)
(-0.913001 -2.24854 -6.09387e-30)
(-14.2329 13.1842 1.1291e-15)
(-14.7201 11.0364 -7.45623e-15)
(-14.7936 9.87707 7.81437e-15)
(-14.8494 8.80729 -1.14128e-14)
(-15.0305 7.81664 7.4406e-15)
(-15.2723 6.75051 -1.316e-14)
(-15.5487 5.55547 2.8328e-15)
(-15.8584 4.25424 -2.63603e-15)
(-16.2016 2.84086 0)
(-16.6215 0.507064 -2.68553e-16)
(-14.7075 12.3672 1.38965e-14)
(-15.0435 10.3923 0)
(-15.1177 9.45972 7.773e-15)
(-15.0149 8.51262 -3.30648e-15)
(-15.0446 7.60429 -1.18906e-14)
(-15.1672 6.59559 0)
(-15.3461 5.45119 -2.97397e-15)
(-15.5692 4.21189 -1.10092e-15)
(-15.8555 2.88955 6.92837e-16)
(-16.2522 0.79659 -2.86918e-16)
(-14.2977 11.4098 -1.14278e-14)
(-14.8562 9.72355 0)
(-15.1134 8.89611 6.47319e-15)
(-15.0086 8.05723 7.65424e-16)
(-14.9417 7.23644 9.75047e-15)
(-14.9798 6.3178 -3.88761e-15)
(-15.0828 5.25095 0)
(-15.2188 4.09867 3.00829e-15)
(-15.4105 2.87578 -4.57196e-16)
(-15.732 1.08292 3.37389e-16)
(-13.2253 10.5576 5.25202e-15)
(-14.1669 9.197 -2.07595e-15)
(-14.7538 8.32549 4.83201e-15)
(-14.8654 7.56344 -5.26565e-15)
(-14.8322 6.82817 6.09647e-16)
(-14.8096 6.02558 3.42956e-15)
(-14.8396 5.07731 -9.34772e-15)
(-14.8842 4.0284 1.53562e-15)
(-14.9534 2.87141 2.22001e-15)
(-15.1495 1.35491 5.15617e-17)
(-12.0215 9.76775 -7.85492e-15)
(-13.0451 8.71344 6.04843e-15)
(-13.9022 7.81665 0)
(-14.2818 7.05717 2.04118e-15)
(-14.4269 6.35111 2.28869e-15)
(-14.4567 5.60974 -2.70079e-16)
(-14.4694 4.72797 1.58533e-15)
(-14.4554 3.7588 3.49559e-15)
(-14.4358 2.70463 -1.02969e-17)
(-14.5091 1.46616 3.29508e-16)
(-10.8448 9.00131 -3.12699e-15)
(-11.7354 8.22317 4.82996e-15)
(-12.6758 7.33215 1.83514e-15)
(-13.2583 6.5572 -3.11631e-15)
(-13.5738 5.85209 -1.92827e-15)
(-13.7284 5.13271 -2.38142e-16)
(-13.794 4.3102 -3.40809e-15)
(-13.7935 3.4129 1.00293e-15)
(-13.7565 2.44905 3.38849e-16)
(-13.7625 1.35587 -3.58213e-16)
(-9.74851 8.24136 0)
(-10.4317 7.67335 -1.62985e-15)
(-11.2874 6.83935 4.00525e-16)
(-11.9504 6.06758 -7.54475e-16)
(-12.3762 5.34991 1.28777e-15)
(-12.6265 4.63159 0)
(-12.7657 3.85003 7.99679e-16)
(-12.7985 3.01844 1.17431e-15)
(-12.7657 2.15172 -1.07543e-15)
(-12.7426 1.19999 -2.44245e-17)
(-8.71704 7.48427 0)
(-9.22525 7.0527 -4.41825e-16)
(-9.91221 6.30704 2.83176e-15)
(-10.5157 5.5622 -2.11795e-15)
(-10.9591 4.83853 0)
(-11.2508 4.11267 -4.17422e-16)
(-11.419 3.34572 -1.02809e-15)
(-11.4725 2.55111 8.07741e-16)
(-11.4439 1.75829 8.83094e-16)
(-11.3954 0.919255 -3.42587e-16)
(-7.71272 6.68324 -7.46744e-16)
(-8.12944 6.31869 4.39391e-16)
(-8.65337 5.60627 4.31279e-16)
(-9.13058 4.86711 -4.3064e-16)
(-9.50152 4.13335 0)
(-9.75676 3.4004 4.50041e-16)
(-9.90116 2.6581 7.35042e-16)
(-9.93655 1.91147 -8.76156e-16)
(-9.87804 1.19718 -1.91093e-16)
(-9.75091 0.436465 1.77728e-17)
(-6.33843 6.2507 -1.26445e-16)
(-6.47283 6.03222 5.73841e-17)
(-6.74313 5.46478 4.48126e-17)
(-7.0437 4.82542 0)
(-7.32534 4.18886 -2.0123e-17)
(-7.57194 3.56125 0)
(-7.7769 2.93627 -1.12169e-16)
(-7.93227 2.31485 1.58688e-16)
(-8.03106 1.73094 3.38381e-17)
(-8.1092 1.15603 -1.08755e-17)
)
;

boundaryField
{
    right
    {
        type            cyclic;
    }
    left
    {
        type            cyclic;
    }
    outerWall
    {
        type            calculated;
        value           nonuniform List<vector> 
22
(
(-1.55201 41.8305 0)
(-4.64749 41.6006 0)
(-7.71741 41.1419 0)
(-10.7449 40.4569 0)
(-13.7132 39.5492 0)
(-16.6061 38.424 0)
(-19.4075 37.0874 0)
(-22.1022 35.5467 0)
(-24.6752 33.8104 0)
(-27.1124 31.8882 0)
(-28.9573 30.2506 0)
(-30.2506 28.9573 0)
(-31.8882 27.1124 0)
(-33.8104 24.6752 0)
(-35.5467 22.1022 0)
(-37.0874 19.4075 0)
(-38.424 16.6061 0)
(-39.5492 13.7132 0)
(-40.4569 10.7449 0)
(-41.1419 7.71741 0)
(-41.6006 4.64749 0)
(-41.8305 1.55201 0)
)
;
    }
    stirrerWall
    {
        type            calculated;
        value           nonuniform List<vector> 
42
(
(-0.310178 8.3662 0)
(-0.928834 8.32046 0)
(-1.54239 8.22894 0)
(-2.14746 8.09214 0)
(-2.74072 7.91082 0)
(-3.31888 7.68598 0)
(-3.87877 7.41885 0)
(-4.41729 7.11092 0)
(-4.93148 6.76387 0)
(-5.4185 6.37963 0)
(-6.07951 6.64185 0)
(-6.92878 7.56862 0)
(-7.77806 8.49539 0)
(-8.62734 9.42216 0)
(-9.47661 10.3489 0)
(-10.3259 11.2757 0)
(-11.1752 12.2025 0)
(-12.0244 13.1292 0)
(-12.8737 14.056 0)
(-13.723 14.9828 0)
(-14.4723 15.1215 0)
(-15.1215 14.4723 0)
(-14.9828 13.723 0)
(-14.056 12.8737 0)
(-13.1292 12.0244 0)
(-12.2025 11.1752 0)
(-11.2757 10.3259 0)
(-10.3489 9.47661 0)
(-9.42216 8.62734 0)
(-8.49539 7.77806 0)
(-7.56862 6.92878 0)
(-6.64185 6.07951 0)
(-6.37963 5.4185 0)
(-6.76387 4.93148 0)
(-7.11092 4.41729 0)
(-7.41885 3.87877 0)
(-7.68598 3.31888 0)
(-7.91082 2.74072 0)
(-8.09214 2.14746 0)
(-8.22894 1.54239 0)
(-8.32046 0.928834 0)
(-8.3662 0.310178 0)
)
;
    }
    top
    {
        type            empty;
    }
    bottom
    {
        type            empty;
    }
}


// ************************************************************************* //
