/*--------------------------------*- C++ -*----------------------------------*\
  =========                 |
  \\      /  F ield         | OpenFOAM: The Open Source CFD Toolbox
   \\    /   O peration     | Website:  https://openfoam.org
    \\  /    A nd           | Version:  10
     \\/     M anipulation  |
\*---------------------------------------------------------------------------*/
FoamFile
{
    format      ascii;
    class       volVectorField;
    location    "1800";
    object      Urel;
}
// * * * * * * * * * * * * * * * * * * * * * * * * * * * * * * * * * * * * * //

dimensions      [0 1 -1 0 0 0 0];

internalField   nonuniform List<vector> 
420
(
(0.956353 -0.899652 1.2043e-17)
(-0.0476437 -0.71176 -7.96175e-17)
(0.378934 -0.196562 -3.01598e-16)
(0.538515 -0.0478207 7.89731e-17)
(0.541045 -0.207975 -4.80094e-16)
(0.44313 -0.591001 0)
(0.0770258 -1.07753 0)
(-0.387124 -1.66293 2.95716e-16)
(-0.814874 -2.36857 -3.21045e-16)
(-1.13173 -3.26319 0)
(0.979124 -0.898112 3.67067e-17)
(0.0480507 -0.772004 -2.15292e-16)
(0.145875 -0.227134 1.00551e-15)
(0.199597 -0.0359461 -1.20258e-15)
(0.106539 -0.107675 3.91923e-16)
(-0.0833818 -0.365529 6.11506e-18)
(-0.493666 -0.753537 2.1681e-15)
(-0.902863 -1.27047 -5.07823e-16)
(-1.23287 -1.95169 7.25616e-16)
(-1.37266 -2.92279 0)
(0.866046 -0.843074 2.26814e-16)
(-0.0349538 -0.771219 -1.17565e-15)
(-0.093872 -0.2749 1.01436e-15)
(-0.116467 -0.0518554 1.35349e-15)
(-0.247931 -0.0254749 -9.29505e-16)
(-0.435442 -0.148335 3.99586e-15)
(-0.792523 -0.428835 1.37509e-15)
(-1.10682 -0.882928 3.04082e-15)
(-1.27093 -1.56346 -1.27982e-15)
(-1.22916 -2.6619 -2.88752e-15)
(0.807768 -0.797244 -1.21164e-16)
(-0.136566 -0.693015 9.87762e-16)
(-0.2503 -0.267998 -1.34926e-15)
(-0.327952 -0.0187877 9.59387e-16)
(-0.472287 0.0915266 -1.95249e-15)
(-0.634131 0.0816032 1.7267e-15)
(-0.924325 -0.11228 -8.85757e-15)
(-1.12698 -0.529033 0)
(-1.13762 -1.24541 -2.9948e-15)
(-0.973139 -2.44427 2.70798e-15)
(0.778836 -0.692947 0)
(-0.231037 -0.587201 6.25832e-16)
(-0.350897 -0.242231 -6.7331e-16)
(-0.46914 0.0138253 0)
(-0.609206 0.188473 -2.29756e-16)
(-0.740609 0.2635 -2.52976e-16)
(-0.921328 0.153935 3.30911e-15)
(-1.03421 -0.225691 -3.34682e-15)
(-0.936017 -0.962241 0)
(-0.644395 -2.21868 -1.1365e-14)
(0.743561 -0.54144 5.96843e-17)
(-0.328671 -0.469743 0)
(-0.444098 -0.207655 0)
(-0.540706 0.0335653 2.02591e-15)
(-0.636096 0.250296 -2.69918e-15)
(-0.735876 0.393282 3.00133e-15)
(-0.827024 0.374818 5.46962e-16)
(-0.87004 0.0577598 7.71215e-15)
(-0.666057 -0.659998 -9.47908e-15)
(-0.280572 -1.95339 5.80362e-15)
(0.695938 -0.351872 0)
(-0.399544 -0.358444 -6.78869e-16)
(-0.495321 -0.175796 -3.42863e-15)
(-0.561937 0.0447866 -1.05839e-15)
(-0.61103 0.282531 -5.01985e-15)
(-0.652533 0.481685 2.9215e-15)
(-0.649205 0.566169 -7.06171e-15)
(-0.581054 0.378985 4.81308e-16)
(-0.327625 -0.260476 -3.14679e-15)
(0.107458 -1.57514 -9.38812e-15)
(0.632245 -0.14621 -1.34686e-16)
(-0.41893 -0.25258 7.19416e-16)
(-0.441516 -0.126252 4.25776e-15)
(-0.440118 0.074682 3.77477e-16)
(-0.414253 0.320635 2.60548e-15)
(-0.369643 0.5704 0)
(-0.305262 0.772441 6.86384e-15)
(-0.156527 0.796618 7.7328e-15)
(0.136624 0.36117 8.76295e-15)
(0.515977 -0.941944 7.32983e-15)
(0.556303 0.022858 -1.39424e-16)
(-0.282214 -0.209845 7.52939e-16)
(-0.152873 -0.144104 -7.78527e-16)
(-0.0307076 -0.00825391 -2.33911e-15)
(0.118527 0.184254 7.75285e-15)
(0.296342 0.411654 9.78339e-15)
(0.505233 0.641865 -3.49672e-15)
(0.723206 0.820366 0)
(0.973452 0.802451 0)
(0.977923 -0.169318 -8.68988e-15)
(0.285041 0.143343 6.78522e-17)
(-0.414942 -0.120107 8.5341e-16)
(-0.313297 -0.0565561 0)
(-0.315108 0.045737 0)
(-0.308455 0.176316 -3.51667e-15)
(-0.262904 0.355302 1.62891e-17)
(-0.155811 0.59024 6.34151e-15)
(0.0531901 0.852559 -1.40281e-14)
(0.375188 0.988722 1.65152e-14)
(0.710121 0.381088 1.34141e-15)
(-1.27717 -4.41445 0)
(-1.31824 -5.9531 0)
(-1.29405 -8.04113 0)
(-1.2754 -10.4722 -7.2218e-16)
(-1.25844 -13.1002 0)
(-1.13425 -16.016 0)
(-1.54358 -19.5928 8.71884e-16)
(0.167016 -25.0764 0)
(-1.62052 -24.6698 0)
(0.316183 -40.8898 0)
(-1.29213 -4.21484 1.23162e-15)
(-1.08825 -5.89919 2.26951e-15)
(-0.824597 -8.04828 1.86612e-16)
(-0.547703 -10.4442 8.93563e-16)
(-0.256251 -13.0177 1.19746e-16)
(0.124638 -15.9049 1.18313e-15)
(0.471534 -19.58 1.00814e-16)
(2.16742 -24.8817 -1.66401e-17)
(0.498965 -25.7031 -2.38066e-15)
(3.53041 -41.2141 -3.55365e-16)
(-0.984114 -4.10995 1.10259e-15)
(-0.61605 -5.90002 0)
(-0.166247 -8.04709 -1.83983e-15)
(0.288666 -10.3686 -1.68803e-15)
(0.794085 -12.8826 4.91002e-15)
(1.37349 -15.7649 -1.06474e-15)
(2.19271 -19.4917 1.80804e-15)
(4.00832 -24.4842 0)
(2.15456 -26.285 2.50019e-15)
(7.56528 -41.4735 -1.04413e-17)
(-0.572476 -3.99903 2.45128e-15)
(-0.0495855 -5.85465 6.41922e-15)
(0.560686 -7.96909 -6.8986e-15)
(1.16844 -10.2094 2.77751e-15)
(1.86345 -12.6652 5.87813e-17)
(2.65373 -15.5307 0)
(3.86279 -19.2132 -1.79082e-15)
(5.91019 -23.8917 -3.01724e-15)
(4.05818 -26.7642 -2.41925e-15)
(11.1288 -41.3238 1.79929e-15)
(-0.107916 -3.85841 2.18267e-15)
(0.569778 -5.75035 -2.03266e-15)
(1.32633 -7.80736 7.16961e-15)
(2.06894 -9.96757 -2.91648e-15)
(2.93635 -12.3687 2.67844e-15)
(3.92926 -15.2035 -4.20058e-15)
(5.45395 -18.7804 3.89065e-15)
(7.76292 -23.0257 3.22357e-15)
(6.10031 -27.022 0)
(14.4671 -40.8994 -3.53859e-15)
(0.384555 -3.6658 2.76762e-15)
(1.22307 -5.5677 -1.25475e-14)
(2.11209 -7.54526 -3.8764e-15)
(2.97735 -9.62986 9.3543e-15)
(4.01121 -11.9727 8.4832e-15)
(5.19877 -14.7557 4.92061e-16)
(7.01292 -18.1946 2.98356e-16)
(9.601 -22.1059 -2.84226e-15)
(8.3127 -27.0088 -1.26134e-15)
(17.7506 -40.1759 3.91383e-15)
(0.89547 -3.39582 2.7962e-15)
(1.90114 -5.29393 4.52342e-15)
(2.9065 -7.18414 0)
(3.88195 -9.19943 -3.09458e-15)
(5.07553 -11.4761 -5.14695e-15)
(6.45089 -14.184 5.31383e-16)
(8.51441 -17.4644 -1.18636e-14)
(11.4672 -21.0738 -3.35221e-15)
(10.4817 -26.7282 3.97416e-15)
(20.9705 -39.0949 -2.21324e-15)
(1.41257 -3.00442 1.11878e-14)
(2.57265 -4.90817 -4.07007e-15)
(3.68461 -6.7134 0)
(4.76207 -8.66662 -2.62922e-16)
(6.09948 -10.8664 2.26058e-14)
(7.64528 -13.4756 -9.59085e-15)
(9.91543 -16.6003 -9.00741e-15)
(13.2882 -19.9474 6.83512e-15)
(12.4872 -26.1287 -5.18095e-15)
(24.1074 -37.6855 0)
(1.95531 -2.39853 3.36208e-16)
(3.15257 -4.37823 -4.33434e-15)
(4.42038 -6.10064 0)
(5.62304 -8.00226 7.41802e-15)
(7.09642 -10.1178 -1.73557e-14)
(8.79874 -12.6156 1.01596e-14)
(11.2711 -15.5781 4.28877e-15)
(15.0808 -18.6809 0)
(14.3822 -25.2909 -2.33083e-16)
(27.093 -35.9184 1.6366e-15)
(2.70986 -1.41204 4.1776e-16)
(3.60583 -3.84604 9.12384e-17)
(5.1262 -5.47018 0)
(6.52484 -7.28354 -1.48569e-14)
(8.13066 -9.26136 5.41166e-15)
(9.91861 -11.585 -5.91676e-15)
(12.4956 -14.3708 4.74925e-15)
(16.7134 -17.2886 -1.64089e-16)
(16.3689 -24.6891 -7.49065e-16)
(29.7968 -33.707 -1.56848e-15)
(4.07954 -0.516974 3.38161e-15)
(3.97177 -3.43134 -5.87911e-15)
(5.71961 -4.828 0)
(7.30533 -6.53053 0)
(9.07296 -8.35329 0)
(11.0218 -10.4255 -3.07037e-15)
(13.5878 -12.8829 1.20281e-14)
(17.4501 -15.5032 0)
(16.7099 -24.5586 0)
(31.9858 -32.2505 0)
(4.3478 -0.600875 -3.34638e-15)
(4.19645 -3.10671 -6.14838e-15)
(5.91481 -4.49689 0)
(7.59607 -6.15518 4.3322e-15)
(9.44933 -7.93161 -3.26071e-15)
(11.501 -9.91742 3.15758e-15)
(14.1671 -12.0715 5.0171e-15)
(18.1837 -13.8402 4.29473e-19)
(17.6912 -23.2233 1.5075e-15)
(33.6416 -31.3364 0)
(3.38376 -2.08243 5.05822e-16)
(4.50428 -3.00609 -6.44208e-17)
(6.07016 -4.40659 0)
(7.82883 -5.95006 4.14498e-16)
(9.74156 -7.65792 7.33786e-15)
(11.8302 -9.63001 -4.94417e-15)
(14.6032 -11.5742 -1.46534e-14)
(19.1958 -12.3052 -8.26279e-15)
(19.6656 -20.65 1.14178e-14)
(35.6193 -29.5469 1.61399e-15)
(3.4544 -1.59243 -1.41933e-14)
(4.94566 -2.58709 5.43708e-15)
(6.59047 -3.74473 0)
(8.46279 -5.10414 -8.47128e-15)
(10.5061 -6.6144 -7.143e-15)
(12.6964 -8.41533 1.16076e-14)
(15.5321 -10.2709 4.98696e-15)
(20.2422 -10.8444 0)
(20.6977 -19.3696 -4.04279e-15)
(37.5172 -26.6035 7.57146e-16)
(4.02361 -1.40055 -4.15717e-16)
(5.40355 -2.16102 5.64627e-15)
(7.05669 -3.15006 0)
(8.9953 -4.34054 1.70757e-14)
(11.1329 -5.64743 -2.81055e-17)
(13.4022 -7.24512 -3.63029e-16)
(16.214 -8.98358 1.09023e-14)
(21.1304 -8.71196 -8.09488e-15)
(21.7369 -17.5144 -5.32165e-15)
(39.2986 -23.7904 0)
(4.52341 -1.09027 -3.61809e-15)
(5.793 -1.68866 1.19974e-14)
(7.4528 -2.54064 1.03588e-14)
(9.45947 -3.57289 -1.17978e-14)
(11.6903 -4.68249 -2.09146e-14)
(14.0517 -6.06623 -6.16004e-16)
(16.8306 -7.7634 -5.30187e-15)
(21.9881 -6.55359 -4.35725e-15)
(22.5144 -15.1876 -4.12957e-15)
(40.8187 -20.7117 -1.19127e-15)
(4.88481 -0.678078 -1.01801e-14)
(6.12806 -1.15379 5.40481e-15)
(7.8053 -1.89283 -4.05356e-15)
(9.88617 -2.76799 -1.15128e-14)
(12.2112 -3.67404 9.10947e-15)
(14.6781 -4.81459 -5.25067e-16)
(17.4493 -6.48239 9.36716e-15)
(22.751 -4.39638 4.46092e-15)
(22.8561 -12.6387 1.50494e-15)
(42.0094 -17.5076 -6.63849e-16)
(5.11631 -0.292017 2.626e-15)
(6.36423 -0.669971 -2.42824e-15)
(8.08467 -1.29061 -1.33759e-16)
(10.2507 -2.00863 1.06e-14)
(12.6695 -2.70655 -1.50342e-14)
(15.2355 -3.59091 4.84347e-15)
(18.0234 -5.2312 -4.81767e-15)
(23.2423 -2.59992 1.208e-14)
(22.8816 -10.0339 0)
(42.8007 -13.8455 -1.26765e-16)
(5.22761 0.00600901 2.59986e-15)
(6.51356 -0.290411 2.26673e-15)
(8.3045 -0.773683 3.97953e-15)
(10.5607 -1.32672 -6.42952e-15)
(13.0676 -1.79696 2.71472e-15)
(15.7276 -2.3845 0)
(18.5646 -3.99532 -1.93959e-15)
(23.7587 -0.856657 -7.8355e-15)
(22.8239 -7.34003 1.25423e-17)
(42.9183 -9.69485 2.21217e-15)
(5.21776 0.235275 1.06001e-15)
(6.58389 -0.00315262 0)
(8.45968 -0.352501 1.81676e-15)
(10.7979 -0.751801 1.66414e-15)
(13.3703 -1.0014 1.5622e-16)
(16.1026 -1.29679 -1.04316e-15)
(19.0957 -2.86496 1.82738e-15)
(24.1977 0.831311 0)
(22.6563 -4.37626 2.65597e-15)
(42.2404 -6.51466 2.39245e-15)
(5.09663 0.363819 1.09199e-15)
(6.56988 0.0767568 -1.9648e-15)
(8.55714 -0.262804 -1.49781e-16)
(10.9842 -0.58652 5.4324e-16)
(13.6147 -0.939593 -9.31118e-17)
(16.4341 -1.12587 9.09302e-16)
(19.7998 -2.40999 -1.74136e-15)
(24.905 0.746586 -1.62403e-16)
(22.0294 -1.37601 2.35149e-15)
(41.6143 -4.01532 -1.81902e-15)
(4.7879 -0.539013 1.51152e-29)
(6.25105 -0.888453 0)
(8.24992 -1.23057 0)
(10.6509 -1.53541 -6.95422e-16)
(13.2765 -1.81199 0)
(16.1964 -2.00278 0)
(19.6926 -2.82091 8.22762e-16)
(25.4754 -1.40666 0)
(24.0392 -2.18884 0)
(39.3534 -3.7425 -6.09387e-30)
(1.24237 0.0309877 1.1291e-15)
(1.68667 -0.933963 -7.45623e-15)
(2.45454 -0.84469 7.81437e-15)
(3.14537 -0.607014 -1.14128e-14)
(3.61203 -0.238516 7.4406e-15)
(3.91551 0.0987271 -1.316e-14)
(4.07908 0.343593 2.8328e-15)
(4.10161 0.510887 -2.63603e-15)
(3.98083 0.586587 0)
(3.67261 -0.245737 -2.68553e-16)
(-0.188827 0.0274509 1.38965e-14)
(0.349129 -0.837762 0)
(1.06428 -0.598996 7.773e-15)
(1.86758 -0.319505 -3.30648e-15)
(2.44561 0.047247 -1.18906e-14)
(2.83466 0.355134 0)
(3.06853 0.561599 -2.97397e-15)
(3.15703 0.700008 -1.10092e-15)
(3.07946 0.774679 6.92837e-16)
(2.78745 0.0903396 -2.86918e-16)
(-0.735574 -0.116554 -1.14278e-14)
(-0.477664 -0.76627 0)
(0.00245116 -0.499592 6.47319e-15)
(0.761598 -0.192753 7.65424e-16)
(1.39627 0.177493 9.75047e-15)
(1.83608 0.488657 -3.88761e-15)
(2.11866 0.683621 0)
(2.27368 0.818256 3.00829e-15)
(2.27696 0.900298 -4.57196e-16)
(2.05324 0.423216 3.37389e-16)
(-0.619678 -0.155323 5.25202e-15)
(-0.802455 -0.552626 -2.07595e-15)
(-0.703881 -0.407249 4.83201e-15)
(-0.207293 -0.10443 -5.26565e-15)
(0.353583 0.267277 6.09647e-16)
(0.820398 0.607713 3.42956e-15)
(1.14874 0.832233 -9.34772e-15)
(1.37473 0.979433 1.53562e-15)
(1.48664 1.03531 2.22001e-15)
(1.3814 0.741754 5.15617e-17)
(-0.372269 -0.131887 -7.85492e-15)
(-0.69457 -0.296037 6.04843e-15)
(-0.918237 -0.253166 0)
(-0.735782 -0.028639 2.04118e-15)
(-0.393204 0.288243 2.28869e-15)
(-0.0125257 0.603132 -2.70079e-16)
(0.305983 0.805126 1.58533e-15)
(0.569999 0.941273 3.49559e-15)
(0.756993 1.0079 -1.02969e-17)
(0.767551 0.89955 3.29508e-16)
(-0.151954 -0.0850881 -3.12699e-15)
(-0.398773 -0.0462301 4.82996e-15)
(-0.757669 -0.0748038 1.83514e-15)
(-0.824255 0.0534122 -3.11631e-15)
(-0.692133 0.287209 -1.92827e-15)
(-0.469833 0.537311 -2.38142e-16)
(-0.231508 0.709549 -3.40809e-15)
(-0.00158994 0.826787 1.00293e-15)
(0.189038 0.891679 3.38849e-16)
(0.260083 0.835793 -3.58213e-16)
(-0.0118435 -0.0319018 0)
(-0.10878 0.143938 -1.62985e-15)
(-0.434998 0.0951803 4.00525e-16)
(-0.628183 0.145733 -7.54475e-16)
(-0.646354 0.282947 1.28777e-15)
(-0.553473 0.447359 0)
(-0.415964 0.571543 7.99679e-16)
(-0.239816 0.663706 1.17431e-15)
(-0.0671854 0.733687 -1.07543e-15)
(0.02596 0.726448 -2.44245e-17)
(0.0635757 0.0240204 0)
(0.0840682 0.263155 -4.41825e-16)
(-0.125352 0.225541 2.83176e-15)
(-0.305104 0.2222 -2.11795e-15)
(-0.380928 0.269403 0)
(-0.363199 0.339544 -4.17422e-16)
(-0.281728 0.389333 -1.02809e-15)
(-0.146873 0.427728 8.07741e-16)
(0.00782172 0.479579 8.83094e-16)
(0.119433 0.492239 -3.42587e-16)
(0.112053 0.035819 -7.46744e-16)
(0.16652 0.268846 4.39391e-16)
(0.0681778 0.1873 4.31279e-16)
(-0.0313949 0.108838 -4.3064e-16)
(-0.0747366 0.0619533 0)
(-0.054206 0.038277 4.50041e-16)
(0.0238055 0.0237544 7.35042e-16)
(0.156255 0.0193826 -8.76156e-16)
(0.327094 0.0577529 -1.91093e-16)
(0.510439 0.0559644 1.77728e-17)
(0.530794 0.41586 -1.26445e-16)
(0.810092 0.721853 5.73841e-17)
(0.913449 0.708131 4.48126e-17)
(0.944418 0.648681 0)
(0.950397 0.61503 -2.0123e-17)
(0.94589 0.610007 0)
(0.936177 0.623852 -1.12169e-16)
(0.928114 0.653988 1.58688e-16)
(0.927896 0.730759 3.38381e-17)
(0.899046 0.822031 -1.08755e-17)
)
;

boundaryField
{
    right
    {
        type            cyclic;
    }
    left
    {
        type            cyclic;
    }
    outerWall
    {
        type            noSlip;
    }
    stirrerWall
    {
        type            noSlip;
    }
    top
    {
        type            empty;
    }
    bottom
    {
        type            empty;
    }
}


// ************************************************************************* //
