/*--------------------------------*- C++ -*----------------------------------*\
  =========                 |
  \\      /  F ield         | OpenFOAM: The Open Source CFD Toolbox
   \\    /   O peration     | Website:  https://openfoam.org
    \\  /    A nd           | Version:  10
     \\/     M anipulation  |
\*---------------------------------------------------------------------------*/
FoamFile
{
    format      ascii;
    class       volScalarField;
    location    "39000";
    object      yPlus;
}
// * * * * * * * * * * * * * * * * * * * * * * * * * * * * * * * * * * * * * //

dimensions      [0 0 0 0 0 0 0];

internalField   uniform 0;

boundaryField
{
    right
    {
        type            cyclic;
    }
    left
    {
        type            cyclic;
    }
    outerWall
    {
        type            calculated;
        value           nonuniform List<scalar> 
200
(
20.8891
20.8838
20.8843
20.8853
20.8868
20.8889
20.8915
20.894
20.8966
20.899
20.9013
20.9035
20.9055
20.9073
20.909
20.9105
20.9119
20.9132
20.9143
20.9154
20.9164
20.9173
20.9181
20.9189
20.9196
20.9203
20.921
20.9216
20.9222
20.9228
20.9234
20.924
20.9245
20.9251
20.9256
20.9261
20.9266
20.9272
20.9277
20.9282
20.9287
20.9291
20.9296
20.9301
20.9306
20.9311
20.9315
20.932
20.9324
20.9329
20.9333
20.9337
20.9341
20.9345
20.9349
20.9353
20.9356
20.9359
20.9362
20.9365
20.9368
20.937
20.9372
20.9374
20.9375
20.9376
20.9377
20.9377
20.9376
20.9376
20.9372
20.9351
20.9321
20.929
20.9249
20.9209
20.9207
20.9221
20.9237
20.9239
20.8781
20.882
20.8911
20.9004
20.9095
20.9186
20.9275
20.9359
20.9437
20.9509
20.9574
20.9634
20.9688
20.9736
20.9778
20.9814
20.9846
20.9872
20.9894
20.991
20.9923
20.993
20.9934
20.9933
20.9928
20.9918
20.9905
20.9887
20.9865
20.9838
20.9806
20.977
20.9728
20.9679
20.9623
20.9559
20.9483
20.9391
20.9275
20.9092
20.9254
20.9293
20.9313
20.9325
20.9334
20.9315
20.928
20.925
20.9233
20.9228
20.9228
20.9244
20.9263
20.9281
20.9296
20.9309
20.9319
20.9327
20.9333
20.9339
20.9343
20.9346
20.9349
20.9351
20.9353
20.9354
20.9355
20.9356
20.9356
20.9356
20.9356
20.9356
20.9356
20.9355
20.9354
20.9353
20.9352
20.9351
20.935
20.9348
20.9347
20.9345
20.9343
20.9341
20.9339
20.9337
20.9335
20.9333
20.933
20.9327
20.9325
20.9322
20.9319
20.9316
20.9312
20.9309
20.9305
20.9301
20.9297
20.9293
20.9288
20.9284
20.9278
20.9273
20.9267
20.9261
20.9254
20.9246
20.9238
20.9229
20.9219
20.9207
20.9193
20.9178
20.9159
20.9136
20.9106
20.9065
20.9008
20.8887
)
;
    }
    stirrerWall
    {
        type            calculated;
        value           nonuniform List<scalar> 0();
    }
    top
    {
        type            empty;
    }
    bottom
    {
        type            empty;
    }
    procBoundary2to3
    {
        type            processor;
        value           uniform 0;
    }
}


// ************************************************************************* //
