/*--------------------------------*- C++ -*----------------------------------*\
  =========                 |
  \\      /  F ield         | OpenFOAM: The Open Source CFD Toolbox
   \\    /   O peration     | Website:  https://openfoam.org
    \\  /    A nd           | Version:  10
     \\/     M anipulation  |
\*---------------------------------------------------------------------------*/
FoamFile
{
    format      ascii;
    class       volVectorField;
    location    "70000";
    object      Urel;
}
// * * * * * * * * * * * * * * * * * * * * * * * * * * * * * * * * * * * * * //

dimensions      [0 1 -1 0 0 0 0];

internalField   nonuniform List<vector> 
17808
(
(4.46456 -4.89572 -4.54942e-18)
(4.17538 -4.57312 -5.15796e-19)
(4.04348 -4.4278 3.33101e-18)
(3.95108 -4.33057 3.62591e-18)
(3.88184 -4.25485 -8.57397e-19)
(3.82547 -4.19374 -6.11371e-18)
(3.77812 -4.14206 3.09537e-18)
(3.73708 -4.09718 -3.3121e-18)
(3.70076 -4.05736 5.60869e-18)
(3.66807 -4.02146 -4.26087e-22)
(3.63826 -3.98868 -2.55915e-18)
(3.61079 -3.95843 1.83751e-18)
(3.58525 -3.93027 -2.64539e-18)
(3.56131 -3.90388 2.82341e-19)
(3.53876 -3.87898 0)
(3.51737 -3.85537 2.61753e-19)
(3.49701 -3.83287 -5.051e-19)
(3.47754 -3.81135 -4.87848e-19)
(3.45885 -3.79069 -2.1219e-18)
(3.44086 -3.77079 1.51346e-21)
(3.42348 -3.75157 1.76992e-18)
(3.40665 -3.73295 0)
(3.39032 -3.71488 1.66385e-18)
(3.37443 -3.6973 -1.61743e-18)
(3.35895 -3.68016 1.57023e-18)
(3.34383 -3.66343 -1.91057e-18)
(3.32904 -3.64706 -3.71605e-19)
(3.31455 -3.63103 0)
(3.30034 -3.6153 -3.52459e-19)
(3.28638 -3.59984 -3.43428e-19)
(3.27264 -3.58464 1.3385e-18)
(3.25911 -3.56968 -9.80665e-19)
(3.24578 -3.55492 0)
(3.23262 -3.54037 0)
(3.21962 -3.52599 3.03673e-19)
(3.20676 -3.51177 1.48212e-18)
(3.19404 -3.4977 -8.70177e-19)
(3.18143 -3.48377 0)
(3.16894 -3.46996 -1.10595e-18)
(3.15655 -3.45627 1.83976e-21)
(3.14424 -3.44268 1.58778e-18)
(3.13202 -3.42918 1.55075e-18)
(3.11987 -3.41577 -1.01268e-18)
(3.10779 -3.40243 4.94758e-19)
(3.09576 -3.38916 0)
(3.08379 -3.37595 -4.73469e-19)
(3.07185 -3.36279 1.38878e-18)
(3.05996 -3.34967 -1.81388e-18)
(3.04809 -3.33659 4.43474e-19)
(3.03625 -3.32354 0)
(3.02443 -3.31052 0)
(3.01263 -3.29752 1.24531e-18)
(3.00083 -3.28453 -4.07446e-19)
(2.98904 -3.27155 0)
(2.97725 -3.25857 3.89086e-19)
(2.96545 -3.24559 3.80669e-19)
(2.95364 -3.23261 -3.72393e-19)
(2.94182 -3.21961 -3.64255e-19)
(2.92998 -3.20659 -3.5628e-19)
(2.91811 -3.19355 6.95917e-19)
(2.90622 -3.18049 -9.7364e-22)
(2.8943 -3.16739 6.65383e-19)
(2.88234 -3.15427 -6.52482e-19)
(2.87035 -3.1411 -6.36872e-19)
(2.85831 -3.12789 -1.24396e-18)
(2.84623 -3.11463 6.08311e-19)
(2.83409 -3.10132 -1.18979e-18)
(2.82191 -3.08795 1.1614e-18)
(2.80966 -3.07452 0)
(2.79736 -3.06103 5.53967e-19)
(2.78499 -3.04748 1.08081e-18)
(2.77255 -3.03385 -5.3005e-19)
(2.76005 -3.02014 -5.16418e-19)
(2.74746 -3.00636 5.02993e-19)
(2.7348 -2.99249 -9.92476e-22)
(2.72206 -2.97854 -1.43613e-18)
(2.70923 -2.96449 9.34724e-19)
(2.69631 -2.95035 0)
(2.6833 -2.93611 -4.44748e-19)
(2.67019 -2.92176 -1.29845e-18)
(2.65698 -2.90731 0)
(2.64367 -2.89275 0)
(2.63025 -2.87807 7.99643e-19)
(2.61672 -2.86327 0)
(2.60308 -2.84834 7.5796e-19)
(2.58931 -2.83329 0)
(2.57543 -2.81811 -1.04184e-23)
(2.56141 -2.80279 0)
(2.54727 -2.78732 0)
(2.53299 -2.77172 6.6024e-19)
(2.51857 -2.75596 1.28362e-18)
(2.504 -2.74004 1.24748e-18)
(4.4496 -4.89632 -5.11318e-19)
(4.16534 -4.57391 5.05177e-19)
(4.03285 -4.43194 0)
(3.94214 -4.33473 0)
(3.8736 -4.25958 8.5839e-19)
(3.81752 -4.1991 -4.05974e-19)
(3.77031 -4.14794 3.08034e-18)
(3.7293 -4.1035 -2.56011e-18)
(3.69297 -4.06404 -3.48211e-19)
(3.66023 -4.02844 2.65456e-18)
(3.63037 -3.99589 -2.85424e-18)
(3.60285 -3.96582 6.07129e-19)
(3.57725 -3.93781 2.91068e-19)
(3.55327 -3.91152 -2.79563e-19)
(3.53067 -3.88671 0)
(3.50926 -3.86316 -2.59044e-19)
(3.48887 -3.84072 2.49857e-19)
(3.46937 -3.81923 2.41287e-19)
(3.45067 -3.7986 0)
(3.43266 -3.77871 0)
(3.41527 -3.7595 0)
(3.39844 -3.74089 -4.24041e-19)
(3.3821 -3.72281 0)
(3.36621 -3.70523 -3.99621e-19)
(3.35073 -3.68808 0)
(3.33561 -3.67133 3.77691e-19)
(3.32082 -3.65495 3.67586e-19)
(3.30634 -3.6389 0)
(3.29213 -3.62315 -1.39365e-18)
(3.27818 -3.60768 3.41522e-19)
(3.26445 -3.59246 9.94804e-19)
(3.25094 -3.57747 -3.23192e-19)
(3.23761 -3.56269 1.26078e-18)
(3.22447 -3.54811 -2.77123e-18)
(3.21148 -3.5337 9.02949e-19)
(3.19864 -3.51946 -2.9372e-19)
(3.18593 -3.50537 -5.74029e-19)
(3.17334 -3.49141 0)
(3.16087 -3.47758 0)
(3.14849 -3.46386 1.33974e-18)
(3.13621 -3.45024 -1.0498e-18)
(3.124 -3.43672 -4.80423e-23)
(3.11187 -3.42328 -5.01848e-19)
(3.09981 -3.40991 -9.81959e-19)
(3.0878 -3.39661 -4.79501e-19)
(3.07585 -3.38337 1.41134e-18)
(3.06394 -3.37018 -9.19252e-19)
(3.05206 -3.35703 1.35188e-18)
(3.04022 -3.34393 -1.32126e-18)
(3.0284 -3.33085 8.63741e-19)
(3.01661 -3.3178 -8.43552e-19)
(3.00483 -3.30477 8.27573e-19)
(2.99305 -3.29175 -4.04561e-19)
(2.98128 -3.27874 0)
(2.96952 -3.26573 -3.87562e-19)
(2.95774 -3.25272 0)
(2.94596 -3.2397 0)
(2.93416 -3.22668 3.6326e-19)
(2.92235 -3.21363 9.82615e-22)
(2.91051 -3.20056 6.96529e-19)
(2.89865 -3.18747 -6.80463e-19)
(2.88675 -3.17434 6.65643e-19)
(2.87483 -3.16118 0)
(2.86286 -3.14798 0)
(2.85085 -3.13474 1.24428e-18)
(2.8388 -3.12145 -6.08772e-19)
(2.82669 -3.10811 1.19123e-18)
(2.81453 -3.09471 -1.00446e-21)
(2.80232 -3.08126 -5.69441e-19)
(2.79005 -3.06774 0)
(2.77771 -3.05415 -1.08421e-18)
(2.7653 -3.04049 2.11992e-18)
(2.75283 -3.02675 -1.99774e-21)
(2.74027 -3.01294 -1.99792e-21)
(2.72764 -2.99904 -9.93869e-22)
(2.71493 -2.98505 4.8042e-19)
(2.70214 -2.97097 -9.40493e-19)
(2.68925 -2.9568 4.58261e-19)
(2.67627 -2.94252 8.92926e-19)
(2.6632 -2.92815 -4.36834e-19)
(2.65002 -2.91366 4.23903e-19)
(2.63675 -2.89906 -1.2434e-18)
(2.62336 -2.88435 1.20967e-18)
(2.60987 -2.86952 -1.97949e-21)
(2.59626 -2.85456 -7.65847e-19)
(2.58253 -2.83948 3.7386e-19)
(2.56868 -2.82426 -1.45201e-18)
(2.5547 -2.8089 0)
(2.54059 -2.7934 0)
(2.52635 -2.77776 -1.33779e-18)
(2.51196 -2.76197 -9.74867e-19)
(2.49744 -2.74602 -6.30638e-19)
(4.4355 -4.90288 1.02326e-18)
(4.15145 -4.58066 8.07948e-18)
(4.01885 -4.43942 -1.53115e-17)
(3.92978 -4.34125 7.24739e-18)
(3.86185 -4.26631 -4.27369e-19)
(3.80642 -4.20592 0)
(3.75977 -4.15486 0)
(3.7192 -4.11054 0)
(3.68321 -4.07122 -5.1809e-18)
(3.65075 -4.03575 5.26778e-18)
(3.62109 -4.00332 3.14163e-19)
(3.59372 -3.97337 1.42494e-22)
(3.56824 -3.94545 4.60859e-18)
(3.54436 -3.91926 -9.12795e-18)
(3.52183 -3.89452 4.25687e-18)
(3.50047 -3.87103 3.84031e-18)
(3.48012 -3.84863 -3.70591e-18)
(3.46066 -3.82719 0)
(3.44198 -3.80658 0)
(3.424 -3.78672 0)
(3.40663 -3.76752 0)
(3.38981 -3.74892 8.37788e-19)
(3.37349 -3.73085 0)
(3.35762 -3.71327 3.94744e-19)
(3.34215 -3.69612 0)
(3.32705 -3.67936 -3.73079e-19)
(3.31228 -3.66297 0)
(3.29781 -3.64691 1.41308e-18)
(3.28362 -3.63115 -1.3783e-18)
(3.26968 -3.61566 3.3565e-19)
(3.25597 -3.60042 -3.27317e-19)
(3.24247 -3.58541 1.59586e-18)
(3.22916 -3.57062 -1.71971e-21)
(3.21603 -3.55601 -9.1374e-19)
(3.20306 -3.54159 8.9074e-19)
(3.19023 -3.52732 -8.7194e-19)
(3.17754 -3.51321 2.83773e-19)
(3.16498 -3.49922 0)
(3.15252 -3.48537 0)
(3.14016 -3.47162 -1.59048e-18)
(3.1279 -3.45798 1.80494e-21)
(3.11572 -3.44443 1.7761e-21)
(3.10361 -3.43096 1.49095e-18)
(3.09157 -3.41756 -9.7116e-19)
(3.07958 -3.40424 4.76611e-19)
(3.06765 -3.39097 0)
(3.05576 -3.37775 0)
(3.04391 -3.36458 0)
(3.03209 -3.35144 9.4338e-22)
(3.0203 -3.33834 4.28653e-19)
(3.00853 -3.32526 0)
(2.99677 -3.3122 4.09987e-19)
(2.98502 -3.29915 -8.01888e-19)
(2.97328 -3.28611 1.18001e-18)
(2.96154 -3.27307 7.68609e-19)
(2.94979 -3.26003 -7.54378e-19)
(2.93804 -3.24698 -7.36595e-19)
(2.92627 -3.23393 3.61975e-19)
(2.91448 -3.22085 -3.53365e-19)
(2.90267 -3.20775 3.45843e-19)
(2.89084 -3.19463 6.76948e-19)
(2.87897 -3.18147 -6.62433e-19)
(2.86707 -3.16828 0)
(2.85513 -3.15505 0)
(2.84315 -3.14178 -1.64578e-23)
(2.83113 -3.12846 -1.21239e-18)
(2.81905 -3.11509 5.94292e-19)
(2.80693 -3.10166 -5.79131e-19)
(2.79475 -3.08817 1.70144e-18)
(2.7825 -3.07462 -9.99013e-22)
(2.7702 -3.061 5.41784e-19)
(2.75782 -3.04731 -5.29402e-19)
(2.74538 -3.03354 0)
(2.73286 -3.01969 0)
(2.72026 -3.00576 0)
(2.70758 -2.99174 4.80673e-19)
(2.69482 -2.97763 -4.71183e-19)
(2.68197 -2.96342 -4.58891e-19)
(2.66902 -2.94911 0)
(2.65598 -2.9347 0)
(2.64284 -2.92018 -1.27705e-18)
(2.6296 -2.90555 2.07802e-18)
(2.61625 -2.89081 -9.17445e-24)
(2.60279 -2.87594 0)
(2.58922 -2.86095 -3.83599e-19)
(2.57553 -2.84583 1.98077e-21)
(2.56171 -2.83057 3.65894e-19)
(2.54777 -2.81518 -7.1061e-19)
(2.5337 -2.79965 -6.91763e-19)
(2.5195 -2.78397 1.00891e-18)
(2.50515 -2.76814 -1.95928e-21)
(2.49067 -2.75215 3.17647e-19)
(4.42332 -4.91285 7.16897e-18)
(4.13889 -4.59053 7.56105e-18)
(4.00657 -4.44865 -8.11166e-18)
(3.91825 -4.34975 4.51102e-19)
(3.85036 -4.27488 0)
(3.79524 -4.21429 0)
(3.74885 -4.16311 0)
(3.70853 -4.11872 5.7688e-18)
(3.67277 -4.07934 -1.09644e-17)
(3.64052 -4.04384 1.04399e-17)
(3.61105 -4.0114 -4.98246e-18)
(3.58385 -3.98144 4.46339e-18)
(3.55852 -3.95354 -4.56373e-18)
(3.53476 -3.92736 2.73585e-19)
(3.51234 -3.90263 4.46984e-18)
(3.49107 -3.87916 -3.79953e-18)
(3.4708 -3.85678 3.90396e-18)
(3.45141 -3.83535 -2.38672e-19)
(3.43279 -3.81476 -3.64477e-18)
(3.41485 -3.79491 -2.20314e-19)
(3.39753 -3.77572 0)
(3.38076 -3.75712 -8.27365e-19)
(3.36447 -3.73905 0)
(3.34863 -3.72146 0)
(3.33319 -3.70431 -3.40742e-18)
(3.31812 -3.68755 2.94851e-18)
(3.30337 -3.67115 0)
(3.28893 -3.65508 0)
(3.27476 -3.63931 0)
(3.26085 -3.6238 -6.62969e-19)
(3.24716 -3.60855 3.23287e-19)
(3.23368 -3.59353 0)
(3.2204 -3.57871 0)
(3.20729 -3.56409 0)
(3.19434 -3.54964 -1.76012e-18)
(3.18154 -3.53536 2.58401e-18)
(3.16887 -3.52122 0)
(3.15632 -3.50721 0)
(3.14389 -3.49333 0)
(3.13156 -3.47956 2.35851e-18)
(3.11932 -3.46589 -3.56673e-21)
(3.10716 -3.45232 -5.02107e-18)
(3.09507 -3.43882 3.43974e-18)
(3.08305 -3.4254 -1.44473e-18)
(3.07109 -3.41205 0)
(3.05918 -3.39875 4.60962e-19)
(3.04732 -3.38551 1.80356e-18)
(3.0355 -3.37231 -1.7697e-18)
(3.0237 -3.35914 -4.32809e-19)
(3.01194 -3.34601 2.11734e-18)
(3.00019 -3.3329 -8.32973e-19)
(2.98846 -3.31981 -8.1491e-19)
(2.97674 -3.30673 -7.97189e-19)
(2.96502 -3.29366 -9.52016e-22)
(2.95331 -3.2806 -1.14648e-18)
(2.94159 -3.26753 0)
(2.92986 -3.25445 3.65233e-19)
(2.91812 -3.24136 -7.18098e-19)
(2.90636 -3.22826 -1.05232e-18)
(2.89458 -3.21513 3.4471e-19)
(2.88277 -3.20197 6.73041e-19)
(2.87094 -3.18879 9.68013e-22)
(2.85907 -3.17557 1.95564e-21)
(2.84716 -3.16231 6.32101e-19)
(2.83521 -3.149 -6.176e-19)
(2.82322 -3.13565 6.04266e-19)
(2.81118 -3.12225 0)
(2.79908 -3.10879 -5.77255e-19)
(2.78693 -3.09526 -5.63552e-19)
(2.77472 -3.08168 9.85014e-22)
(2.76244 -3.06803 -1.08033e-18)
(2.7501 -3.0543 1.05799e-18)
(2.73769 -3.0405 0)
(2.72521 -3.02662 -9.95154e-22)
(2.71264 -3.01266 -9.87178e-19)
(2.7 -2.9986 4.81634e-19)
(2.68727 -2.98446 4.70355e-19)
(2.67445 -2.97022 4.59231e-19)
(2.66154 -2.95588 0)
(2.64854 -2.94143 0)
(2.63544 -2.92688 8.53766e-19)
(2.62223 -2.91222 -1.6657e-18)
(2.60892 -2.89744 -8.12268e-19)
(2.5955 -2.88253 7.91999e-19)
(2.58196 -2.86751 1.1571e-18)
(2.56831 -2.85235 3.75232e-19)
(2.55453 -2.83706 7.33174e-19)
(2.54063 -2.82164 3.56118e-19)
(2.5266 -2.80607 6.93591e-19)
(2.51243 -2.79035 -3.39611e-19)
(2.49813 -2.77448 3.28641e-19)
(2.48368 -2.75846 -1.97411e-21)
(4.4107 -4.92341 8.69916e-18)
(4.12637 -4.60108 -8.05139e-18)
(3.99472 -4.45833 -7.12941e-18)
(3.90685 -4.35908 1.3467e-17)
(3.83904 -4.28414 -6.35191e-18)
(3.78418 -4.22331 6.78964e-18)
(3.73795 -4.17201 -1.20825e-17)
(3.69778 -4.12751 3.04911e-21)
(3.66215 -4.08805 5.43485e-18)
(3.63003 -4.05248 0)
(3.60069 -4.01999 0)
(3.5736 -3.98999 -2.94598e-19)
(3.54838 -3.96206 -2.82096e-19)
(3.52472 -3.93585 2.70612e-19)
(3.50239 -3.91111 5.80195e-23)
(3.48121 -3.88762 -2.50254e-19)
(3.46102 -3.86523 -4.82339e-19)
(3.4417 -3.84379 -3.44013e-23)
(3.42315 -3.82319 0)
(3.40528 -3.80334 2.17542e-19)
(3.38801 -3.78414 3.36919e-18)
(3.37129 -3.76554 -2.86053e-18)
(3.35505 -3.74746 0)
(3.33925 -3.72987 3.46133e-18)
(3.32385 -3.71271 -2.61896e-18)
(3.30882 -3.69594 -2.90733e-18)
(3.29411 -3.67953 2.83241e-18)
(3.2797 -3.66344 3.44557e-19)
(3.26556 -3.64765 0)
(3.25168 -3.63214 3.27255e-19)
(3.23802 -3.61687 0)
(3.22457 -3.60183 0)
(3.21131 -3.587 -2.43036e-18)
(3.19823 -3.57235 2.07983e-18)
(3.18531 -3.55789 -5.80047e-19)
(3.17253 -3.54358 -2.26564e-18)
(3.15989 -3.52942 1.94108e-18)
(3.14737 -3.51539 -2.70897e-19)
(3.13496 -3.50149 -2.11793e-18)
(3.12266 -3.48769 2.0754e-18)
(3.11044 -3.474 -2.0273e-18)
(3.09831 -3.4604 2.48405e-18)
(3.08625 -3.44688 -1.94204e-18)
(3.07426 -3.43343 3.58269e-21)
(3.06232 -3.42005 3.26078e-18)
(3.05044 -3.40673 -2.28262e-18)
(3.0386 -3.39346 0)
(3.0268 -3.38023 1.74837e-18)
(3.01504 -3.36704 -1.71615e-18)
(3.0033 -3.35388 0)
(2.99158 -3.34074 -4.11239e-19)
(2.97988 -3.32762 8.05731e-19)
(2.96818 -3.31451 -1.57676e-18)
(2.9565 -3.30141 3.47957e-18)
(2.94481 -3.28832 -1.13809e-18)
(2.93312 -3.27522 -3.71003e-19)
(2.92142 -3.26211 1.81523e-18)
(2.90971 -3.24899 7.08138e-19)
(2.89798 -3.23585 3.44836e-19)
(2.88623 -3.22269 -3.8494e-21)
(2.87445 -3.20951 -4.01295e-18)
(2.86265 -3.19629 -6.51064e-19)
(2.85081 -3.18304 3.88767e-21)
(2.83893 -3.16975 1.25756e-18)
(2.82702 -3.15641 -1.84173e-18)
(2.81505 -3.14303 -1.19913e-18)
(2.80304 -3.12959 2.95246e-21)
(2.79098 -3.1161 5.77026e-19)
(2.77886 -3.10255 -5.62596e-19)
(2.76669 -3.08893 1.1036e-18)
(2.75445 -3.07524 0)
(2.74214 -3.06149 -1.0536e-18)
(2.72976 -3.04765 5.16541e-19)
(2.71731 -3.03374 1.00146e-21)
(2.70478 -3.01974 9.86118e-19)
(2.69217 -3.00565 -4.81316e-19)
(2.67948 -2.99147 0)
(2.6667 -2.9772 -9.18611e-19)
(2.65383 -2.96282 0)
(2.64086 -2.94834 -8.75865e-19)
(2.62779 -2.93376 0)
(2.61462 -2.91906 4.182e-19)
(2.60135 -2.90424 4.08055e-19)
(2.58797 -2.8893 -1.19023e-18)
(2.57447 -2.87424 -3.86255e-19)
(2.56085 -2.85905 -1.13173e-18)
(2.54712 -2.84372 -3.67059e-19)
(2.53325 -2.82826 7.17391e-19)
(2.51926 -2.81265 -3.48489e-19)
(2.50514 -2.7969 6.82844e-19)
(2.49088 -2.78099 -3.30537e-19)
(2.47647 -2.76493 -9.69348e-19)
(4.39734 -4.93422 0)
(4.11329 -4.61182 0)
(3.98237 -4.46824 7.10504e-18)
(3.89481 -4.36882 -3.2257e-21)
(3.8272 -4.29372 -7.15679e-18)
(3.77262 -4.23269 5.94957e-18)
(3.72657 -4.18128 -5.6214e-18)
(3.68658 -4.13668 0)
(3.65111 -4.09713 -3.36533e-19)
(3.61912 -4.06149 -5.43847e-18)
(3.58991 -4.02894 4.88214e-18)
(3.56294 -3.99889 5.8279e-19)
(3.53782 -3.97092 2.78881e-19)
(3.51426 -3.94467 -4.81295e-18)
(3.49203 -3.9199 3.8557e-18)
(3.47093 -3.89639 2.47191e-19)
(3.45082 -3.87398 2.38188e-19)
(3.43158 -3.85252 4.13558e-18)
(3.4131 -3.8319 -3.14549e-21)
(3.39529 -3.81203 -6.87263e-18)
(3.37808 -3.79282 3.32884e-18)
(3.36142 -3.7742 0)
(3.34523 -3.75611 -3.12698e-18)
(3.32949 -3.7385 3.21195e-21)
(3.31413 -3.72133 2.9535e-18)
(3.29914 -3.70454 3.58836e-19)
(3.28448 -3.68812 2.79186e-18)
(3.27011 -3.67202 -6.12034e-18)
(3.25601 -3.65621 5.30064e-18)
(3.24216 -3.64068 -3.27877e-21)
(3.22854 -3.62539 -2.83669e-18)
(3.21512 -3.61033 0)
(3.2019 -3.59548 0)
(3.18885 -3.58082 2.93086e-19)
(3.17596 -3.56633 2.86348e-19)
(3.16321 -3.552 -5.59716e-19)
(3.1506 -3.53782 9.30222e-24)
(3.13811 -3.52377 2.67576e-19)
(3.12573 -3.50984 0)
(3.11345 -3.49603 -2.30312e-18)
(3.10127 -3.48231 1.50553e-18)
(3.08916 -3.46868 -1.9609e-18)
(3.07713 -3.45514 2.40364e-18)
(3.06517 -3.44166 1.87976e-18)
(3.05326 -3.42826 -1.84441e-18)
(3.04141 -3.41491 0)
(3.0296 -3.40161 0)
(3.01783 -3.38835 0)
(3.00609 -3.37513 0)
(2.99438 -3.36194 -4.15629e-19)
(2.98269 -3.34877 -1.21992e-18)
(2.97102 -3.33562 1.19901e-18)
(2.95935 -3.32249 0)
(2.9477 -3.30936 -3.83167e-19)
(2.93604 -3.29623 -1.5e-18)
(2.92438 -3.28311 1.84145e-18)
(2.91271 -3.26997 3.60494e-19)
(2.90103 -3.25682 -1.08778e-23)
(2.88933 -3.24365 3.46066e-19)
(2.87761 -3.23046 0)
(2.86587 -3.21724 6.64284e-19)
(2.85409 -3.20399 0)
(2.84229 -3.19071 0)
(2.83044 -3.17738 -1.87054e-18)
(2.81856 -3.16401 3.05605e-18)
(2.80663 -3.1506 -6.00396e-19)
(2.79465 -3.13713 5.85902e-19)
(2.78262 -3.1236 0)
(2.77054 -3.11002 5.61321e-19)
(2.7584 -3.09637 5.47328e-19)
(2.74619 -3.08265 -2.14984e-18)
(2.73392 -3.06886 1.05355e-18)
(2.72158 -3.05499 0)
(2.70916 -3.04104 0)
(2.69667 -3.02701 4.91731e-19)
(2.6841 -3.01289 0)
(2.67144 -2.99867 4.69821e-19)
(2.6587 -2.98436 -4.57096e-19)
(2.64586 -2.96995 8.99051e-19)
(2.63293 -2.95544 -4.37094e-19)
(2.6199 -2.94081 1.2845e-18)
(2.60678 -2.92608 0)
(2.59354 -2.91122 -4.06733e-19)
(2.58019 -2.89625 3.98909e-19)
(2.56674 -2.88115 0)
(2.55316 -2.86592 -3.79697e-19)
(2.53947 -2.85056 1.10694e-18)
(2.52565 -2.83506 0)
(2.5117 -2.81941 0)
(2.49761 -2.80362 -1.02513e-18)
(2.48339 -2.78767 1.66722e-18)
(2.46903 -2.77157 6.49198e-19)
(4.38357 -4.94555 0)
(4.09987 -4.62292 -5.01312e-19)
(3.96967 -4.47859 4.71908e-19)
(3.8823 -4.37903 4.44479e-19)
(3.81493 -4.30371 6.27306e-18)
(3.7606 -4.2425 -6.30421e-18)
(3.71472 -4.19097 1.46783e-22)
(3.6749 -4.14625 -5.62237e-18)
(3.63959 -4.10661 5.66736e-18)
(3.60775 -4.07089 -5.06697e-18)
(3.57866 -4.03827 9.6579e-18)
(3.55181 -4.00816 -2.91388e-19)
(3.52681 -3.98013 -3.23229e-21)
(3.50335 -3.95384 -4.23087e-18)
(3.48122 -3.92902 0)
(3.46021 -3.90548 0)
(3.44019 -3.88303 3.76182e-18)
(3.42103 -3.86154 -7.48791e-18)
(3.40262 -3.84089 3.5084e-18)
(3.38489 -3.82099 -3.38979e-18)
(3.36775 -3.80176 3.28494e-18)
(3.35114 -3.78312 0)
(3.33502 -3.76501 -3.08516e-18)
(3.31933 -3.74738 2.24931e-18)
(3.30403 -3.73018 2.91056e-18)
(3.28909 -3.71338 -3.18749e-18)
(3.27447 -3.69693 0)
(3.26015 -3.68081 3.35433e-19)
(3.24609 -3.66499 0)
(3.23229 -3.64943 0)
(3.2187 -3.63413 3.10797e-19)
(3.20533 -3.61905 -2.42477e-18)
(3.19214 -3.60418 2.37062e-18)
(3.17913 -3.58949 -2.02296e-18)
(3.16627 -3.57498 2.26255e-18)
(3.15356 -3.56063 5.52482e-19)
(3.14098 -3.54643 -1.88901e-18)
(3.12853 -3.53235 3.96267e-18)
(3.11618 -3.5184 -2.06936e-18)
(3.10393 -3.50456 2.52929e-19)
(3.09178 -3.49082 9.90273e-19)
(3.07971 -3.47717 -1.93726e-18)
(3.06771 -3.4636 1.42574e-18)
(3.05577 -3.4501 0)
(3.0439 -3.43666 9.10732e-19)
(3.03207 -3.42329 0)
(3.0203 -3.40996 1.30946e-18)
(3.00856 -3.39667 -4.31851e-19)
(2.99685 -3.38342 -1.68057e-18)
(2.98517 -3.37021 4.11319e-19)
(2.97351 -3.35701 0)
(2.96187 -3.34383 0)
(2.95024 -3.33067 0)
(2.93861 -3.31751 3.79582e-19)
(2.92698 -3.30435 -1.48633e-18)
(2.91536 -3.29119 2.91729e-18)
(2.90372 -3.27802 -3.21675e-18)
(2.89207 -3.26484 -3.46552e-19)
(2.8804 -3.25164 6.88518e-19)
(2.86872 -3.23842 -1.34391e-18)
(2.857 -3.22517 3.80524e-21)
(2.84526 -3.21189 1.29416e-18)
(2.83349 -3.19857 6.33055e-19)
(2.82168 -3.18522 6.2021e-19)
(2.80983 -3.17182 0)
(2.79794 -3.15837 1.78327e-18)
(2.78599 -3.14486 -3.88928e-21)
(2.774 -3.1313 -1.14332e-18)
(2.76195 -3.11769 -5.58762e-19)
(2.74984 -3.104 0)
(2.73767 -3.09025 0)
(2.72544 -3.07642 -5.23969e-19)
(2.71313 -3.06252 0)
(2.70075 -3.04854 -5.01579e-19)
(2.6883 -3.03447 -1.46987e-18)
(2.67576 -3.02031 4.83778e-19)
(2.66314 -3.00606 -4.65156e-19)
(2.65044 -2.99172 9.19226e-19)
(2.63764 -2.97727 -4.4824e-19)
(2.62475 -2.96272 8.76027e-19)
(2.61176 -2.94806 -8.55849e-19)
(2.59867 -2.93328 0)
(2.58548 -2.91839 0)
(2.57217 -2.90338 7.97002e-19)
(2.55876 -2.88824 0)
(2.54522 -2.87298 7.59188e-19)
(2.53157 -2.85757 -1.48139e-18)
(2.51779 -2.84203 0)
(2.50389 -2.82635 7.0455e-19)
(2.48985 -2.81052 0)
(2.47567 -2.79453 -6.69537e-19)
(2.46135 -2.77839 0)
(4.36944 -4.95742 8.68827e-18)
(4.08619 -4.63443 8.99923e-18)
(3.95669 -4.48941 -1.50451e-17)
(3.86949 -4.3897 3.16855e-21)
(3.80239 -4.31413 7.48243e-18)
(3.74825 -4.25276 -6.64441e-18)
(3.70254 -4.20108 -3.65089e-19)
(3.66288 -4.15625 5.57412e-18)
(3.6277 -4.1165 5.60837e-18)
(3.59599 -4.08068 -9.71796e-18)
(3.56703 -4.04798 3.01854e-19)
(3.54029 -4.0178 4.27515e-18)
(3.5154 -3.9897 0)
(3.49204 -3.96335 2.61096e-19)
(3.47 -3.93848 2.50715e-19)
(3.44909 -3.91489 0)
(3.42915 -3.8924 3.71334e-18)
(3.41007 -3.87087 -3.18907e-21)
(3.39174 -3.85018 -3.24568e-18)
(3.37408 -3.83025 2.09139e-19)
(3.35701 -3.81098 0)
(3.34047 -3.79231 -2.74481e-18)
(3.32441 -3.77417 2.66555e-18)
(3.30878 -3.75652 -3.37136e-23)
(3.29354 -3.73929 -2.87048e-18)
(3.27865 -3.72247 3.14357e-18)
(3.26409 -3.70599 0)
(3.24981 -3.68985 0)
(3.23581 -3.674 -2.25472e-18)
(3.22205 -3.65842 3.22918e-21)
(3.20851 -3.6431 2.45396e-18)
(3.19518 -3.62799 0)
(3.18203 -3.6131 -2.33522e-18)
(3.16906 -3.59839 1.99898e-18)
(3.15624 -3.58386 -1.95015e-18)
(3.14357 -3.56948 1.90966e-18)
(3.13103 -3.55525 -2.66546e-19)
(3.11861 -3.54115 -1.82346e-18)
(3.1063 -3.52718 2.04266e-18)
(3.09409 -3.51331 0)
(3.08196 -3.49954 1.95385e-18)
(3.06993 -3.48586 -1.91657e-18)
(3.05796 -3.47227 0)
(3.04606 -3.45874 0)
(3.03422 -3.44528 -2.24797e-18)
(3.02243 -3.43187 1.32437e-18)
(3.01068 -3.41852 2.15848e-18)
(2.99898 -3.40521 -2.96407e-18)
(2.9873 -3.39193 1.66195e-18)
(2.97565 -3.37868 0)
(2.96403 -3.36546 0)
(2.95242 -3.35225 1.95321e-18)
(2.94082 -3.33905 -1.53517e-18)
(2.92923 -3.32586 -3.75828e-19)
(2.91763 -3.31268 0)
(2.90604 -3.29949 -1.80446e-18)
(2.89443 -3.28629 3.70565e-21)
(2.88282 -3.27307 1.04357e-18)
(2.87119 -3.25984 2.04061e-18)
(2.85953 -3.24659 -1.67041e-18)
(2.84786 -3.2333 6.54222e-19)
(2.83615 -3.21999 0)
(2.82441 -3.20664 -1.33492e-23)
(2.81264 -3.19325 0)
(2.80082 -3.17982 6.03558e-19)
(2.78896 -3.16633 5.89444e-19)
(2.77705 -3.1528 -1.16068e-18)
(2.7651 -3.1392 5.67541e-19)
(2.75308 -3.12555 5.55879e-19)
(2.74101 -3.11183 5.44381e-19)
(2.72888 -3.09804 -1.06413e-18)
(2.71668 -3.08418 1.56756e-18)
(2.70441 -3.07024 0)
(2.69207 -3.05623 4.99954e-19)
(2.67966 -3.04212 -4.89212e-19)
(2.66716 -3.02793 -9.57245e-19)
(2.65458 -3.01364 -4.68169e-19)
(2.64192 -2.99926 0)
(2.62916 -2.98478 4.4769e-19)
(2.61631 -2.97019 0)
(2.60336 -2.95549 8.55496e-19)
(2.59031 -2.94068 0)
(2.57716 -2.92575 0)
(2.5639 -2.9107 -7.95704e-19)
(2.55052 -2.89552 2.00918e-21)
(2.53703 -2.88022 7.60509e-19)
(2.52342 -2.86477 6.105e-24)
(2.50969 -2.84919 -7.24379e-19)
(2.49583 -2.83347 -7.06718e-19)
(2.48183 -2.81759 -1.37662e-18)
(2.4677 -2.80157 6.74193e-19)
(2.45343 -2.78538 0)
(4.35486 -4.96974 -8.67979e-18)
(4.07219 -4.64629 7.48311e-18)
(3.94336 -4.50063 0)
(3.85634 -4.40075 7.03404e-18)
(3.78951 -4.32492 -7.4316e-18)
(3.73556 -4.26339 -9.36275e-23)
(3.69002 -4.21157 5.47796e-18)
(3.6505 -4.16661 -3.36166e-21)
(3.61547 -4.12675 -5.88127e-18)
(3.58388 -4.09084 0)
(3.55503 -4.05805 -2.95117e-19)
(3.5284 -4.02779 -4.50352e-18)
(3.50361 -3.99962 4.30876e-18)
(3.48035 -3.9732 0)
(3.4584 -3.94827 -2.47479e-19)
(3.43758 -3.92462 -2.37966e-19)
(3.41772 -3.90208 0)
(3.39872 -3.8805 -3.31251e-18)
(3.38047 -3.85978 6.61363e-18)
(3.36288 -3.8398 -6.80659e-18)
(3.34588 -3.82049 6.3886e-18)
(3.32941 -3.80179 -3.90031e-19)
(3.31341 -3.78361 -2.62834e-18)
(3.29784 -3.76592 3.64275e-19)
(3.28266 -3.74867 0)
(3.26783 -3.73181 -3.44171e-19)
(3.25332 -3.71531 0)
(3.2391 -3.69914 2.93372e-18)
(3.22515 -3.68326 -2.86172e-18)
(3.21143 -3.66766 2.4771e-18)
(3.19794 -3.6523 -4.83595e-18)
(3.18466 -3.63717 2.65655e-18)
(3.17156 -3.62225 0)
(3.15863 -3.60752 2.24952e-18)
(3.14585 -3.59296 -4.95004e-18)
(3.13322 -3.57856 2.1525e-18)
(3.12072 -3.5643 -1.77811e-24)
(3.10834 -3.55018 0)
(3.09607 -3.53617 -2.26396e-18)
(3.0839 -3.52228 3.34768e-21)
(3.07181 -3.50849 1.4493e-18)
(3.05981 -3.49478 0)
(3.04788 -3.48116 -1.84991e-18)
(3.03602 -3.4676 2.2693e-18)
(3.02421 -3.45411 0)
(3.01246 -3.44068 7.43454e-24)
(3.00075 -3.4273 -1.70583e-18)
(2.98908 -3.41395 2.92933e-18)
(2.97744 -3.40065 -2.05309e-18)
(2.96582 -3.38737 0)
(2.95423 -3.37411 3.94423e-19)
(2.94266 -3.36088 -3.86777e-19)
(2.93109 -3.34765 0)
(2.91953 -3.33443 -1.48598e-18)
(2.90798 -3.32121 1.46087e-18)
(2.89641 -3.30799 3.57726e-19)
(2.88485 -3.29476 0)
(2.87327 -3.28151 6.88054e-19)
(2.86167 -3.26825 -3.37368e-19)
(2.85005 -3.25496 6.78834e-24)
(2.83841 -3.24165 6.46877e-19)
(2.82674 -3.2283 -1.27407e-18)
(2.81504 -3.21492 -6.23641e-19)
(2.8033 -3.20149 -6.11363e-19)
(2.79152 -3.18802 -5.99295e-19)
(2.7797 -3.17451 0)
(2.76783 -3.16094 5.75661e-19)
(2.75591 -3.14731 -5.64113e-19)
(2.74393 -3.13362 -1.10543e-18)
(2.7319 -3.11987 -5.41483e-19)
(2.7198 -3.10604 -1.05884e-18)
(2.70764 -3.09214 1.56034e-18)
(2.69542 -3.07817 -1.01539e-18)
(2.68311 -3.06412 4.99999e-19)
(2.67074 -3.04997 1.46061e-18)
(2.65828 -3.03574 -4.79132e-19)
(2.64574 -3.02142 4.66932e-19)
(2.63312 -3.007 -9.11671e-19)
(2.6204 -2.99248 8.95715e-19)
(2.6076 -2.97785 0)
(2.59469 -2.96312 -1.70927e-18)
(2.58168 -2.94827 -8.35474e-19)
(2.56857 -2.9333 8.16569e-19)
(2.55535 -2.91821 -1.59584e-18)
(2.54202 -2.90299 7.79525e-19)
(2.52858 -2.88764 -1.52074e-18)
(2.51501 -2.87216 1.48898e-18)
(2.50132 -2.85654 5.46616e-24)
(2.48751 -2.84077 7.06433e-19)
(2.47356 -2.82486 -2.01136e-21)
(2.45947 -2.80879 -6.74433e-19)
(2.44525 -2.79257 6.55789e-19)
(4.33979 -4.98246 -8.16318e-18)
(4.0578 -4.65848 -7.95789e-18)
(3.92962 -4.51222 3.0632e-21)
(3.8428 -4.41213 1.39895e-17)
(3.77624 -4.33606 -6.14986e-18)
(3.72249 -4.27437 6.53904e-18)
(3.67711 -4.2224 -5.43218e-18)
(3.63775 -4.17731 0)
(3.60284 -4.13735 3.23196e-19)
(3.57138 -4.10133 4.5986e-18)
(3.54265 -4.06845 -4.37772e-18)
(3.51612 -4.03811 5.56379e-19)
(3.49143 -4.00986 2.65884e-19)
(3.46827 -3.98338 -3.81736e-18)
(3.44641 -3.95838 4.15436e-18)
(3.42567 -3.93467 3.98974e-18)
(3.4059 -3.91207 -3.618e-18)
(3.38698 -3.89045 3.4851e-18)
(3.3688 -3.86967 -3.36775e-18)
(3.35128 -3.84965 -2.03386e-19)
(3.33435 -3.8303 -3.14764e-18)
(3.31795 -3.81155 3.05271e-18)
(3.30202 -3.79334 3.69907e-19)
(3.28651 -3.77561 -3.59083e-19)
(3.27139 -3.75832 0)
(3.25662 -3.74143 -2.71221e-18)
(3.24217 -3.72489 2.64235e-18)
(3.228 -3.70869 -3.21431e-19)
(3.2141 -3.69278 0)
(3.20044 -3.67715 2.74686e-18)
(3.18701 -3.66176 -2.68282e-18)
(3.17377 -3.6466 -2.90619e-18)
(3.16072 -3.63165 2.27322e-18)
(3.14783 -3.61689 -2.21768e-18)
(3.1351 -3.6023 2.44182e-18)
(3.12252 -3.58787 0)
(3.11006 -3.57359 2.59295e-19)
(3.09772 -3.55944 2.53705e-19)
(3.08549 -3.5454 -1.48818e-18)
(3.07336 -3.53148 3.88944e-18)
(3.06132 -3.51766 -4.79423e-19)
(3.04935 -3.50392 -3.26429e-18)
(3.03746 -3.49027 1.82912e-18)
(3.02564 -3.47669 8.93653e-19)
(3.01387 -3.46317 -1.7567e-18)
(3.00215 -3.44971 4.30075e-19)
(2.99048 -3.43629 1.68478e-18)
(2.97884 -3.42292 -8.28514e-19)
(2.96724 -3.40959 2.02512e-18)
(2.95567 -3.39628 -1.19437e-18)
(2.94411 -3.38299 -6.11632e-24)
(2.93257 -3.36972 0)
(2.92104 -3.35647 -1.49862e-18)
(2.90952 -3.34322 1.84148e-18)
(2.898 -3.32996 0)
(2.88648 -3.31671 0)
(2.87494 -3.30345 1.38738e-18)
(2.8634 -3.29017 -6.8501e-19)
(2.85184 -3.27687 -1.67271e-18)
(2.84026 -3.26355 -9.81505e-19)
(2.82866 -3.2502 1.28786e-18)
(2.81702 -3.23682 -6.30644e-19)
(2.80536 -3.2234 6.16616e-19)
(2.79366 -3.20995 -6.08388e-19)
(2.78192 -3.19644 -1.18756e-18)
(2.77013 -3.18289 1.16812e-18)
(2.7583 -3.16928 -1.14333e-18)
(2.74642 -3.15562 0)
(2.73448 -3.1419 2.1951e-18)
(2.72249 -3.12811 -1.0785e-18)
(2.71043 -3.11425 -1.05298e-18)
(2.69832 -3.10031 5.18715e-19)
(2.68613 -3.0863 0)
(2.67387 -3.07221 4.95836e-19)
(2.66153 -3.05803 0)
(2.64912 -3.04376 4.75421e-19)
(2.63662 -3.0294 4.63437e-19)
(2.62404 -3.01494 -9.1304e-19)
(2.61137 -3.00038 0)
(2.5986 -2.98572 4.36138e-19)
(2.58574 -2.97094 1.70652e-18)
(2.57278 -2.95605 8.34483e-19)
(2.55971 -2.94104 -8.15946e-19)
(2.54654 -2.92591 6.35089e-24)
(2.53325 -2.91065 0)
(2.51985 -2.89527 -7.61769e-19)
(2.50633 -2.87974 -2.01584e-21)
(2.49269 -2.86408 -2.01231e-21)
(2.47892 -2.84827 0)
(2.46502 -2.83231 -6.92894e-19)
(2.45098 -2.8162 1.35053e-18)
(2.43681 -2.79993 -2.02289e-21)
(4.32423 -4.99559 -8.15532e-18)
(4.043 -4.67099 -7.93585e-18)
(3.91545 -4.52416 1.48469e-17)
(3.82885 -4.42386 -6.95431e-18)
(3.76257 -4.34754 0)
(3.70901 -4.28568 0)
(3.66381 -4.23357 0)
(3.62459 -4.18835 5.40902e-18)
(3.58982 -4.14827 -5.11786e-18)
(3.55848 -4.11215 3.03186e-19)
(3.52986 -4.07918 4.61098e-18)
(3.50345 -4.04875 -2.78006e-19)
(3.47885 -4.02043 -8.66211e-18)
(3.45579 -3.99387 3.77089e-18)
(3.43402 -3.96881 -4.82049e-19)
(3.41336 -3.94504 3.93559e-18)
(3.39368 -3.92238 2.19758e-19)
(3.37483 -3.90069 -3.65429e-18)
(3.35673 -3.87987 0)
(3.33929 -3.85979 3.60681e-18)
(3.32243 -3.8404 -3.10537e-18)
(3.3061 -3.8216 3.75877e-19)
(3.29023 -3.80335 -3.64472e-19)
(3.27479 -3.78558 3.53788e-19)
(3.25973 -3.76825 0)
(3.24502 -3.75132 2.67227e-18)
(3.23063 -3.73475 -2.60342e-18)
(3.21652 -3.71851 3.16716e-19)
(3.20267 -3.70257 3.08613e-19)
(3.18907 -3.6869 -6.01789e-19)
(3.17568 -3.67148 2.64033e-18)
(3.1625 -3.65629 -4.29795e-18)
(3.14949 -3.6413 2.24014e-18)
(3.13666 -3.62651 1.91215e-18)
(3.12398 -3.61189 -4.27565e-18)
(3.11144 -3.59743 2.09205e-18)
(3.09903 -3.58312 2.55614e-19)
(3.08673 -3.56893 -2.50121e-19)
(3.07455 -3.55487 1.95702e-18)
(3.06246 -3.54092 -1.67967e-18)
(3.05046 -3.52707 -9.37468e-19)
(3.03854 -3.5133 1.38163e-18)
(3.02669 -3.49962 -4.50727e-19)
(3.0149 -3.48601 1.76526e-18)
(3.00318 -3.47246 -1.73368e-18)
(2.9915 -3.45897 2.12087e-18)
(2.97987 -3.44552 -3.39624e-21)
(2.96827 -3.43212 -4.11625e-19)
(2.95671 -3.41875 -1.60317e-18)
(2.94517 -3.40541 -3.92716e-19)
(2.93365 -3.39209 1.15398e-18)
(2.92215 -3.37879 -1.5135e-18)
(2.91066 -3.3655 -3.70794e-19)
(2.89918 -3.35222 0)
(2.8877 -3.33894 -3.56955e-19)
(2.87621 -3.32565 -1.39919e-18)
(2.86472 -3.31235 1.7201e-18)
(2.85321 -3.29904 2.02139e-18)
(2.84169 -3.28571 -6.63524e-19)
(2.83015 -3.27236 0)
(2.81858 -3.25897 6.36982e-19)
(2.80699 -3.24556 1.87295e-18)
(2.79536 -3.23211 -1.22798e-18)
(2.7837 -3.21861 6.01385e-19)
(2.772 -3.20508 -1.1779e-18)
(2.76026 -3.19149 3.76622e-21)
(2.74847 -3.17785 2.27144e-18)
(2.73662 -3.16415 0)
(2.72473 -3.15038 -6.83127e-24)
(2.71278 -3.13656 1.0677e-18)
(2.70076 -3.12266 -1.05041e-18)
(2.68868 -3.10869 0)
(2.67654 -3.09464 1.50862e-18)
(2.66432 -3.08051 -3.89548e-21)
(2.65203 -3.06629 -9.68599e-19)
(2.63966 -3.05199 4.71448e-19)
(2.6272 -3.03759 -4.65592e-19)
(2.61466 -3.02309 0)
(2.60203 -3.00849 0)
(2.58931 -2.99378 -3.72482e-24)
(2.5765 -2.97897 -7.01566e-24)
(2.56358 -2.96404 8.32974e-19)
(2.55056 -2.94899 -8.14814e-19)
(2.53743 -2.93381 2.01103e-21)
(2.52419 -2.91852 4.01805e-21)
(2.51084 -2.90309 2.28711e-18)