/*--------------------------------*- C++ -*----------------------------------*\
  =========                 |
  \\      /  F ield         | OpenFOAM: The Open Source CFD Toolbox
   \\    /   O peration     | Website:  https://openfoam.org
    \\  /    A nd           | Version:  10
     \\/     M anipulation  |
\*---------------------------------------------------------------------------*/
FoamFile
{
    format      ascii;
    class       volScalarField;
    location    "70000";
    object      yPlus;
}
// * * * * * * * * * * * * * * * * * * * * * * * * * * * * * * * * * * * * * //

dimensions      [0 0 0 0 0 0 0];

internalField   uniform 0;

boundaryField
{
    right
    {
        type            cyclic;
    }
    left
    {
        type            cyclic;
    }
    outerWall
    {
        type            calculated;
        value           nonuniform List<scalar> 
200
(
17.5581
17.5509
17.5495
17.549
17.5491
17.5502
17.5518
17.5538
17.5559
17.558
17.5602
17.5624
17.5645
17.5665
17.5684
17.5702
17.5719
17.5734
17.5749
17.5763
17.5775
17.5787
17.5798
17.5808
17.5818
17.5827
17.5836
17.5844
17.5851
17.5859
17.5866
17.5873
17.5879
17.5886
17.5892
17.5898
17.5904
17.591
17.5915
17.5921
17.5926
17.5932
17.5937
17.5942
17.5947
17.5952
17.5957
17.5962
17.5966
17.5971
17.5975
17.5979
17.5983
17.5987
17.599
17.5993
17.5996
17.5999
17.6001
17.6004
17.6005
17.6007
17.6007
17.6008
17.6008
17.6007
17.6006
17.6006
17.5993
17.5966
17.5934
17.5892
17.5859
17.5795
17.5764
17.5765
17.5781
17.5798
17.5813
17.581
17.5349
17.5375
17.5454
17.5539
17.5626
17.5716
17.5806
17.5893
17.5976
17.6055
17.6129
17.6197
17.626
17.6318
17.637
17.6416
17.6457
17.6493
17.6524
17.655
17.657
17.6586
17.6597
17.6603
17.6605
17.6601
17.6593
17.658
17.6562
17.6539
17.651
17.6475
17.6434
17.6387
17.6331
17.6265
17.6187
17.6092
17.5972
17.5786
17.5824
17.5865
17.5888
17.5903
17.5911
17.5917
17.5907
17.5871
17.5828
17.5794
17.5773
17.5763
17.576
17.5771
17.5789
17.5809
17.5829
17.5846
17.5861
17.5874
17.5885
17.5894
17.5902
17.5909
17.5915
17.592
17.5924
17.5928
17.5931
17.5933
17.5936
17.5937
17.5938
17.5939
17.594
17.594
17.5941
17.594
17.594
17.5939
17.5939
17.5938
17.5937
17.5935
17.5934
17.5932
17.593
17.5928
17.5926
17.5924
17.5921
17.5918
17.5915
17.5912
17.5909
17.5905
17.5902
17.5898
17.5894
17.5889
17.5884
17.5879
17.5874
17.5868
17.5861
17.5854
17.5847
17.5838
17.5829
17.5819
17.5807
17.5794
17.5779
17.5762
17.5741
17.5716
17.5683
17.564
17.5579
17.5456
)
;
    }
    stirrerWall
    {
        type            calculated;
        value           nonuniform List<scalar> 0();
    }
    top
    {
        type            empty;
    }
    bottom
    {
        type            empty;
    }
    procBoundary2to3
    {
        type            processor;
        value           uniform 0;
    }
}


// ************************************************************************* //
