# Probe 0 (14 15 1)
# Time        0            
10000         -1.79769e+307
10001         -1.79769e+307
10002         -1.79769e+307
10003         -1.79769e+307
10004         -1.79769e+307
10005         -1.79769e+307
10006         -1.79769e+307
10007         -1.79769e+307
10008         -1.79769e+307
10009         -1.79769e+307
10010         -1.79769e+307
10011         -1.79769e+307
10012         -1.79769e+307
10013         -1.79769e+307
10014         -1.79769e+307
10015         -1.79769e+307
10016         -1.79769e+307
10017         -1.79769e+307
10018         -1.79769e+307
10019         -1.79769e+307
10020         -1.79769e+307
10021         -1.79769e+307
10022         -1.79769e+307
10023         -1.79769e+307
10024         -1.79769e+307
10025         -1.79769e+307
10026         -1.79769e+307
10027         -1.79769e+307
10028         -1.79769e+307
10029         -1.79769e+307
10030         -1.79769e+307
10031         -1.79769e+307
10032         -1.79769e+307
10033         -1.79769e+307
10034         -1.79769e+307
10035         -1.79769e+307
10036         -1.79769e+307
10037         -1.79769e+307
10038         -1.79769e+307
10039         -1.79769e+307
10040         -1.79769e+307
10041         -1.79769e+307
10042         -1.79769e+307
10043         -1.79769e+307
10044         -1.79769e+307
10045         -1.79769e+307
10046         -1.79769e+307
10047         -1.79769e+307
10048         -1.79769e+307
10049         -1.79769e+307
10050         -1.79769e+307
10051         -1.79769e+307
10052         -1.79769e+307
10053         -1.79769e+307
10054         -1.79769e+307
10055         -1.79769e+307
10056         -1.79769e+307
10057         -1.79769e+307
10058         -1.79769e+307
10059         -1.79769e+307
10060         -1.79769e+307
10061         -1.79769e+307
10062         -1.79769e+307
10063         -1.79769e+307
10064         -1.79769e+307
10065         -1.79769e+307
10066         -1.79769e+307
10067         -1.79769e+307
10068         -1.79769e+307
10069         -1.79769e+307
10070         -1.79769e+307
10071         -1.79769e+307
10072         -1.79769e+307
10073         -1.79769e+307
10074         -1.79769e+307
10075         -1.79769e+307
10076         -1.79769e+307
10077         -1.79769e+307
10078         -1.79769e+307
10079         -1.79769e+307
10080         -1.79769e+307
10081         -1.79769e+307
10082         -1.79769e+307
10083         -1.79769e+307
10084         -1.79769e+307
10085         -1.79769e+307
10086         -1.79769e+307
10087         -1.79769e+307
10088         -1.79769e+307
10089         -1.79769e+307
10090         -1.79769e+307
10091         -1.79769e+307
10092         -1.79769e+307
10093         -1.79769e+307
10094         -1.79769e+307
10095         -1.79769e+307
10096         -1.79769e+307
10097         -1.79769e+307
10098         -1.79769e+307
10099         -1.79769e+307
10100         -1.79769e+307
10101         -1.79769e+307
10102         -1.79769e+307
10103         -1.79769e+307
10104         -1.79769e+307
10105         -1.79769e+307
10106         -1.79769e+307
10107         -1.79769e+307
10108         -1.79769e+307
10109         -1.79769e+307
10110         -1.79769e+307
10111         -1.79769e+307
10112         -1.79769e+307
10113         -1.79769e+307
10114         -1.79769e+307
10115         -1.79769e+307
10116         -1.79769e+307
10117         -1.79769e+307
10118         -1.79769e+307
10119         -1.79769e+307
10120         -1.79769e+307
10121         -1.79769e+307
10122         -1.79769e+307
10123         -1.79769e+307
10124         -1.79769e+307
10125         -1.79769e+307
10126         -1.79769e+307
10127         -1.79769e+307
10128         -1.79769e+307
10129         -1.79769e+307
10130         -1.79769e+307
10131         -1.79769e+307
10132         -1.79769e+307
10133         -1.79769e+307
10134         -1.79769e+307
10135         -1.79769e+307
10136         -1.79769e+307
10137         -1.79769e+307
10138         -1.79769e+307
10139         -1.79769e+307
10140         -1.79769e+307
10141         -1.79769e+307
10142         -1.79769e+307
10143         -1.79769e+307
10144         -1.79769e+307
10145         -1.79769e+307
10146         -1.79769e+307
10147         -1.79769e+307
10148         -1.79769e+307
10149         -1.79769e+307
10150         -1.79769e+307
10151         -1.79769e+307
10152         -1.79769e+307
10153         -1.79769e+307
10154         -1.79769e+307
10155         -1.79769e+307
10156         -1.79769e+307
10157         -1.79769e+307
10158         -1.79769e+307
10159         -1.79769e+307
10160         -1.79769e+307
10161         -1.79769e+307
10162         -1.79769e+307
10163         -1.79769e+307
10164         -1.79769e+307
10165         -1.79769e+307
10166         -1.79769e+307
10167         -1.79769e+307
10168         -1.79769e+307
10169         -1.79769e+307
10170         -1.79769e+307
10171         -1.79769e+307
10172         -1.79769e+307
10173         -1.79769e+307
10174         -1.79769e+307
10175         -1.79769e+307
10176         -1.79769e+307
10177         -1.79769e+307
10178         -1.79769e+307
10179         -1.79769e+307
10180         -1.79769e+307
10181         -1.79769e+307
10182         -1.79769e+307
10183         -1.79769e+307
10184         -1.79769e+307
10185         -1.79769e+307
10186         -1.79769e+307
10187         -1.79769e+307
10188         -1.79769e+307
10189         -1.79769e+307
10190         -1.79769e+307
10191         -1.79769e+307
10192         -1.79769e+307
10193         -1.79769e+307
10194         -1.79769e+307
10195         -1.79769e+307
10196         -1.79769e+307
10197         -1.79769e+307
10198         -1.79769e+307
10199         -1.79769e+307
10200         -1.79769e+307
10201         -1.79769e+307
10202         -1.79769e+307
10203         -1.79769e+307
10204         -1.79769e+307
10205         -1.79769e+307
10206         -1.79769e+307
10207         -1.79769e+307
10208         -1.79769e+307
10209         -1.79769e+307
10210         -1.79769e+307
10211         -1.79769e+307
10212         -1.79769e+307
10213         -1.79769e+307
10214         -1.79769e+307
10215         -1.79769e+307
10216         -1.79769e+307
10217         -1.79769e+307
10218         -1.79769e+307
10219         -1.79769e+307
10220         -1.79769e+307
10221         -1.79769e+307
10222         -1.79769e+307
10223         -1.79769e+307
10224         -1.79769e+307
10225         -1.79769e+307
10226         -1.79769e+307
10227         -1.79769e+307
10228         -1.79769e+307
10229         -1.79769e+307
10230         -1.79769e+307
10231         -1.79769e+307
10232         -1.79769e+307
10233         -1.79769e+307
10234         -1.79769e+307
10235         -1.79769e+307
10236         -1.79769e+307
10237         -1.79769e+307
10238         -1.79769e+307
10239         -1.79769e+307
10240         -1.79769e+307
10241         -1.79769e+307
10242         -1.79769e+307
10243         -1.79769e+307
10244         -1.79769e+307
10245         -1.79769e+307
10246         -1.79769e+307
10247         -1.79769e+307
10248         -1.79769e+307
10249         -1.79769e+307
10250         -1.79769e+307
10251         -1.79769e+307
10252         -1.79769e+307
10253         -1.79769e+307
10254         -1.79769e+307
10255         -1.79769e+307
10256         -1.79769e+307
10257         -1.79769e+307
10258         -1.79769e+307
10259         -1.79769e+307
10260         -1.79769e+307
10261         -1.79769e+307
10262         -1.79769e+307
10263         -1.79769e+307
10264         -1.79769e+307
10265         -1.79769e+307
10266         -1.79769e+307
10267         -1.79769e+307
10268         -1.79769e+307
10269         -1.79769e+307
10270         -1.79769e+307
10271         -1.79769e+307
10272         -1.79769e+307
10273         -1.79769e+307
10274         -1.79769e+307
10275         -1.79769e+307
10276         -1.79769e+307
10277         -1.79769e+307
10278         -1.79769e+307
10279         -1.79769e+307
10280         -1.79769e+307
10281         -1.79769e+307
10282         -1.79769e+307
10283         -1.79769e+307
10284         -1.79769e+307
10285         -1.79769e+307
10286         -1.79769e+307
10287         -1.79769e+307
10288         -1.79769e+307
10289         -1.79769e+307
10290         -1.79769e+307
10291         -1.79769e+307
10292         -1.79769e+307
10293         -1.79769e+307
10294         -1.79769e+307
10295         -1.79769e+307
10296         -1.79769e+307
10297         -1.79769e+307
10298         -1.79769e+307
10299         -1.79769e+307
10300         -1.79769e+307
10301         -1.79769e+307
10302         -1.79769e+307
10303         -1.79769e+307
10304         -1.79769e+307
10305         -1.79769e+307
10306         -1.79769e+307
10307         -1.79769e+307
10308         -1.79769e+307
10309         -1.79769e+307
10310         -1.79769e+307
10311         -1.79769e+307
10312         -1.79769e+307
10313         -1.79769e+307
10314         -1.79769e+307
10315         -1.79769e+307
10316         -1.79769e+307
10317         -1.79769e+307
10318         -1.79769e+307
10319         -1.79769e+307
10320         -1.79769e+307
10321         -1.79769e+307
10322         -1.79769e+307
10323         -1.79769e+307
10324         -1.79769e+307
10325         -1.79769e+307
10326         -1.79769e+307
10327         -1.79769e+307
10328         -1.79769e+307
10329         -1.79769e+307
10330         -1.79769e+307
10331         -1.79769e+307
10332         -1.79769e+307
10333         -1.79769e+307
10334         -1.79769e+307
10335         -1.79769e+307
10336         -1.79769e+307
10337         -1.79769e+307
10338         -1.79769e+307
10339         -1.79769e+307
10340         -1.79769e+307
10341         -1.79769e+307
10342         -1.79769e+307
10343         -1.79769e+307
10344         -1.79769e+307
10345         -1.79769e+307
10346         -1.79769e+307
10347         -1.79769e+307
10348         -1.79769e+307
10349         -1.79769e+307
10350         -1.79769e+307
10351         -1.79769e+307
10352         -1.79769e+307
10353         -1.79769e+307
10354         -1.79769e+307
10355         -1.79769e+307
10356         -1.79769e+307
10357         -1.79769e+307
10358         -1.79769e+307
10359         -1.79769e+307
10360         -1.79769e+307
10361         -1.79769e+307
10362         -1.79769e+307
10363         -1.79769e+307
10364         -1.79769e+307
10365         -1.79769e+307
10366         -1.79769e+307
10367         -1.79769e+307
10368         -1.79769e+307
10369         -1.79769e+307
10370         -1.79769e+307
10371         -1.79769e+307
10372         -1.79769e+307
10373         -1.79769e+307
10374         -1.79769e+307
10375         -1.79769e+307
10376         -1.79769e+307
10377         -1.79769e+307
10378         -1.79769e+307
10379         -1.79769e+307
10380         -1.79769e+307
10381         -1.79769e+307
10382         -1.79769e+307
10383         -1.79769e+307
10384         -1.79769e+307
10385         -1.79769e+307
10386         -1.79769e+307
10387         -1.79769e+307
10388         -1.79769e+307
10389         -1.79769e+307
10390         -1.79769e+307
10391         -1.79769e+307
10392         -1.79769e+307
10393         -1.79769e+307
10394         -1.79769e+307
10395         -1.79769e+307
10396         -1.79769e+307
10397         -1.79769e+307
10398         -1.79769e+307
10399         -1.79769e+307
10400         -1.79769e+307
10401         -1.79769e+307
10402         -1.79769e+307
10403         -1.79769e+307
10404         -1.79769e+307
10405         -1.79769e+307
10406         -1.79769e+307
10407         -1.79769e+307
10408         -1.79769e+307
10409         -1.79769e+307
10410         -1.79769e+307
10411         -1.79769e+307
10412         -1.79769e+307
10413         -1.79769e+307
10414         -1.79769e+307
10415         -1.79769e+307
10416         -1.79769e+307
10417         -1.79769e+307
10418         -1.79769e+307
10419         -1.79769e+307
10420         -1.79769e+307
10421         -1.79769e+307
10422         -1.79769e+307
10423         -1.79769e+307
10424         -1.79769e+307
10425         -1.79769e+307
10426         -1.79769e+307
10427         -1.79769e+307
10428         -1.79769e+307
10429         -1.79769e+307
10430         -1.79769e+307
10431         -1.79769e+307
10432         -1.79769e+307
10433         -1.79769e+307
10434         -1.79769e+307
10435         -1.79769e+307
10436         -1.79769e+307
10437         -1.79769e+307
10438         -1.79769e+307
10439         -1.79769e+307
10440         -1.79769e+307
10441         -1.79769e+307
10442         -1.79769e+307
10443         -1.79769e+307
10444         -1.79769e+307
10445         -1.79769e+307
10446         -1.79769e+307
10447         -1.79769e+307
10448         -1.79769e+307
10449         -1.79769e+307
10450         -1.79769e+307
10451         -1.79769e+307
10452         -1.79769e+307
10453         -1.79769e+307
10454         -1.79769e+307
10455         -1.79769e+307
10456         -1.79769e+307
10457         -1.79769e+307
10458         -1.79769e+307
10459         -1.79769e+307
10460         -1.79769e+307
10461         -1.79769e+307
10462         -1.79769e+307
10463         -1.79769e+307
10464         -1.79769e+307
10465         -1.79769e+307
10466         -1.79769e+307
10467         -1.79769e+307
10468         -1.79769e+307
10469         -1.79769e+307
10470         -1.79769e+307
10471         -1.79769e+307
10472         -1.79769e+307
10473         -1.79769e+307
10474         -1.79769e+307
10475         -1.79769e+307
10476         -1.79769e+307
10477         -1.79769e+307
10478         -1.79769e+307
10479         -1.79769e+307
10480         -1.79769e+307
10481         -1.79769e+307
10482         -1.79769e+307
10483         -1.79769e+307
10484         -1.79769e+307
10485         -1.79769e+307
10486         -1.79769e+307
10487         -1.79769e+307
10488         -1.79769e+307
10489         -1.79769e+307
10490         -1.79769e+307
10491         -1.79769e+307
10492         -1.79769e+307
10493         -1.79769e+307
10494         -1.79769e+307
10495         -1.79769e+307
10496         -1.79769e+307
10497         -1.79769e+307
10498         -1.79769e+307
10499         -1.79769e+307
10500         -1.79769e+307
10501         -1.79769e+307
10502         -1.79769e+307
10503         -1.79769e+307
10504         -1.79769e+307
10505         -1.79769e+307
10506         -1.79769e+307
10507         -1.79769e+307
10508         -1.79769e+307
10509         -1.79769e+307
10510         -1.79769e+307
10511         -1.79769e+307
10512         -1.79769e+307
10513         -1.79769e+307
10514         -1.79769e+307
10515         -1.79769e+307
10516         -1.79769e+307
10517         -1.79769e+307
10518         -1.79769e+307
10519         -1.79769e+307
10520         -1.79769e+307
10521         -1.79769e+307
10522         -1.79769e+307
10523         -1.79769e+307
10524         -1.79769e+307
10525         -1.79769e+307
10526         -1.79769e+307
10527         -1.79769e+307
10528         -1.79769e+307
10529         -1.79769e+307
10530         -1.79769e+307
10531         -1.79769e+307
10532         -1.79769e+307
10533         -1.79769e+307
10534         -1.79769e+307
10535         -1.79769e+307
10536         -1.79769e+307
10537         -1.79769e+307
10538         -1.79769e+307
10539         -1.79769e+307
10540         -1.79769e+307
10541         -1.79769e+307
10542         -1.79769e+307
10543         -1.79769e+307
10544         -1.79769e+307
10545         -1.79769e+307
10546         -1.79769e+307
10547         -1.79769e+307
10548         -1.79769e+307
10549         -1.79769e+307
10550         -1.79769e+307
10551         -1.79769e+307
10552         -1.79769e+307
10553         -1.79769e+307
10554         -1.79769e+307
10555         -1.79769e+307
10556         -1.79769e+307
10557         -1.79769e+307
10558         -1.79769e+307
10559         -1.79769e+307
10560         -1.79769e+307
10561         -1.79769e+307
10562         -1.79769e+307
10563         -1.79769e+307
10564         -1.79769e+307
10565         -1.79769e+307
10566         -1.79769e+307
10567         -1.79769e+307
10568         -1.79769e+307
10569         -1.79769e+307
10570         -1.79769e+307
10571         -1.79769e+307
10572         -1.79769e+307
10573         -1.79769e+307
10574         -1.79769e+307
10575         -1.79769e+307
10576         -1.79769e+307
10577         -1.79769e+307
10578         -1.79769e+307
10579         -1.79769e+307
10580         -1.79769e+307
10581         -1.79769e+307
10582         -1.79769e+307
10583         -1.79769e+307
10584         -1.79769e+307
10585         -1.79769e+307
10586         -1.79769e+307
10587         -1.79769e+307
10588         -1.79769e+307
10589         -1.79769e+307
10590         -1.79769e+307
10591         -1.79769e+307
10592         -1.79769e+307
10593         -1.79769e+307
10594         -1.79769e+307
10595         -1.79769e+307
10596         -1.79769e+307
10597         -1.79769e+307
10598         -1.79769e+307
10599         -1.79769e+307
10600         -1.79769e+307
10601         -1.79769e+307
10602         -1.79769e+307
10603         -1.79769e+307
10604         -1.79769e+307
10605         -1.79769e+307
10606         -1.79769e+307
10607         -1.79769e+307
10608         -1.79769e+307
10609         -1.79769e+307
10610         -1.79769e+307
10611         -1.79769e+307
10612         -1.79769e+307
10613         -1.79769e+307
10614         -1.79769e+307
10615         -1.79769e+307
10616         -1.79769e+307
10617         -1.79769e+307
10618         -1.79769e+307
10619         -1.79769e+307
10620         -1.79769e+307
10621         -1.79769e+307
10622         -1.79769e+307
10623         -1.79769e+307
10624         -1.79769e+307
10625         -1.79769e+307
10626         -1.79769e+307
10627         -1.79769e+307
10628         -1.79769e+307
10629         -1.79769e+307
10630         -1.79769e+307
10631         -1.79769e+307
10632         -1.79769e+307
10633         -1.79769e+307
10634         -1.79769e+307
10635         -1.79769e+307
10636         -1.79769e+307
10637         -1.79769e+307
10638         -1.79769e+307
10639         -1.79769e+307
10640         -1.79769e+307
10641         -1.79769e+307
10642         -1.79769e+307
10643         -1.79769e+307
10644         -1.79769e+307
10645         -1.79769e+307
10646         -1.79769e+307
10647         -1.79769e+307
10648         -1.79769e+307
10649         -1.79769e+307
10650         -1.79769e+307
10651         -1.79769e+307
10652         -1.79769e+307
10653         -1.79769e+307
10654         -1.79769e+307
10655         -1.79769e+307
10656         -1.79769e+307
10657         -1.79769e+307
10658         -1.79769e+307
10659         -1.79769e+307
10660         -1.79769e+307
10661         -1.79769e+307
10662         -1.79769e+307
10663         -1.79769e+307
10664         -1.79769e+307
10665         -1.79769e+307
10666         -1.79769e+307
10667         -1.79769e+307
10668         -1.79769e+307
10669         -1.79769e+307
10670         -1.79769e+307
10671         -1.79769e+307
10672         -1.79769e+307
10673         -1.79769e+307
10674         -1.79769e+307
10675         -1.79769e+307
10676         -1.79769e+307
10677         -1.79769e+307
10678         -1.79769e+307
10679         -1.79769e+307
10680         -1.79769e+307
10681         -1.79769e+307
10682         -1.79769e+307
10683         -1.79769e+307
10684         -1.79769e+307
10685         -1.79769e+307
10686         -1.79769e+307
10687         -1.79769e+307
10688         -1.79769e+307
10689         -1.79769e+307
10690         -1.79769e+307
10691         -1.79769e+307
10692         -1.79769e+307
10693         -1.79769e+307
10694         -1.79769e+307
10695         -1.79769e+307
10696         -1.79769e+307
10697         -1.79769e+307
10698         -1.79769e+307
10699         -1.79769e+307
10700         -1.79769e+307
10701         -1.79769e+307
10702         -1.79769e+307
10703         -1.79769e+307
10704         -1.79769e+307
10705         -1.79769e+307
10706         -1.79769e+307
10707         -1.79769e+307
10708         -1.79769e+307
10709         -1.79769e+307
10710         -1.79769e+307
10711         -1.79769e+307
10712         -1.79769e+307
10713         -1.79769e+307
10714         -1.79769e+307
10715         -1.79769e+307
10716         -1.79769e+307
10717         -1.79769e+307
10718         -1.79769e+307
10719         -1.79769e+307
10720         -1.79769e+307
10721         -1.79769e+307
10722         -1.79769e+307
10723         -1.79769e+307
10724         -1.79769e+307
10725         -1.79769e+307
10726         -1.79769e+307
10727         -1.79769e+307
10728         -1.79769e+307
10729         -1.79769e+307
10730         -1.79769e+307
10731         -1.79769e+307
10732         -1.79769e+307
10733         -1.79769e+307
10734         -1.79769e+307
10735         -1.79769e+307
10736         -1.79769e+307
10737         -1.79769e+307
10738         -1.79769e+307
10739         -1.79769e+307
10740         -1.79769e+307
10741         -1.79769e+307
10742         -1.79769e+307
10743         -1.79769e+307
10744         -1.79769e+307
10745         -1.79769e+307
10746         -1.79769e+307
10747         -1.79769e+307
10748         -1.79769e+307
10749         -1.79769e+307
10750         -1.79769e+307
10751         -1.79769e+307
10752         -1.79769e+307
10753         -1.79769e+307
10754         -1.79769e+307
10755         -1.79769e+307
10756         -1.79769e+307
10757         -1.79769e+307
10758         -1.79769e+307
10759         -1.79769e+307
10760         -1.79769e+307
10761         -1.79769e+307
10762         -1.79769e+307
10763         -1.79769e+307
10764         -1.79769e+307
10765         -1.79769e+307
10766         -1.79769e+307
10767         -1.79769e+307
10768         -1.79769e+307
10769         -1.79769e+307
10770         -1.79769e+307
10771         -1.79769e+307
10772         -1.79769e+307
10773         -1.79769e+307
10774         -1.79769e+307
10775         -1.79769e+307
10776         -1.79769e+307
10777         -1.79769e+307
10778         -1.79769e+307
10779         -1.79769e+307
10780         -1.79769e+307
10781         -1.79769e+307
10782         -1.79769e+307
10783         -1.79769e+307
10784         -1.79769e+307
10785         -1.79769e+307
10786         -1.79769e+307
10787         -1.79769e+307
10788         -1.79769e+307
10789         -1.79769e+307
10790         -1.79769e+307
10791         -1.79769e+307
10792         -1.79769e+307
10793         -1.79769e+307
10794         -1.79769e+307
10795         -1.79769e+307
10796         -1.79769e+307
10797         -1.79769e+307
10798         -1.79769e+307
10799         -1.79769e+307
10800         -1.79769e+307
10801         -1.79769e+307
10802         -1.79769e+307
10803         -1.79769e+307
10804         -1.79769e+307
10805         -1.79769e+307
10806         -1.79769e+307
10807         -1.79769e+307
10808         -1.79769e+307
10809         -1.79769e+307
10810         -1.79769e+307
10811         -1.79769e+307
10812         -1.79769e+307
10813         -1.79769e+307
10814         -1.79769e+307
10815         -1.79769e+307
10816         -1.79769e+307
10817         -1.79769e+307
10818         -1.79769e+307
10819         -1.79769e+307
10820         -1.79769e+307
10821         -1.79769e+307
10822         -1.79769e+307
10823         -1.79769e+307
10824         -1.79769e+307
10825         -1.79769e+307
10826         -1.79769e+307
10827         -1.79769e+307
10828         -1.79769e+307
10829         -1.79769e+307
10830         -1.79769e+307
10831         -1.79769e+307
10832         -1.79769e+307
10833         -1.79769e+307
10834         -1.79769e+307
10835         -1.79769e+307
10836         -1.79769e+307
10837         -1.79769e+307
10838         -1.79769e+307
10839         -1.79769e+307
10840         -1.79769e+307
10841         -1.79769e+307
10842         -1.79769e+307
10843         -1.79769e+307
10844         -1.79769e+307
10845         -1.79769e+307
10846         -1.79769e+307
10847         -1.79769e+307
10848         -1.79769e+307
10849         -1.79769e+307
10850         -1.79769e+307
10851         -1.79769e+307
10852         -1.79769e+307
10853         -1.79769e+307
10854         -1.79769e+307
10855         -1.79769e+307
10856         -1.79769e+307
10857         -1.79769e+307
10858         -1.79769e+307
10859         -1.79769e+307
10860         -1.79769e+307
10861         -1.79769e+307
10862         -1.79769e+307
10863         -1.79769e+307
10864         -1.79769e+307
10865         -1.79769e+307
10866         -1.79769e+307
10867         -1.79769e+307
10868         -1.79769e+307
10869         -1.79769e+307
10870         -1.79769e+307
10871         -1.79769e+307
10872         -1.79769e+307
10873         -1.79769e+307
10874         -1.79769e+307
10875         -1.79769e+307
10876         -1.79769e+307
10877         -1.79769e+307
10878         -1.79769e+307
10879         -1.79769e+307
10880         -1.79769e+307
10881         -1.79769e+307
10882         -1.79769e+307
10883         -1.79769e+307
10884         -1.79769e+307
10885         -1.79769e+307
10886         -1.79769e+307
10887         -1.79769e+307
10888         -1.79769e+307
10889         -1.79769e+307
10890         -1.79769e+307
10891         -1.79769e+307
10892         -1.79769e+307
10893         -1.79769e+307
10894         -1.79769e+307
10895         -1.79769e+307
10896         -1.79769e+307
10897         -1.79769e+307
10898         -1.79769e+307
10899         -1.79769e+307
10900         -1.79769e+307
10901         -1.79769e+307
10902         -1.79769e+307
10903         -1.79769e+307
10904         -1.79769e+307
10905         -1.79769e+307
10906         -1.79769e+307
10907         -1.79769e+307
10908         -1.79769e+307
10909         -1.79769e+307
10910         -1.79769e+307
10911         -1.79769e+307
10912         -1.79769e+307
10913         -1.79769e+307
10914         -1.79769e+307
10915         -1.79769e+307
10916         -1.79769e+307
10917         -1.79769e+307
10918         -1.79769e+307
10919         -1.79769e+307
10920         -1.79769e+307
10921         -1.79769e+307
10922         -1.79769e+307
10923         -1.79769e+307
10924         -1.79769e+307
10925         -1.79769e+307
10926         -1.79769e+307
10927         -1.79769e+307
10928         -1.79769e+307
10929         -1.79769e+307
10930         -1.79769e+307
10931         -1.79769e+307
10932         -1.79769e+307
10933         -1.79769e+307
10934         -1.79769e+307
10935         -1.79769e+307
10936         -1.79769e+307
10937         -1.79769e+307
10938         -1.79769e+307
10939         -1.79769e+307
10940         -1.79769e+307
10941         -1.79769e+307
10942         -1.79769e+307
10943         -1.79769e+307
10944         -1.79769e+307
10945         -1.79769e+307
10946         -1.79769e+307
10947         -1.79769e+307
10948         -1.79769e+307
10949         -1.79769e+307
10950         -1.79769e+307
10951         -1.79769e+307
10952         -1.79769e+307
10953         -1.79769e+307
10954         -1.79769e+307
10955         -1.79769e+307
10956         -1.79769e+307
10957         -1.79769e+307
10958         -1.79769e+307
10959         -1.79769e+307
10960         -1.79769e+307
10961         -1.79769e+307
10962         -1.79769e+307
10963         -1.79769e+307
10964         -1.79769e+307
10965         -1.79769e+307
10966         -1.79769e+307
10967         -1.79769e+307
10968         -1.79769e+307
10969         -1.79769e+307
10970         -1.79769e+307
10971         -1.79769e+307
10972         -1.79769e+307
10973         -1.79769e+307
10974         -1.79769e+307
10975         -1.79769e+307
10976         -1.79769e+307
10977         -1.79769e+307
10978         -1.79769e+307
10979         -1.79769e+307
10980         -1.79769e+307
10981         -1.79769e+307
10982         -1.79769e+307
10983         -1.79769e+307
10984         -1.79769e+307
10985         -1.79769e+307
10986         -1.79769e+307
10987         -1.79769e+307
10988         -1.79769e+307
10989         -1.79769e+307
10990         -1.79769e+307
10991         -1.79769e+307
10992         -1.79769e+307
10993         -1.79769e+307
10994         -1.79769e+307
10995         -1.79769e+307
10996         -1.79769e+307
10997         -1.79769e+307
10998         -1.79769e+307
10999         -1.79769e+307
11000         -1.79769e+307
11001         -1.79769e+307
11002         -1.79769e+307
11003         -1.79769e+307
11004         -1.79769e+307
11005         -1.79769e+307
11006         -1.79769e+307
11007         -1.79769e+307
11008         -1.79769e+307
11009         -1.79769e+307
11010         -1.79769e+307
11011         -1.79769e+307
11012         -1.79769e+307
11013         -1.79769e+307
11014         -1.79769e+307
11015         -1.79769e+307
11016         -1.79769e+307
11017         -1.79769e+307
11018         -1.79769e+307
11019         -1.79769e+307
11020         -1.79769e+307
11021         -1.79769e+307
11022         -1.79769e+307
11023         -1.79769e+307
11024         -1.79769e+307
11025         -1.79769e+307
11026         -1.79769e+307
11027         -1.79769e+307
11028         -1.79769e+307
11029         -1.79769e+307
11030         -1.79769e+307
11031         -1.79769e+307
11032         -1.79769e+307
11033         -1.79769e+307
11034         -1.79769e+307
11035         -1.79769e+307
11036         -1.79769e+307
11037         -1.79769e+307
11038         -1.79769e+307
11039         -1.79769e+307
11040         -1.79769e+307
11041         -1.79769e+307
11042         -1.79769e+307
11043         -1.79769e+307
11044         -1.79769e+307
11045         -1.79769e+307
11046         -1.79769e+307
11047         -1.79769e+307
11048         -1.79769e+307
11049         -1.79769e+307
11050         -1.79769e+307
11051         -1.79769e+307
11052         -1.79769e+307
11053         -1.79769e+307
11054         -1.79769e+307
11055         -1.79769e+307
11056         -1.79769e+307
11057         -1.79769e+307
11058         -1.79769e+307
11059         -1.79769e+307
11060         -1.79769e+307
11061         -1.79769e+307
11062         -1.79769e+307
11063         -1.79769e+307
11064         -1.79769e+307
11065         -1.79769e+307
11066         -1.79769e+307
11067         -1.79769e+307
11068         -1.79769e+307