/*--------------------------------*- C++ -*----------------------------------*\
  =========                 |
  \\      /  F ield         | OpenFOAM: The Open Source CFD Toolbox
   \\    /   O peration     | Website:  https://openfoam.org
    \\  /    A nd           | Version:  10
     \\/     M anipulation  |
\*---------------------------------------------------------------------------*/
FoamFile
{
    format      ascii;
    class       volScalarField;
    location    "26000";
    object      Co;
}
// * * * * * * * * * * * * * * * * * * * * * * * * * * * * * * * * * * * * * //

dimensions      [0 0 0 0 0 0 0];

internalField   nonuniform List<scalar> 
17808
(
6256.75
5649.08
5384.2
5204.45
5067.09
4955.95
4862.44
4781.56
4710.17
4646.15
4588.03
4534.73
4485.43
4439.53
4396.52
4356.02
4317.71
4281.33
4246.66
4213.53
4181.76
4151.24
4121.85
4093.48
4066.06
4039.49
4013.73
3988.7
3964.35
3940.64
3917.52
3894.95
3872.89
3851.33
3830.21
3809.53
3789.24
3769.34
3749.79
3730.59
3711.71
3693.13
3674.84
3656.82
3639.07
3621.56
3604.29
3587.25
3570.42
3553.79
3537.36
3521.12
3505.05
3489.15
3473.41
3457.83
3442.39
3427.09
3411.93
3396.9
3381.98
3367.18
3352.5
3337.92
3323.43
3309.05
3294.75
3280.54
3266.41
3252.36
3238.38
3224.46
3210.61
3196.82
3183.08
3169.4
3155.76
3142.17
3128.61
3115.09
3101.6
3088.15
3074.74
3061.36
3047.98
3034.62
3021.25
3007.89
2994.53
2981.15
2967.76
2954.36
6065.64
5470.34
5211.66
5037.86
4906.22
4800.25
4711.35
4634.53
4566.7
4505.81
4450.45
4399.59
4352.47
4308.52
4267.28
4228.4
4191.56
4156.55
4123.15
4091.19
4060.54
4031.06
4002.66
3975.23
3948.7
3923
3898.06
3873.82
3850.23
3827.25
3804.84
3782.96
3761.58
3740.66
3720.18
3700.11
3680.43
3661.11
3642.14
3623.5
3605.17
3587.13
3569.37
3551.88
3534.64
3517.64
3500.87
3484.32
3467.97
3451.82
3435.86
3420.08
3404.47
3389.03
3373.74
3358.6
3343.6
3328.74
3314.01
3299.4
3284.91
3270.54
3256.27
3242.1
3228.03
3214.06
3200.17
3186.36
3172.64
3158.98
3145.4
3131.88
3118.43
3105.03
3091.68
3078.39
3065.14
3051.93
3038.77
3025.63
3012.53
2999.45
2986.42
2973.42
2960.43
2947.45
2934.47
2921.49
2908.5
2895.51
2882.5
2869.48
5890.14
5311.73
5059.63
4889.82
4761.21
4657.81
4571.25
4496.65
4430.93
4372.05
4318.59
4269.53
4224.12
4181.76
4142.03
4104.56
4069.06
4035.29
4003.08
3972.24
3942.65
3914.18
3886.73
3860.22
3834.57
3809.7
3785.56
3762.1
3739.26
3717.01
3695.29
3674.09
3653.36
3633.08
3613.22
3593.76
3574.67
3555.93
3537.52
3519.43
3501.64
3484.13
3466.9
3449.92
3433.18
3416.67
3400.39
3384.31
3368.44
3352.75
3337.25
3321.93
3306.76
3291.76
3276.91
3262.21
3247.64
3233.2
3218.89
3204.7
3190.63
3176.66
3162.8
3149.04
3135.37
3121.79
3108.3
3094.89
3081.55
3068.29
3055.09
3041.96
3028.89
3015.87
3002.91
2989.99
2977.12
2964.29
2951.5
2938.74
2926.01
2913.31
2900.64
2888.01
2875.39
2862.78
2850.17
2837.56
2824.95
2812.33
2799.7
2787.05
5719.49
5157.5
4912.44
4747.42
4622.39
4521.81
4437.6
4365.03
4301.13
4243.92
4192.03
4144.45
4100.44
4059.43
4020.97
3984.72
3950.39
3917.75
3886.6
3856.79
3828.18
3800.66
3774.12
3748.48
3723.66
3699.6
3676.23
3653.52
3631.4
3609.85
3588.82
3568.27
3548.19
3528.53
3509.27
3490.4
3471.89
3453.71
3435.86
3418.31
3401.04
3384.05
3367.33
3350.84
3334.6
3318.57
3302.76
3287.15
3271.74
3256.51
3241.46
3226.57
3211.85
3197.28
3182.85
3168.57
3154.42
3140.4
3126.5
3112.71
3099.04
3085.48
3072.01
3058.64
3045.36
3032.17
3019.06
3006.03
2993.08
2980.19
2967.37
2954.62
2941.92
2929.27
2916.68
2904.13
2891.63
2879.17
2866.74
2854.34
2841.98
2829.64
2817.33
2805.05
2792.79
2780.54
2768.3
2756.05
2743.8
2731.54
2719.27
2706.98
5554.08
5007.89
4769.41
4608.94
4487.41
4389.7
4307.91
4237.44
4175.42
4119.9
4069.56
4023.42
3980.75
3941
3903.74
3868.63
3835.39
3803.79
3773.64
3744.79
3717.1
3690.46
3664.77
3639.95
3615.93
3592.64
3570.02
3548.02
3526.6
3505.73
3485.35
3465.44
3445.98
3426.93
3408.26
3389.96
3372.01
3354.38
3337.07
3320.04
3303.3
3286.81
3270.58
3254.58
3238.81
3223.26
3207.91
3192.76
3177.79
3163.01
3148.39
3133.94
3119.64
3105.49
3091.48
3077.61
3063.87
3050.25
3036.75
3023.36
3010.08
2996.9
2983.82
2970.83
2957.93
2945.12
2932.39
2919.73
2907.14
2894.63
2882.17
2869.78
2857.44
2845.16
2832.93
2820.74
2808.59
2796.48
2784.41
2772.37
2760.36
2748.37
2736.41
2724.47
2712.57
2700.67
2688.77
2676.88
2664.98
2653.07
2641.15
2629.21
5393.88
4863.29
4631.34
4475.28
4357.08
4262.07
4182.56
4114.08
4053.82
3999.91
3951.03
3906.25
3864.85
3826.3
3790.17
3756.13
3723.91
3693.29
3664.08
3636.13
3609.31
3583.51
3558.63
3534.59
3511.32
3488.77
3466.86
3445.55
3424.8
3404.57
3384.83
3365.54
3346.68
3328.21
3310.12
3292.38
3274.97
3257.87
3241.08
3224.57
3208.32
3192.33
3176.58
3161.06
3145.75
3130.66
3115.76
3101.05
3086.53
3072.17
3057.98
3043.95
3030.06
3016.32
3002.72
2989.25
2975.9
2962.68
2949.56
2936.56
2923.66
2910.86
2898.16
2885.54
2873.01
2860.57
2848.2
2835.9
2823.68
2811.52
2799.42
2787.38
2775.4
2763.46
2751.58
2739.74
2727.94
2716.18
2704.45
2692.75
2681.08
2669.44
2657.81
2646.22
2634.65
2623.09
2611.53
2599.98
2588.42
2576.85
2565.27
2553.68
5238.51
4723.14
4497.71
4346.02
4231.11
4138.74
4061.44
3994.87
3936.29
3883.89
3836.39
3792.89
3752.68
3715.25
3680.18
3647.14
3615.89
3586.18
3557.85
3530.75
3504.75
3479.74
3455.63
3432.33
3409.78
3387.92
3366.69
3346.04
3325.93
3306.33
3287.2
3268.5
3250.21
3232.31
3214.77
3197.57
3180.69
3164.11
3147.82
3131.81
3116.05
3100.53
3085.25
3070.19
3055.34
3040.69
3026.24
3011.96
2997.86
2983.92
2970.15
2956.52
2943.04
2929.7
2916.5
2903.41
2890.45
2877.61
2864.87
2852.24
2839.72
2827.29
2814.95
2802.69
2790.52
2778.43
2766.42
2754.48
2742.6
2730.79
2719.04
2707.34
2695.7
2684.11
2672.57
2661.06
2649.6
2638.18
2626.78
2615.42
2604.08
2592.77
2581.48
2570.21
2558.97
2547.74
2536.51
2525.29
2514.06
2502.82
2491.58
2480.32
5087.7
4587.13
4368.08
4220.66
4108.98
4019.21
3944.08
3879.37
3822.44
3771.51
3725.35
3683.08
3644.01
3607.65
3573.59
3541.52
3511.17
3482.34
3454.85
3428.55
3403.33
3379.07
3355.68
3333.09
3311.23
3290.03
3269.44
3249.43
3229.93
3210.93
3192.37
3174.25
3156.52
3139.16
3122.15
3105.47
3089.1
3073.03
3057.23
3041.69
3026.41
3011.36
2996.53
2981.92
2967.51
2953.29
2939.26
2925.41
2911.72
2898.2
2884.82
2871.6
2858.51
2845.56
2832.73
2820.03
2807.45
2794.97
2782.61
2770.34
2758.18
2746.1
2734.12
2722.22
2710.4
2698.66
2686.99
2675.38
2663.85
2652.38
2640.96
2629.6
2618.29
2607.03
2595.82
2584.65
2573.51
2562.41
2551.35
2540.31
2529.3
2518.31
2507.34
2496.39
2485.46
2474.55
2463.65
2452.74
2441.84
2430.92
2420
2409.06
4941.29
4455.09
4242.27
4099.01
3990.48
3903.25
3830.24
3767.36
3712.03
3662.54
3617.69
3576.61
3538.65
3503.33
3470.25
3439.09
3409.62
3381.63
3354.94
3329.42
3304.93
3281.39
3258.7
3236.78
3215.57
3195.01
3175.04
3155.63
3136.72
3118.29
3100.3
3082.72
3065.52
3048.69
3032.2
3016.02
3000.14
2984.55
2969.23
2954.16
2939.33
2924.73
2910.34
2896.16
2882.18
2868.39
2854.77
2841.33
2828.04
2814.91
2801.93
2789.09
2776.39
2763.82
2751.37
2739.03
2726.81
2714.7
2702.69
2690.78
2678.97
2667.24
2655.61
2644.05
2632.57
2621.16
2609.83
2598.56
2587.36
2576.21
2565.13
2554.09
2543.11
2532.17
2521.28
2510.42
2499.61
2488.83
2478.08
2467.35
2456.66
2445.98
2435.33
2424.69
2414.07
2403.47
2392.87
2382.28
2371.69
2361.09
2350.47
2339.85
4799.13
4326.9
4120.16
3980.96
3875.5
3790.73
3719.79
3658.69
3604.92
3556.83
3513.25
3473.34
3436.46
3402.14
3370
3339.74
3311.12
3283.93
3258.02
3233.24
3209.47
3186.61
3164.59
3143.32
3122.73
3102.78
3083.41
3064.57
3046.23
3028.35
3010.89
2993.84
2977.16
2960.83
2944.83
2929.14
2913.74
2898.61
2883.75
2869.13
2854.74
2840.58
2826.62
2812.86
2799.3
2785.91
2772.7
2759.65
2746.76
2734.01
2721.41
2708.95
2696.62
2684.41
2672.32
2660.35
2648.49
2636.73
2625.07
2613.5
2602.03
2590.64
2579.34
2568.12
2556.97
2545.89
2534.88
2523.94
2513.06
2502.23
2491.46
2480.75
2470.08
2459.45
2448.87
2438.33
2427.82
2417.35
2406.91
2396.49
2386.1
2375.73
2365.38
2355.05
2344.73
2334.42
2324.14
2313.85
2303.55
2293.26
2282.95
2272.63
4661.1
4202.45
4001.61
3866.37
3763.9
3681.54
3612.61
3553.24
3501
3454.28
3411.93
3373.15
3337.32
3303.98
3272.75
3243.36
3215.55
3189.15
3163.98
3139.91
3116.83
3094.64
3073.25
3052.6
3032.62
3013.26
2994.46
2976.17
2958.37
2941.02
2924.09
2907.54
2891.36
2875.52
2859.99
2844.77
2829.83
2815.15
2800.73
2786.54
2772.58
2758.84
2745.3
2731.95
2718.78
2705.79
2692.97
2680.31
2667.79
2655.43
2643.2
2631.1
2619.13
2607.28
2595.54
2583.92
2572.4
2560.98
2549.66
2538.43
2527.29
2516.24
2505.26
2494.36
2483.53
2472.78
2462.09
2451.46
2440.89
2430.38
2419.92
2409.51
2399.14
2388.82
2378.55
2368.31
2358.1
2347.93
2337.79
2327.67
2317.57
2307.5
2297.45
2287.41
2277.38
2267.37
2257.37
2247.37
2237.38
2227.37
2217.36
2207.33
4527.07
4081.59
3886.52
3755.12
3655.57
3575.55
3508.58
3450.9
3400.14
3354.74
3313.6
3275.92
3241.11
3208.71
3178.38
3149.82
3122.81
3097.16
3072.71
3049.34
3026.92
3005.37
2984.61
2964.56
2945.16
2926.36
2908.11
2890.36
2873.08
2856.24
2839.81
2823.75
2808.04
2792.67
2777.6
2762.83
2748.33
2734.09
2720.1
2706.33
2692.79
2679.45
2666.31
2653.36
2640.58
2627.97
2615.53
2603.24
2591.09
2579.09
2567.22
2555.48
2543.86
2532.35
2520.96
2509.68
2498.49
2487.41
2476.42
2465.51
2454.7
2443.96
2433.3
2422.72
2412.2
2401.76
2391.37
2381.05
2370.79
2360.58
2350.42
2340.31
2330.24
2320.22
2310.24
2300.29
2290.38
2280.5
2270.64
2260.82
2251.01
2241.23
2231.46
2221.71
2211.97
2202.24
2192.52
2182.81
2173.1
2163.38
2153.66
2143.92
4396.91
3964.23
3774.75
3647.1
3550.39
3472.65
3407.59
3351.55
3302.24
3258.13
3218.16
3181.55
3147.73
3116.25
3086.78
3059.04
3032.8
3007.88
2984.14
2961.43
2939.66
2918.73
2898.57
2879.1
2860.26
2842
2824.28
2807.05
2790.28
2773.93
2757.98
2742.39
2727.15
2712.22
2697.6
2683.26
2669.19
2655.37
2641.79
2628.43
2615.29
2602.34
2589.59
2577.02
2564.62
2552.39
2540.31
2528.38
2516.59
2504.94
2493.42
2482.02
2470.74
2459.57
2448.52
2437.56
2426.7
2415.94
2405.27
2394.68
2384.18
2373.75
2363.41
2353.13
2342.92
2332.77
2322.69
2312.67
2302.7
2292.78
2282.91
2273.09
2263.32
2253.58
2243.89
2234.23
2224.6
2215
2205.43
2195.89
2186.36
2176.86
2167.37
2157.9
2148.43
2138.98
2129.54
2120.11
2110.67
2101.23
2091.78
2082.32
4270.5
3850.27
3666.22
3542.22
3448.26
3372.74
3309.53
3255.09
3207.19
3164.33
3125.5
3089.93
3057.08
3026.5
2997.87
2970.92
2945.43
2921.22
2898.16
2876.1
2854.95
2834.63
2815.04
2796.13
2777.84
2760.11
2742.9
2726.17
2709.89
2694.02
2678.53
2663.39
2648.6
2634.11
2619.92
2606
2592.34
2578.93
2565.75
2552.78
2540.02
2527.46
2515.08
2502.88
2490.84
2478.97
2467.25
2455.67
2444.23
2432.92
2421.73
2410.67
2399.72
2388.88
2378.14
2367.51
2356.97
2346.52
2336.16
2325.88
2315.68
2305.56
2295.51
2285.53
2275.62
2265.77
2255.97
2246.24
2236.56
2226.93
2217.35
2207.81
2198.31
2188.86
2179.44
2170.06
2160.71
2151.39
2142.09
2132.82
2123.57
2114.34
2105.12
2095.92
2086.73
2077.54
2068.37
2059.2
2050.03
2040.86
2031.69
2022.5
4147.75
3739.59
3560.83
3440.37
3349.1
3275.73
3214.33
3161.44
3114.9
3073.27
3035.54
3000.99
2969.07
2939.37
2911.55
2885.37
2860.61
2837.09
2814.69
2793.26
2772.72
2752.98
2733.96
2715.59
2697.82
2680.61
2663.89
2647.65
2631.84
2616.42
2601.38
2586.69
2572.32
2558.26
2544.48
2530.97
2517.71
2504.69
2491.89
2479.31
2466.92
2454.73
2442.71
2430.87
2419.19
2407.66
2396.28
2385.05
2373.94
2362.96
2352.11
2341.37
2330.74
2320.21
2309.79
2299.47
2289.23
2279.09
2269.03
2259.05
2249.15
2239.32
2229.56
2219.87
2210.24
2200.68
2191.17
2181.72
2172.32
2162.96
2153.66
2144.39
2135.17
2125.99
2116.84
2107.73
2098.65
2089.59
2080.57
2071.56
2062.57
2053.61
2044.66
2035.72
2026.79
2017.87
2008.95
2000.04
1991.14
1982.23
1973.31
1964.39
4028.53
3632.1
3458.48
3341.47
3252.8
3181.53
3121.88
3070.5
3025.29
2984.85
2948.2
2914.64
2883.63
2854.77
2827.75
2802.32
2778.26
2755.42
2733.65
2712.84
2692.89
2673.71
2655.23
2637.39
2620.14
2603.42
2587.19
2571.41
2556.05
2541.09
2526.48
2512.22
2498.26
2484.61
2471.23
2458.11
2445.24
2432.6
2420.18
2407.96
2395.94
2384.1
2372.43
2360.94
2349.6
2338.41
2327.36
2316.45
2305.67
2295.02
2284.48
2274.05
2263.73
2253.52
2243.4
2233.37
2223.44
2213.59
2203.82
2194.14
2184.52
2174.98
2165.5
2156.1
2146.75
2137.46
2128.22
2119.04
2109.91
2100.83
2091.8
2082.8
2073.84
2064.93
2056.04
2047.19
2038.37
2029.58
2020.81
2012.06
2003.33
1994.62
1985.93
1977.25
1968.57
1959.91
1951.25
1942.59
1933.93
1925.28
1916.62
1907.95
3912.74
3527.71
3359.08
3245.42
3159.29
3090.05
3032.1
2982.2
2938.28
2898.99
2863.39
2830.78
2800.66
2772.63
2746.38
2721.67
2698.31
2676.12
2654.97
2634.75
2615.37
2596.75
2578.8
2561.47
2544.71
2528.47
2512.71
2497.38
2482.47
2467.94
2453.75
2439.9
2426.35
2413.09
2400.1
2387.37
2374.87
2362.59
2350.53
2338.67
2327
2315.5
2304.18
2293.02
2282.01
2271.15
2260.43
2249.83
2239.37
2229.02
2218.79
2208.67
2198.65
2188.73
2178.91
2169.18
2159.53
2149.97
2140.49
2131.08
2121.75
2112.48
2103.28
2094.15
2085.07
2076.05
2067.08
2058.17
2049.3
2040.48
2031.71
2022.97
2014.27
2005.61
1996.99
1988.39
1979.82
1971.28
1962.76
1954.27
1945.79
1937.33
1928.89
1920.45
1912.03
1903.61
1895.2
1886.79
3800.29
3426.33
3262.54
3152.14
3068.47
3001.22
2944.93
2896.44
2853.78
2815.62
2781.04
2749.36
2720.1
2692.87
2667.37
2643.37
2620.67
2599.11
2578.57
2558.94
2540.11
2522.01
2504.58
2487.75
2471.47
2455.7
2440.39
2425.51
2411.02
2396.91
2383.13
2369.68
2356.52
2343.65
2331.03
2318.66
2306.53
2294.61
2282.9
2271.38
2260.05
2248.89
2237.9
2227.06
2216.37
2205.82
2195.41
2185.13
2174.97
2164.93
2154.99
2145.17
2135.44
2125.81
2116.28
2106.83
2097.46
2088.18
2078.97
2069.84
2060.78
2051.78
2042.85
2033.98
2025.16
2016.4
2007.7
1999.04
1990.43
1981.87
1973.34
1964.86
1956.41
1948
1939.62
1931.28
1922.95
1914.66
1906.39
1898.13
1889.9
1881.68
1873.48
1865.29
1857.11
1848.93
1840.76
1832.59
3691.08
3327.86
3168.78
3061.55
2980.28
2914.94
2860.26
2813.17
2771.73
2734.66
2701.06
2670.29
2641.87
2615.42
2590.65
2567.33
2545.28
2524.34
2504.39
2485.32
2467.03
2449.45
2432.52
2416.17
2400.36
2385.04
2370.16
2355.71
2341.64
2327.93
2314.56
2301.49
2288.71
2276.21
2263.96
2251.95
2240.16
2228.59
2217.22
2206.04
2195.03
2184.2
2173.52
2163
2152.62
2142.38
2132.27
2122.29
2112.43
2102.67
2093.03
2083.49
2074.05
2064.7
2055.44
2046.27
2037.18
2028.16
2019.22
2010.35
2001.55
1992.82
1984.15
1975.53
1966.97
1958.47
1950.01
1941.61
1933.25
1924.93
1916.65
1908.42
1900.21
1892.04
1883.91
1875.8
1867.72
1859.66
1851.63
1843.61
1835.62
1827.64
1819.67
1811.71
1803.76
1795.82
1787.89
1779.95
3585.01
3232.23
3077.72
2973.57
2894.63
2831.16
2778.05
2732.3
2692.04
2656.03
2623.4
2593.51
2565.9
2540.21
2516.15
2493.5
2472.08
2451.74
2432.36
2413.83
2396.06
2378.99
2362.54
2346.66
2331.3
2316.42
2301.98
2287.94
2274.27
2260.96
2247.97
2235.28
2222.87
2210.72
2198.83
2187.16
2175.72
2164.48
2153.44
2142.58
2131.89
2121.37
2111
2100.79
2090.71
2080.77
2070.95
2061.26
2051.68
2042.21
2032.85
2023.59
2014.42
2005.34
1996.35
1987.45
1978.62
1969.87
1961.19
1952.58
1944.03
1935.55
1927.13
1918.76
1910.45
1902.2
1893.99
1885.82
1877.71
1869.63
1861.59
1853.59
1845.63
1837.69
1829.79
1821.92
1814.07
1806.24
1798.44
1790.66
1782.89
1775.14
1767.4
1759.67
1751.95
3481.99
3139.35
2989.29
2888.12
2811.44
2749.79
2698.2
2653.76
2614.66
2579.68
2547.98
2518.95
2492.12
2467.17
2443.79
2421.79
2400.99
2381.23
2362.4
2344.41
2327.15
2310.57
2294.59
2279.16
2264.25
2249.79
2235.76
2222.12
2208.85
2195.92
2183.3
2170.98
2158.92
2147.13
2135.58
2124.25
2113.13
2102.22
2091.5
2080.95
2070.57
2060.36
2050.29
2040.37
2030.59
2020.93
2011.4
2001.99
1992.69
1983.49
1974.4
1965.41
1956.51
1947.69
1938.96
1930.32
1921.74
1913.25
1904.82
1896.46
1888.16
1879.93
1871.75
1863.63
1855.56
1847.54
1839.57
1831.64
1823.76
1815.91
1808.11
1800.34
1792.6
1784.9
1777.22
1769.58
1761.96
1754.36
1746.78
1739.22
1731.67
1724.15
1716.63
1709.12
1701.63
3381.93
3049.15
2903.39
2805.13
2730.65
2670.77
2620.65
2577.48
2539.5
2505.52
2474.73
2446.53
2420.48
2396.23
2373.53
2352.16
2331.95
2312.76
2294.47
2276.99
2260.23
2244.12
2228.6
2213.62
2199.13
2185.09
2171.46
2158.21
2145.32
2132.76
2120.51
2108.53
2096.83
2085.37
2074.15
2063.15
2052.36
2041.76
2031.34
2021.1
2011.02
2001.1
1991.33
1981.69
1972.19
1962.82
1953.56
1944.42
1935.39
1926.46
1917.64
1908.9
1900.26
1891.7
1883.23
1874.83
1866.51
1858.25
1850.07
1841.95
1833.9
1825.9
1817.96
1810.07
1802.24
1794.45
1786.71
1779.01
1771.36
1763.74
1756.16
1748.62
1741.1
1733.62
1726.17
1718.74
1711.34
1703.96
1696.6
1689.26
1681.93
1674.62
1667.32
1660.03
1652.74
3284.75
2961.53
2819.97
2724.53
2652.19
2594.02
2545.34
2503.41
2466.51
2433.51
2403.6
2376.2
2350.9
2327.35
2305.3
2284.54
2264.91
2246.27
2228.5
2211.52
2195.24
2179.59
2164.52
2149.96
2135.89
2122.25
2109.01
2096.15
2083.63
2071.43
2059.52
2047.9
2036.53
2025.4
2014.5
2003.82
1993.34
1983.04
1972.93
1962.98
1953.19
1943.56
1934.06
1924.71
1915.48
1906.38
1897.39
1888.52
1879.75
1871.08
1862.5
1854.02
1845.63
1837.32
1829.09
1820.94
1812.85
1804.84
1796.9
1789.01
1781.19
1773.43
1765.71
1758.06
1750.45
1742.89
1735.37
1727.89
1720.46
1713.06
1705.7
1698.38
1691.08
1683.82
1676.58
1669.37
1662.18
1655.01
1647.86
1640.73
1633.62
1626.51
1619.42
1612.34
1605.27
3190.36
2876.44
2738.94
2646.25
2575.98
2519.48
2472.19
2431.46
2395.62
2363.56
2334.51
2307.9
2283.32
2260.45
2239.03
2218.87
2199.8
2181.69
2164.43
2147.94
2132.13
2116.93
2102.28
2088.15
2074.48
2061.23
2048.37
2035.88
2023.72
2011.86
2000.3
1989.01
1977.97
1967.16
1956.58
1946.2
1936.02
1926.02
1916.19
1906.53
1897.03
1887.67
1878.45
1869.37
1860.41
1851.57
1842.84
1834.22
1825.7
1817.28
1808.96
1800.72
1792.57
1784.5
1776.51
1768.59
1760.75
1752.97
1745.25
1737.6
1730
1722.46
1714.97
1707.53
1700.15
1692.8
1685.5
1678.25
1671.03
1663.84
1656.7
1649.58
1642.5
1635.44
1628.41
1621.41
1614.42
1607.46
1600.52
1593.6
1586.69
1579.79
1572.9
1566.02
1559.15
3098.69
2793.79
2660.25
2570.22
2501.96
2447.09
2401.15
2361.59
2326.78
2295.64
2267.42
2241.57
2217.69
2195.48
2174.67
2155.08
2136.56
2118.97
2102.21
2086.19
2070.83
2056.07
2041.85
2028.11
2014.83
2001.97
1989.48
1977.34
1965.53
1954.02
1942.79
1931.82
1921.1
1910.6
1900.32
1890.24
1880.35
1870.64
1861.1
1851.72
1842.49
1833.4
1824.44
1815.62
1806.92
1798.33
1789.86
1781.49
1773.22
1765.04
1756.96
1748.96
1741.04
1733.21
1725.45
1717.76
1710.14
1702.58
1695.09
1687.66
1680.28
1672.96
1665.69
1658.46
1651.29
1644.16
1637.07
1630.02
1623.01
1616.04
1609.09
1602.18
1595.3
1588.45
1581.63
1574.82
1568.04
1561.28
1554.54
1547.82
1541.1
1534.4
1527.71
1521.03
1514.36
3009.66
2713.52
2583.82
2496.37
2430.08
2376.77
2332.16
2293.73
2259.91
2229.67
2202.25
2177.15
2153.96
2132.37
2112.17
2093.14
2075.15
2058.07
2041.79
2026.22
2011.3
1996.96
1983.15
1969.81
1956.91
1944.41
1932.29
1920.5
1909.02
1897.84
1886.94
1876.28
1865.86
1855.67
1845.68
1835.9
1826.29
1816.86
1807.59
1798.48
1789.51
1780.69
1771.99
1763.42
1754.97
1746.63
1738.4
1730.27
1722.24
1714.3
1706.45
1698.68
1691
1683.39
1675.85
1668.38
1660.98
1653.65
1646.37
1639.15
1631.99
1624.88
1617.82
1610.8
1603.84
1596.91
1590.03
1583.18
1576.37
1569.6
1562.86
1556.15
1549.47
1542.81
1536.19
1529.58
1522.99
1516.43
1509.88
1503.35
1496.83
1490.32
1483.83
1477.34
1470.86
2923.18
2635.56
2509.58
2424.65
2360.26
2308.48
2265.15
2227.82
2194.97
2165.59
2138.97
2114.58
2092.05
2071.09
2051.46
2032.98
2015.51
1998.91
1983.1
1967.98
1953.49
1939.56
1926.14
1913.19
1900.66
1888.52
1876.74
1865.29
1854.15
1843.29
1832.69
1822.34
1812.23
1802.32
1792.63
1783.12
1773.79
1764.63
1755.63
1746.78
1738.07
1729.5
1721.05
1712.73
1704.52
1696.42
1688.43
1680.53
1672.73
1665.02
1657.4
1649.86
1642.39
1635
1627.68
1620.43
1613.24
1606.12
1599.05
1592.04
1585.09
1578.18
1571.32
1564.51
1557.75
1551.02
1544.34
1537.69
1531.08
1524.5
1517.95
1511.44
1504.95
1498.49
1492.05
1485.63
1479.24
1472.86
1466.5
1460.16
1453.83
1447.51
1441.2
1434.9
1428.6
2839.19
2559.83
2437.48
2354.99
2292.45
2242.16
2200.06
2163.81
2131.9
2103.36
2077.5
2053.81
2031.93
2011.57
1992.5
1974.56
1957.58
1941.46
1926.1
1911.42
1897.35
1883.82
1870.78
1858.2
1846.03
1834.24
1822.8
1811.67
1800.85
1790.3
1780.01
1769.96
1760.13
1750.52
1741.09
1731.86
1722.8
1713.9
1705.16
1696.56
1688.11
1679.78
1671.58
1663.5
1655.52
1647.66
1639.89
1632.23
1624.65
1617.16
1609.76
1602.43
1595.18
1588.01
1580.9
1573.86
1566.88
1559.96
1553.09
1546.29
1539.53
1532.83
1526.17
1519.55
1512.98
1506.45
1499.96
1493.5
1487.08
1480.7
1474.34
1468.01
1461.71
1455.43
1449.18
1442.95
1436.74
1430.55
1424.37
1418.21
1412.06
1405.92
1399.79
1393.67
1387.56
2757.61
2486.29
2367.45
2287.33
2226.58
2177.74
2136.85
2101.64
2070.65
2042.93
2017.8
1994.8
1973.54
1953.76
1935.24
1917.81
1901.32
1885.67
1870.75
1856.49
1842.82
1829.67
1817.01
1804.79
1792.97
1781.52
1770.4
1759.6
1749.09
1738.84
1728.85
1719.08
1709.54
1700.2
1691.05
1682.08
1673.28
1664.64
1656.15
1647.8
1639.58
1631.5
1623.53
1615.68
1607.94
1600.3
1592.76
1585.31
1577.95
1570.68
1563.49
1556.37
1549.33
1542.36
1535.46
1528.62
1521.84
1515.12
1508.46
1501.85
1495.29
1488.77
1482.31
1475.88
1469.5
1463.16
1456.86
1450.59
1444.35
1438.15
1431.98
1425.83
1419.71
1413.61
1407.54
1401.49
1395.46
1389.44
1383.45
1377.46
1371.49
1365.53
1359.58
1353.63
1347.69
2678.37
2414.85
2299.43
2221.61
2162.61
2115.18
2075.47
2041.26
2011.16
1984.24
1959.83
1937.48
1916.83
1897.62
1879.63
1862.7
1846.68
1831.48
1816.99
1803.13
1789.85
1777.09
1764.79
1752.92
1741.44
1730.32
1719.52
1709.03
1698.82
1688.87
1679.16
1669.68
1660.4
1651.33
1642.45
1633.73
1625.18
1616.79
1608.54
1600.44
1592.46
1584.6
1576.87
1569.24
1561.72
1554.3
1546.98
1539.75
1532.6
1525.54
1518.55
1511.64
1504.8
1498.04
1491.33
1484.69
1478.11
1471.58
1465.11
1458.69
1452.32
1445.99
1439.71
1433.47
1427.28
1421.12
1414.99
1408.91
1402.85
1396.82
1390.83
1384.86
1378.92
1373
1367.1
1361.22
1355.37
1349.52
1343.7
1337.89
1332.09
1326.3
1320.52
1314.74
1308.98
2601.42
2345.47
2233.37
2157.79
2100.49
2054.41
2015.84
1982.62
1953.39
1927.23
1903.53
1881.82
1861.77
1843.1
1825.62
1809.17
1793.62
1778.85
1764.77
1751.32
1738.42
1726.02
1714.08
1702.55
1691.39
1680.59
1670.1
1659.91
1649.99
1640.33
1630.9
1621.69
1612.68
1603.87
1595.24
1586.78
1578.48
1570.32
1562.31
1554.44
1546.69
1539.06
1531.55
1524.14
1516.84
1509.63
1502.52
1495.49
1488.55
1481.69
1474.91
1468.2
1461.56
1454.98
1448.47
1442.02
1435.63
1429.29
1423
1416.77
1410.58
1404.44
1398.34
1392.28
1386.26
1380.28
1374.33
1368.42
1362.54
1356.69
1350.86
1345.07
1339.3
1333.55
1327.82
1322.11
1316.42
1310.75
1305.09
1299.45
1293.81
1288.19
1282.58
1276.97
1271.37
2526.67
2278.08
2169.2
2095.8
2040.14
1995.39
1957.93
1925.66
1897.27
1871.87
1848.84
1827.76
1808.28
1790.15
1773.18
1757.2
1742.09
1727.74
1714.06
1700.99
1688.46
1676.42
1664.82
1653.62
1642.79
1632.29
1622.11
1612.21
1602.58
1593.19
1584.03
1575.08
1566.34
1557.78
1549.39
1541.17
1533.11
1525.19
1517.41
1509.76
1502.24
1494.83
1487.53
1480.34
1473.24
1466.24
1459.34
1452.51
1445.77
1439.11
1432.52
1426
1419.55
1413.17
1406.84
1400.58
1394.37
1388.21
1382.11
1376.05
1370.04
1364.08
1358.15
1352.27
1346.43
1340.62
1334.84
1329.1
1323.39
1317.7
1312.05
1306.42
1300.81
1295.23
1289.67
1284.12
1278.6
1273.09
1267.59
1262.11
1256.64
1251.18
1245.73
1240.28
1234.84
2454.07
2212.63
2106.88
2035.59
1981.53
1938.07
1901.68
1870.34
1842.76
1818.09
1795.73
1775.25
1756.33
1738.73
1722.24
1706.72
1692.04
1678.1
1664.82
1652.12
1639.95
1628.25
1616.98
1606.1
1595.58
1585.39
1575.49
1565.88
1556.52
1547.4
1538.51
1529.82
1521.32
1513.01
1504.87
1496.88
1489.05
1481.36
1473.8
1466.37
1459.07
1451.87
1444.78
1437.79
1430.9
1424.11
1417.4
1410.77
1404.22
1397.75
1391.35
1385.02
1378.76
1372.56
1366.41
1360.33
1354.3
1348.32
1342.39
1336.51
1330.67
1324.88
1319.13
1313.41
1307.73
1302.09
1296.48
1290.91
1285.36
1279.84
1274.35
1268.88
1263.44
1258.01
1252.61
1247.23
1241.86
1236.51
1231.17
1225.85
1220.54
1215.23
1209.94
1204.65
1199.36
2383.56
2149.06
2046.35
1977.11
1924.61
1882.39
1847.05
1816.61
1789.82
1765.86
1744.14
1724.25
1705.87
1688.77
1672.76
1657.69
1643.43
1629.89
1616.99
1604.66
1592.84
1581.47
1570.53
1559.96
1549.73
1539.83
1530.22
1520.88
1511.79
1502.94
1494.3
1485.86
1477.61
1469.53
1461.62
1453.87
1446.26
1438.79
1431.45
1424.24
1417.14
1410.15
1403.26
1396.47
1389.78
1383.18
1376.66
1370.23
1363.87
1357.58
1351.37
1345.22
1339.14
1333.11
1327.15
1321.24
1315.38
1309.57
1303.82
1298.1
1292.43
1286.81
1281.22
1275.67
1270.16
1264.68
1259.23
1253.81
1248.43
1243.07
1237.73
1232.42
1227.13
1221.87
1216.62
1211.39
1206.18
1200.98
1195.8
1190.63
1185.47
1180.32
1175.17
1170.03
1164.9
2315.08
2087.32
1987.56
1920.31
1869.32
1828.31
1793.99
1764.42
1738.4
1715.13
1694.03
1674.72
1656.87
1640.26
1624.7
1610.06
1596.22
1583.07
1570.54
1558.56
1547.08
1536.04
1525.41
1515.14
1505.21
1495.59
1486.26
1477.19
1468.35
1459.75
1451.36
1443.16
1435.15
1427.3
1419.62
1412.09
1404.7
1397.45
1390.32
1383.31
1376.41
1369.62
1362.94
1356.34
1349.84
1343.43
1337.1
1330.85
1324.68
1318.57
1312.53
1306.56
1300.65
1294.8
1289.01
1283.27
1277.58
1271.94
1266.35
1260.8
1255.3
1249.83
1244.4
1239.01
1233.66
1228.34
1223.05
1217.79
1212.55
1207.35
1202.17
1197.01
1191.87
1186.76
1181.66
1176.58
1171.52
1166.47
1161.44
1156.42
1151.41
1146.4
1141.41
1136.42
1131.43
2248.56
2027.35
1930.46
1865.14
1815.61
1775.79
1742.45
1713.73
1688.46
1665.86
1645.37
1626.6
1609.27
1593.13
1578.03
1563.81
1550.36
1537.59
1525.42
1513.79
1502.63
1491.91
1481.58
1471.61
1461.97
1452.63
1443.56
1434.75
1426.17
1417.81
1409.66
1401.7
1393.91
1386.29
1378.83
1371.51
1364.34
1357.29
1350.37
1343.56
1336.86
1330.27
1323.77
1317.37
1311.06
1304.83
1298.68
1292.61
1286.61
1280.68
1274.82
1269.02
1263.28
1257.6
1251.97
1246.39
1240.87
1235.39
1229.96
1224.57
1219.22
1213.92
1208.65
1203.41
1198.21
1193.04
1187.9
1182.79
1177.71
1172.66
1167.62
1162.61
1157.63
1152.66
1147.71
1142.78
1137.86
1132.96
1128.07
1123.19
1118.32
1113.46
1108.61
1103.76
2183.96
1969.1
1875
1811.55
1763.45
1724.77
1692.39
1664.5
1639.96
1618
1598.1
1579.87
1563.03
1547.37
1532.69
1518.88
1505.82
1493.42
1481.6
1470.3
1459.46
1449.05
1439.02
1429.34
1419.97
1410.9
1402.09
1393.53
1385.2
1377.08
1369.16
1361.43
1353.87
1346.46
1339.21
1332.11
1325.14
1318.29
1311.56
1304.95
1298.44
1292.04
1285.73
1279.51
1273.38
1267.33
1261.36
1255.46
1249.64
1243.88
1238.19
1232.55
1226.98
1221.46
1215.99
1210.58
1205.21
1199.89
1194.62
1189.38
1184.19
1179.03
1173.92
1168.83
1163.78
1158.76
1153.77
1148.81
1143.87
1138.96
1134.07
1129.21
1124.36
1119.54
1114.73
1109.94
1105.17
1100.41
1095.66
1090.92
1086.19
1081.47
1076.76
1072.05
2121.21
1912.53
1821.13
1759.51
1712.79
1675.22
1643.78
1616.68
1592.84
1571.51
1552.19
1534.48
1518.13
1502.91
1488.66
1475.24
1462.56
1450.51
1439.03
1428.06
1417.53
1407.42
1397.68
1388.27
1379.18
1370.36
1361.81
1353.5
1345.4
1337.52
1329.83
1322.32
1314.97
1307.78
1300.74
1293.84
1287.07
1280.42
1273.88
1267.46
1261.14
1254.92
1248.79
1242.75
1236.79
1230.92
1225.12
1219.39
1213.73
1208.14
1202.61
1197.14
1191.72
1186.36
1181.05
1175.79
1170.58
1165.41
1160.29
1155.21
1150.16
1145.16
1140.18
1135.25
1130.34
1125.46
1120.62
1115.8
1111
1106.23
1101.49
1096.76
1092.06
1087.37
1082.7
1078.05
1073.41
1068.79
1064.17
1059.57
1054.98
1050.4
1045.82
1041.25
2060.26
1857.58
1768.81
1708.96
1663.59
1627.1
1596.55
1570.24
1547.08
1526.37
1507.59
1490.4
1474.51
1459.73
1445.89
1432.86
1420.54
1408.84
1397.69
1387.03
1376.81
1366.99
1357.52
1348.39
1339.55
1330.99
1322.69
1314.61
1306.75
1299.09
1291.62
1284.33
1277.19
1270.21
1263.37
1256.67
1250.09
1243.63
1237.29
1231.05
1224.91
1218.86
1212.91
1207.04
1201.26
1195.55
1189.91
1184.35
1178.86
1173.42
1168.05
1162.74
1157.48
1152.27
1147.12
1142.01
1136.95
1131.93
1126.95
1122.01
1117.11
1112.25
1107.42
1102.63
1097.86
1093.12
1088.42
1083.74
1079.08
1074.45
1069.84
1065.25
1060.68
1056.13
1051.59
1047.07
1042.57
1038.08
1033.6
1029.13
1024.67
1020.21
1015.77
1011.33
2001.06
1804.21
1717.99
1659.86
1615.79
1580.35
1550.68
1525.13
1502.64
1482.52
1464.28
1447.58
1432.15
1417.8
1404.35
1391.7
1379.73
1368.36
1357.53
1347.18
1337.25
1327.71
1318.52
1309.65
1301.07
1292.75
1284.68
1276.84
1269.21
1261.77
1254.52
1247.43
1240.5
1233.72
1227.08
1220.56
1214.18
1207.9
1201.74
1195.68
1189.72
1183.85
1178.06
1172.36
1166.75
1161.2
1155.73
1150.32
1144.98
1139.71
1134.49
1129.33
1124.22
1119.16
1114.15
1109.19
1104.28
1099.4
1094.57
1089.77
1085.01
1080.29
1075.6
1070.94
1066.31
1061.72
1057.14
1052.6
1048.07
1043.57
1039.1
1034.64
1030.2
1025.78
1021.38
1016.99
1012.61
1008.25
1003.9
999.556
995.223
990.899
986.58
982.268
1943.57
1752.38
1668.64
1612.18
1569.37
1534.95
1506.14
1481.31
1459.47
1439.92
1422.21
1405.99
1391.01
1377.06
1364
1351.71
1340.09
1329.05
1318.53
1308.47
1298.83
1289.57
1280.64
1272.02
1263.69
1255.61
1247.78
1240.16
1232.75
1225.52
1218.47
1211.59
1204.86
1198.27
1191.82
1185.5
1179.29
1173.2
1167.21
1161.33
1155.54
1149.83
1144.22
1138.68
1133.23
1127.84
1122.53
1117.28
1112.09
1106.96
1101.89
1096.88
1091.92
1087.01
1082.14
1077.32
1072.55
1067.81
1063.12
1058.46
1053.84
1049.25
1044.7
1040.17
1035.68
1031.21
1026.77
1022.35
1017.96
1013.59
1009.24
1004.91
1000.6
996.306
992.028
987.764
983.515
979.277
975.051
970.834
966.626
962.425
958.231
954.043
1887.73
1702.03
1620.7
1565.86
1524.29
1490.85
1462.87
1438.76
1417.54
1398.56
1381.35
1365.6
1351.04
1337.5
1324.82
1312.88
1301.59
1290.87
1280.65
1270.88
1261.52
1252.52
1243.85
1235.48
1227.38
1219.54
1211.93
1204.53
1197.33
1190.31
1183.47
1176.78
1170.24
1163.85
1157.58
1151.44
1145.41
1139.49
1133.68
1127.96
1122.34
1116.8
1111.35
1105.97
1100.67
1095.44
1090.28
1085.18
1080.14
1075.16
1070.24
1065.37
1060.55
1055.78
1051.05
1046.37
1041.73
1037.13
1032.57
1028.05
1023.56
1019.1
1014.68
1010.28
1005.92
1001.58
997.264
992.975
988.709
984.464
980.24
976.035
971.848
967.677
963.522
959.382
955.254
951.138
947.033
942.937
938.85
934.77
930.696
926.629
1833.49
1653.13
1574.13
1520.87
1480.49
1448.02
1420.84
1397.42
1376.81
1358.38
1341.67
1326.37
1312.23
1299.07
1286.75
1275.16
1264.19
1253.78
1243.86
1234.37
1225.27
1216.53
1208.11
1199.98
1192.12
1184.5
1177.11
1169.92
1162.93
1156.11