/*--------------------------------*- C++ -*----------------------------------*\
  =========                 |
  \\      /  F ield         | OpenFOAM: The Open Source CFD Toolbox
   \\    /   O peration     | Website:  https://openfoam.org
    \\  /    A nd           | Version:  10
     \\/     M anipulation  |
\*---------------------------------------------------------------------------*/
FoamFile
{
    format      ascii;
    class       surfaceScalarField;
    location    "26000";
    object      phi;
}
// * * * * * * * * * * * * * * * * * * * * * * * * * * * * * * * * * * * * * //

dimensions      [0 3 -1 0 0 0 0];

internalField   nonuniform List<scalar> 
35320
(
2.72598e-08
1.45434e-05
-1.45707e-05
4.31837e-08
1.33359e-05
-1.33518e-05
5.1587e-08
1.29167e-05
-1.29251e-05
5.60629e-08
1.26921e-05
-1.26965e-05
5.82113e-08
1.25639e-05
-1.25661e-05
5.89305e-08
1.24956e-05
-1.24963e-05
5.8771e-08
1.24674e-05
-1.24673e-05
5.8072e-08
1.24682e-05
-1.24675e-05
5.70544e-08
1.24908e-05
-1.24898e-05
5.58334e-08
1.25306e-05
-1.25294e-05
5.45048e-08
1.25843e-05
-1.2583e-05
5.31049e-08
1.26496e-05
-1.26482e-05
5.16776e-08
1.27247e-05
-1.27233e-05
5.024e-08
1.28083e-05
-1.28069e-05
4.88019e-08
1.28995e-05
-1.2898e-05
4.73736e-08
1.29973e-05
-1.29958e-05
4.59603e-08
1.31011e-05
-1.30997e-05
4.457e-08
1.32105e-05
-1.32091e-05
4.32021e-08
1.33249e-05
-1.33236e-05
4.18488e-08
1.34441e-05
-1.34428e-05
4.05191e-08
1.35677e-05
-1.35664e-05
3.9221e-08
1.36955e-05
-1.36942e-05
3.79386e-08
1.38273e-05
-1.3826e-05
3.66876e-08
1.39628e-05
-1.39615e-05
3.5454e-08
1.4102e-05
-1.41007e-05
3.42486e-08
1.42446e-05
-1.42434e-05
3.30679e-08
1.43906e-05
-1.43894e-05
3.19091e-08
1.45399e-05
-1.45387e-05
3.07791e-08
1.46923e-05
-1.46912e-05
2.96673e-08
1.48479e-05
-1.48468e-05
2.85808e-08
1.50065e-05
-1.50054e-05
2.75189e-08
1.5168e-05
-1.51669e-05
2.64834e-08
1.53325e-05
-1.53314e-05
2.54714e-08
1.54998e-05
-1.54988e-05
2.44795e-08
1.56699e-05
-1.56689e-05
2.35121e-08
1.58428e-05
-1.58419e-05
2.25687e-08
1.60185e-05
-1.60175e-05
2.16483e-08
1.61969e-05
-1.61959e-05
2.07478e-08
1.63779e-05
-1.6377e-05
1.98715e-08
1.65616e-05
-1.65607e-05
1.9016e-08
1.67479e-05
-1.67471e-05
1.81858e-08
1.69369e-05
-1.6936e-05
1.73748e-08
1.71284e-05
-1.71276e-05
1.65849e-08
1.73225e-05
-1.73217e-05
1.58199e-08
1.75191e-05
-1.75183e-05
1.50719e-08
1.77182e-05
-1.77175e-05
1.43452e-08
1.79198e-05
-1.79191e-05
1.36407e-08
1.81239e-05
-1.81232e-05
1.29557e-08
1.83305e-05
-1.83298e-05
1.22912e-08
1.85395e-05
-1.85389e-05
1.16467e-08
1.8751e-05
-1.87503e-05
1.1019e-08
1.89648e-05
-1.89642e-05
1.04139e-08
1.91811e-05
-1.91805e-05
9.82587e-09
1.93997e-05
-1.93991e-05
9.25645e-09
1.96206e-05
-1.962e-05
8.70683e-09
1.98439e-05
-1.98433e-05
8.17386e-09
2.00694e-05
-2.00689e-05
7.65895e-09
2.02973e-05
-2.02968e-05
7.16308e-09
2.05274e-05
-2.05269e-05
6.68135e-09
2.07597e-05
-2.07592e-05
6.2168e-09
2.09942e-05
-2.09937e-05
5.7686e-09
2.12309e-05
-2.12304e-05
5.33791e-09
2.14697e-05
-2.14692e-05
4.91958e-09
2.17106e-05
-2.17102e-05
4.52497e-09
2.19535e-05
-2.19531e-05
4.13879e-09
2.21985e-05
-2.21982e-05
3.7704e-09
2.24455e-05
-2.24452e-05
3.41671e-09
2.26945e-05
-2.26941e-05
3.07487e-09
2.29453e-05
-2.29449e-05
2.75159e-09
2.3198e-05
-2.31976e-05
2.44044e-09
2.34525e-05
-2.34522e-05
2.14413e-09
2.37087e-05
-2.37084e-05
1.85994e-09
2.39667e-05
-2.39664e-05
1.59075e-09
2.42262e-05
-2.4226e-05
1.33756e-09
2.44874e-05
-2.44871e-05
1.09372e-09
2.475e-05
-2.47498e-05
8.64149e-10
2.50141e-05
-2.50139e-05
6.49873e-10
2.52796e-05
-2.52794e-05
4.46067e-10
2.55464e-05
-2.55462e-05
2.55963e-10
2.58143e-05
-2.58141e-05
8.22323e-11
2.60834e-05
-2.60832e-05
-7.98114e-11
2.63535e-05
-2.63534e-05
-2.32486e-10
2.66246e-05
-2.66244e-05
-3.69586e-10
2.68964e-05
-2.68963e-05
-4.93427e-10
2.7169e-05
-2.71689e-05
-6.03167e-10
2.74422e-05
-2.74421e-05
-6.99643e-10
2.77159e-05
-2.77158e-05
-7.85144e-10
2.799e-05
-2.79899e-05
-8.53576e-10
2.82642e-05
-2.82642e-05
-9.12278e-10
2.85386e-05
-2.85386e-05
-9.51863e-10
2.8813e-05
-2.88129e-05
2.90871e-05
-2.90871e-05
3.05133e-09
1.45404e-05
7.29901e-09
1.33317e-05
1.30056e-08
1.2911e-05
1.89639e-08
1.26861e-05
2.41844e-08
1.25587e-05
2.85188e-08
1.24912e-05
3.1995e-08
1.24639e-05
3.46841e-08
1.24655e-05
3.66873e-08
1.24888e-05
3.81265e-08
1.25292e-05
3.90796e-08
1.25834e-05
3.96543e-08
1.2649e-05
3.9914e-08
1.27244e-05
3.99194e-08
1.28083e-05
3.97228e-08
1.28996e-05
3.93641e-08
1.29976e-05
3.88758e-08
1.31016e-05
3.82813e-08
1.32111e-05
3.76041e-08
1.33256e-05
3.68697e-08
1.34449e-05
3.60805e-08
1.35685e-05
3.52533e-08
1.36963e-05
3.43962e-08
1.38281e-05
3.35142e-08
1.39637e-05
3.26211e-08
1.41028e-05
3.17134e-08
1.42455e-05
3.08031e-08
1.43915e-05
2.98904e-08
1.45408e-05
2.89731e-08
1.46932e-05
2.80604e-08
1.48488e-05
2.71545e-08
1.50074e-05
2.62589e-08
1.51689e-05
2.53646e-08
1.53334e-05
2.4485e-08
1.55007e-05
2.36159e-08
1.56708e-05
2.27574e-08
1.58437e-05
2.191e-08
1.60193e-05
2.10813e-08
1.61977e-05
2.02615e-08
1.63787e-05
1.94577e-08
1.65624e-05
1.86726e-08
1.67487e-05
1.78984e-08
1.69376e-05
1.71419e-08
1.71291e-05
1.64034e-08
1.73232e-05
1.56773e-08
1.75198e-05
1.49703e-08
1.77189e-05
1.42796e-08
1.79205e-05
1.36046e-08
1.81246e-05
1.29471e-08
1.83312e-05
1.23019e-08
1.85402e-05
1.16798e-08
1.87516e-05
1.10733e-08
1.89654e-05
1.04814e-08
1.91817e-05
9.90835e-09
1.94002e-05
9.34868e-09
1.96212e-05
8.80602e-09
1.98444e-05
8.28173e-09
2.007e-05
7.77076e-09
2.02978e-05
7.27647e-09
2.05279e-05
6.79814e-09
2.07602e-05
6.33701e-09
2.09946e-05
5.89194e-09
2.12313e-05
5.46018e-09
2.14701e-05
5.04694e-09
2.1711e-05
4.64319e-09
2.19539e-05
4.25819e-09
2.21989e-05
3.88672e-09
2.24459e-05
3.52825e-09
2.26948e-05
3.18742e-09
2.29456e-05
2.85572e-09
2.31983e-05
2.54176e-09
2.34528e-05
2.24105e-09
2.3709e-05
1.95406e-09
2.39669e-05
1.68034e-09
2.42265e-05
1.4189e-09
2.44876e-05
1.17442e-09
2.47503e-05
9.4031e-10
2.50144e-05
7.17661e-10
2.52798e-05
5.12897e-10
2.55466e-05
3.17823e-10
2.58145e-05
1.35159e-10
2.60836e-05
-3.03387e-11
2.63537e-05
-1.85069e-10
2.66247e-05
-3.24443e-10
2.68966e-05
-4.52985e-10
2.71691e-05
-5.67816e-10
2.74423e-05
-6.67953e-10
2.7716e-05
-7.54233e-10
2.799e-05
-8.29258e-10
2.82643e-05
-8.86821e-10
2.85387e-05
-9.31207e-10
2.8813e-05
2.90872e-05
3.66086e-09
1.45367e-05
7.1041e-09
1.33282e-05
1.03629e-08
1.29078e-05
1.34645e-08
1.2683e-05
1.63389e-08
1.25558e-05
1.90384e-08
1.24885e-05
2.15252e-08
1.24615e-05
2.37601e-08
1.24633e-05
2.57176e-08
1.24869e-05
2.73839e-08
1.25275e-05
2.87752e-08
1.2582e-05
2.98932e-08
1.26479e-05
3.07631e-08
1.27236e-05
3.14103e-08
1.28077e-05
3.18541e-08
1.28992e-05
3.21205e-08
1.29974e-05
3.22307e-08
1.31015e-05
3.22016e-08
1.32111e-05
3.20596e-08
1.33258e-05
3.18064e-08
1.34451e-05
3.14728e-08
1.35689e-05
3.10574e-08
1.36968e-05
3.05872e-08
1.38286e-05
3.00581e-08
1.39642e-05
2.94834e-08
1.41034e-05
2.88727e-08
1.42461e-05
2.8232e-08
1.43922e-05
2.75639e-08
1.45415e-05
2.68752e-08
1.46939e-05
2.61726e-08
1.48495e-05
2.54562e-08
1.50081e-05
2.47293e-08
1.51696e-05
2.39964e-08
1.53341e-05
2.32623e-08
1.55014e-05
2.25235e-08
1.56715e-05
2.17863e-08
1.58444e-05
2.10545e-08
1.60201e-05
2.03193e-08
1.61984e-05
1.9596e-08
1.63795e-05
1.88804e-08
1.65631e-05
1.81656e-08
1.67494e-05
1.74641e-08
1.69383e-05
1.67714e-08
1.71298e-05
1.60873e-08
1.73239e-05
1.54146e-08
1.75205e-05
1.47552e-08
1.77196e-05
1.41068e-08
1.79212e-05
1.34714e-08
1.81253e-05
1.28444e-08
1.83318e-05
1.22365e-08
1.85408e-05
1.16384e-08
1.87522e-05
1.1054e-08
1.8966e-05
1.04832e-08
1.91822e-05
9.92695e-09
1.94008e-05
9.38754e-09
1.96217e-05
8.85752e-09
1.98449e-05
8.34481e-09
2.00705e-05
7.8445e-09
2.02983e-05
7.35805e-09
2.05283e-05
6.88888e-09
2.07606e-05
6.4319e-09
2.09951e-05
5.99068e-09
2.12317e-05
5.56019e-09
2.14705e-05
5.1457e-09
2.17114e-05
4.74845e-09
2.19543e-05
4.36133e-09
2.21993e-05
3.98755e-09
2.24463e-05
3.63221e-09
2.26952e-05
3.28657e-09
2.2946e-05
2.95738e-09
2.31986e-05
2.63792e-09
2.34531e-05
2.33506e-09
2.37093e-05
2.04219e-09
2.39672e-05
1.76572e-09
2.42268e-05
1.50114e-09
2.44879e-05
1.24952e-09
2.47505e-05
1.01351e-09
2.50146e-05
7.88377e-10
2.52801e-05
5.77172e-10
2.55468e-05
3.80393e-10
2.58147e-05
1.95769e-10
2.60838e-05
2.2116e-11
2.63539e-05
-1.34077e-10
2.66249e-05
-2.81067e-10
2.68967e-05
-4.12388e-10
2.71693e-05
-5.29176e-10
2.74424e-05
-6.33836e-10
2.77161e-05
-7.22039e-10
2.79901e-05
-7.96484e-10
2.82644e-05
-8.57961e-10
2.85388e-05
-9.05544e-10
2.88131e-05
2.90872e-05
2.86348e-09
1.45338e-05
5.53717e-09
1.33256e-05
8.31774e-09
1.2905e-05
1.07909e-08
1.26805e-05
1.29895e-08
1.25536e-05
1.49835e-08
1.24865e-05
1.67854e-08
1.24597e-05
1.84308e-08
1.24616e-05
1.9927e-08
1.24854e-05
2.12758e-08
1.25262e-05
2.24827e-08
1.25808e-05
2.35383e-08
1.26468e-05
2.44496e-08
1.27227e-05
2.52217e-08
1.28069e-05
2.58536e-08
1.28986e-05
2.63569e-08
1.29969e-05
2.67349e-08
1.31011e-05
2.69958e-08
1.32108e-05
2.71528e-08
1.33256e-05
2.72116e-08
1.3445e-05
2.7183e-08
1.35689e-05
2.7072e-08
1.36969e-05
2.68836e-08
1.38288e-05
2.66381e-08
1.39645e-05
2.63289e-08
1.41037e-05
2.59701e-08
1.42465e-05
2.55618e-08
1.43926e-05
2.51169e-08
1.45419e-05
2.464e-08
1.46944e-05
2.41301e-08
1.485e-05
2.35937e-08
1.50086e-05
2.30387e-08
1.51702e-05
2.2463e-08
1.53347e-05
2.1872e-08
1.5502e-05
2.12705e-08
1.56721e-05
2.06602e-08
1.5845e-05
2.00404e-08
1.60207e-05
1.94175e-08
1.6199e-05
1.8788e-08
1.63801e-05
1.81604e-08
1.65638e-05
1.75332e-08
1.67501e-05
1.69068e-08
1.6939e-05
1.62821e-08
1.71305e-05
1.56621e-08
1.73245e-05
1.50493e-08
1.75211e-05
1.44415e-08
1.77202e-05
1.38393e-08
1.79218e-05
1.32469e-08
1.81258e-05
1.26668e-08
1.83324e-05
1.20897e-08
1.85414e-05
1.15222e-08
1.87528e-05
1.09686e-08
1.89666e-05
1.04263e-08
1.91828e-05
9.89059e-09
1.94013e-05
9.36971e-09
1.96222e-05
8.86073e-09
1.98455e-05
8.36145e-09
2.0071e-05
7.87754e-09
2.02988e-05
7.40402e-09
2.05288e-05
6.94244e-09
2.07611e-05
6.49628e-09
2.09956e-05
6.06058e-09
2.12322e-05
5.63656e-09
2.14709e-05
5.22802e-09
2.17118e-05
4.82743e-09
2.19547e-05
4.4465e-09
2.21997e-05
4.07622e-09
2.24466e-05
3.71751e-09
2.26955e-05
3.37379e-09
2.29463e-05
3.03981e-09
2.3199e-05
2.72478e-09
2.34534e-05
2.41769e-09
2.37096e-05
2.12766e-09
2.39675e-05
1.84773e-09
2.42271e-05
1.58081e-09
2.44882e-05
1.32576e-09
2.47508e-05
1.08582e-09
2.50149e-05
8.5785e-10
2.52803e-05
6.44687e-10
2.5547e-05
4.41702e-10
2.58149e-05
2.5525e-10
2.6084e-05
8.07599e-11
2.6354e-05
-8.29509e-11
2.6625e-05
-2.29253e-10
2.68969e-05
-3.62953e-10
2.71694e-05
-4.84797e-10
2.74426e-05
-5.90475e-10
2.77162e-05
-6.82953e-10
2.79902e-05
-7.62718e-10
2.82645e-05
-8.25703e-10
2.85388e-05
-8.74692e-10
2.88131e-05
2.90872e-05
1.71677e-09
1.45321e-05
3.17294e-09
1.33241e-05
5.03811e-09
1.29031e-05
6.88728e-09
1.26787e-05
8.69453e-09
1.25518e-05
1.0402e-08
1.24848e-05
1.20064e-08
1.24581e-05
1.35043e-08
1.24601e-05
1.48907e-08
1.2484e-05
1.61706e-08
1.25249e-05
1.734e-08
1.25796e-05
1.84012e-08
1.26458e-05
1.93512e-08
1.27217e-05
2.01912e-08
1.28061e-05
2.09281e-08
1.28978e-05
2.15608e-08
1.29962e-05
2.20899e-08
1.31006e-05
2.25293e-08
1.32104e-05
2.28745e-08
1.33253e-05
2.31297e-08
1.34448e-05
2.33022e-08
1.35687e-05
2.34015e-08
1.36968e-05
2.34276e-08
1.38288e-05
2.33844e-08
1.39645e-05
2.32849e-08
1.41038e-05
2.3123e-08
1.42466e-05
2.29161e-08
1.43928e-05
2.26575e-08
1.45422e-05
2.23567e-08
1.46947e-05
2.20222e-08
1.48503e-05
2.16521e-08
1.5009e-05
2.12448e-08
1.51706e-05
2.08208e-08
1.53351e-05
2.03673e-08
1.55024e-05
1.98944e-08
1.56726e-05
1.94018e-08
1.58455e-05
1.88989e-08
1.60212e-05
1.83824e-08
1.61996e-05
1.78562e-08
1.63806e-05
1.7317e-08
1.65643e-05
1.6778e-08
1.67506e-05
1.62306e-08
1.69395e-05
1.56806e-08
1.7131e-05
1.51309e-08
1.7325e-05
1.45797e-08
1.75216e-05
1.40279e-08
1.77207e-05
1.34824e-08
1.79223e-05
1.29368e-08
1.81264e-05
1.2398e-08
1.83329e-05
1.18641e-08
1.85419e-05
1.13392e-08
1.87533e-05
1.08167e-08
1.89671e-05
1.0301e-08
1.91833e-05
9.79837e-09
1.94018e-05
9.29968e-09
1.96227e-05
8.81141e-09
1.98459e-05
8.33486e-09
2.00715e-05
7.86541e-09
2.02992e-05
7.40705e-09
2.05293e-05
6.96093e-09
2.07615e-05
6.52266e-09
2.0996e-05
6.09778e-09
2.12326e-05
5.68535e-09
2.14714e-05
5.28247e-09
2.17122e-05
4.89277e-09
2.19551e-05
4.51312e-09
2.22001e-05
4.14709e-09
2.2447e-05
3.79367e-09
2.26959e-05
3.44765e-09
2.29467e-05
3.12068e-09
2.31993e-05
2.80148e-09
2.34537e-05
2.49512e-09
2.37099e-05
2.20246e-09
2.39678e-05
1.92088e-09
2.42273e-05
1.65307e-09
2.44884e-05
1.40008e-09
2.47511e-05
1.15693e-09
2.50151e-05
9.26502e-10
2.52805e-05
7.09654e-10
2.55472e-05
5.0723e-10
2.58151e-05
3.12708e-10
2.60842e-05
1.36084e-10
2.63542e-05
-2.35717e-11
2.66252e-05
-1.76447e-10
2.6897e-05
-3.12885e-10
2.71695e-05
-4.35392e-10
2.74427e-05
-5.45122e-10
2.77163e-05
-6.39497e-10
2.79903e-05
-7.2129e-10
2.82646e-05
-7.88134e-10
2.85389e-05
-8.3763e-10
2.88132e-05
2.90873e-05
1.15547e-09
1.4531e-05
2.09904e-09
1.33232e-05
3.33136e-09
1.29019e-05
4.61245e-09
1.26774e-05
5.95207e-09
1.25505e-05
7.27819e-09
1.24835e-05
8.57546e-09
1.24568e-05
9.83242e-09
1.24589e-05
1.10406e-08
1.24828e-05
1.21907e-08
1.25237e-05
1.32678e-08
1.25785e-05
1.42814e-08
1.26448e-05
1.52143e-08
1.27208e-05
1.60724e-08
1.28052e-05
1.68505e-08
1.28971e-05
1.7542e-08
1.29955e-05
1.81606e-08
1.31e-05
1.86985e-08
1.32099e-05
1.91516e-08
1.33248e-05
1.95376e-08
1.34444e-05
1.98476e-08
1.35684e-05
2.00873e-08
1.36965e-05
2.02638e-08
1.38286e-05
2.0375e-08
1.39644e-05
2.04236e-08
1.41038e-05
2.04256e-08
1.42466e-05
2.03658e-08
1.43928e-05
2.02601e-08
1.45423e-05
2.01087e-08
1.46949e-05
1.9917e-08
1.48505e-05
1.96849e-08
1.50092e-05
1.94254e-08
1.51709e-05
1.91233e-08
1.53354e-05
1.87957e-08
1.55028e-05
1.8445e-08
1.5673e-05
1.80704e-08
1.58459e-05
1.76716e-08
1.60216e-05
1.72576e-08
1.62e-05
1.68274e-08
1.6381e-05
1.63846e-08
1.65647e-05
1.59261e-08
1.67511e-05
1.546e-08
1.694e-05
1.49849e-08
1.71315e-05
1.45065e-08
1.73255e-05
1.40205e-08
1.75221e-05
1.35327e-08
1.77212e-05
1.3041e-08
1.79228e-05
1.25504e-08
1.81269e-05
1.20593e-08
1.83334e-05
1.15697e-08
1.85424e-05
1.10818e-08
1.87538e-05
1.0596e-08
1.89676e-05
1.01188e-08
1.91838e-05
9.64305e-09
1.94023e-05
9.1756e-09
1.96232e-05
8.714e-09
1.98464e-05
8.25765e-09
2.00719e-05
7.80868e-09
2.02997e-05
7.37266e-09
2.05297e-05
6.94104e-09
2.0762e-05
6.51933e-09
2.09964e-05
6.10668e-09
2.1233e-05
5.70298e-09
2.14718e-05
5.31346e-09
2.17126e-05
4.93114e-09
2.19555e-05
4.55755e-09
2.22004e-05
4.19969e-09
2.24474e-05
3.84683e-09
2.26962e-05
3.51223e-09
2.2947e-05
3.18268e-09
2.31996e-05
2.86731e-09
2.34541e-05
2.5635e-09
2.37102e-05
2.27006e-09
2.39681e-05
1.99175e-09
2.42276e-05
1.72374e-09
2.44887e-05
1.46691e-09
2.47513e-05
1.22413e-09
2.50153e-05
9.92467e-10
2.52807e-05
7.72796e-10
2.55474e-05
5.69687e-10
2.58153e-05
3.80034e-10
2.60843e-05
1.97379e-10
2.63544e-05
2.99595e-11
2.66254e-05
-1.2181e-10
2.68972e-05
-2.62157e-10
2.71697e-05
-3.85353e-10
2.74428e-05
-4.96177e-10
2.77164e-05
-5.95177e-10
2.79904e-05
-6.7349e-10
2.82646e-05
-7.42551e-10
2.8539e-05
-7.96669e-10
2.88132e-05
2.90873e-05
8.92638e-10
1.45301e-05
1.67199e-09
1.33224e-05
2.59092e-09
1.2901e-05
3.57631e-09
1.26764e-05
4.60545e-09
1.25495e-05
5.62375e-09
1.24825e-05
6.64078e-09
1.24557e-05
7.63441e-09
1.24579e-05
8.61184e-09
1.24818e-05
9.5593e-09
1.25228e-05
1.04767e-08
1.25776e-05
1.1351e-08
1.26439e-05
1.21829e-08
1.27199e-05
1.29611e-08
1.28044e-05
1.36926e-08
1.28963e-05
1.43688e-08
1.29949e-05
1.49866e-08
1.30993e-05
1.55416e-08
1.32093e-05
1.60406e-08
1.33243e-05
1.64833e-08
1.3444e-05
1.68606e-08
1.3568e-05
1.71867e-08
1.36962e-05
1.74485e-08
1.38283e-05
1.76605e-08
1.39642e-05
1.7821e-08
1.41036e-05
1.7921e-08
1.42465e-05
1.79827e-08
1.43928e-05
1.79923e-08
1.45423e-05
1.7959e-08
1.46949e-05
1.78823e-08
1.48506e-05
1.7769e-08
1.50093e-05
1.76157e-08
1.5171e-05
1.74318e-08
1.53356e-05
1.72165e-08
1.5503e-05
1.69665e-08
1.56732e-05
1.66937e-08
1.58462e-05
1.63987e-08
1.60219e-05
1.6074e-08
1.62003e-05
1.57352e-08
1.63814e-05
1.53787e-08
1.65651e-05
1.50032e-08
1.67514e-05
1.46148e-08
1.69404e-05
1.42188e-08
1.71319e-05
1.38044e-08
1.73259e-05
1.33846e-08
1.75225e-05
1.29593e-08
1.77216e-05
1.25269e-08
1.79232e-05
1.20861e-08
1.81273e-05
1.16458e-08
1.83339e-05
1.12041e-08
1.85428e-05
1.07573e-08
1.87542e-05
1.03181e-08
1.8968e-05
9.87373e-09
1.91842e-05
9.43497e-09
1.94027e-05
8.99753e-09
1.96236e-05
8.56298e-09
1.98468e-05
8.13387e-09
2.00723e-05
7.71363e-09
2.03001e-05
7.29585e-09
2.05301e-05
6.8819e-09
2.07624e-05
6.4798e-09
2.09968e-05
6.08284e-09
2.12334e-05
5.69663e-09
2.14721e-05
5.31403e-09
2.1713e-05
4.94297e-09
2.19559e-05
4.58258e-09
2.22008e-05
4.22792e-09
2.24477e-05
3.88621e-09
2.26966e-05
3.55276e-09
2.29473e-05
3.23249e-09
2.31999e-05
2.9205e-09
2.34544e-05
2.61983e-09
2.37105e-05
2.32952e-09
2.39684e-05
2.05048e-09
2.42279e-05
1.78561e-09
2.4489e-05
1.52812e-09
2.47516e-05
1.2865e-09
2.50156e-05
1.05755e-09
2.5281e-05
8.36623e-10
2.55477e-05
6.30109e-10
2.58155e-05
4.35142e-10
2.60845e-05
2.57739e-10
2.63546e-05
8.95021e-11
2.66255e-05
-6.48224e-11
2.68973e-05
-2.05033e-10
2.71698e-05
-3.32166e-10
2.74429e-05
-4.45368e-10
2.77165e-05
-5.4095e-10
2.79905e-05
-6.2696e-10
2.82647e-05
-6.94047e-10
2.8539e-05
-7.49035e-10
2.88133e-05
2.90873e-05
7.37745e-10
1.45293e-05
1.3716e-09
1.33217e-05
2.07611e-09
1.29003e-05
2.85635e-09
1.26756e-05
3.67124e-09
1.25486e-05
4.49495e-09
1.24817e-05
5.30436e-09
1.24549e-05
6.11428e-09
1.24571e-05
6.90832e-09
1.2481e-05
7.68967e-09
1.2522e-05
8.45378e-09
1.25768e-05
9.19859e-09
1.26432e-05
9.91335e-09
1.27192e-05
1.06021e-08
1.28037e-05
1.12498e-08
1.28957e-05
1.18721e-08
1.29942e-05
1.24459e-08
1.30988e-05
1.29826e-08
1.32088e-05
1.34819e-08
1.33238e-05
1.39255e-08
1.34435e-05
1.4334e-08
1.35676e-05
1.46895e-08
1.36958e-05
1.50048e-08
1.3828e-05
1.52713e-08
1.39639e-05
1.54913e-08
1.41034e-05
1.56727e-08
1.42463e-05
1.58054e-08
1.43926e-05
1.58977e-08
1.45422e-05
1.59502e-08
1.46948e-05
1.59609e-08
1.48506e-05
1.59362e-08
1.50094e-05
1.58761e-08
1.51711e-05
1.57824e-08
1.53357e-05
1.56535e-08
1.55031e-05
1.54977e-08
1.56734e-05
1.5316e-08
1.58464e-05
1.51026e-08
1.60221e-05
1.487e-08
1.62005e-05
1.461e-08
1.63816e-05
1.43308e-08
1.65654e-05
1.40329e-08
1.67517e-05
1.372e-08
1.69407e-05
1.33879e-08
1.71322e-05
1.30466e-08
1.73263e-05
1.26876e-08
1.75229e-05
1.23232e-08
1.7722e-05
1.19467e-08
1.79236e-05
1.15654e-08
1.81277e-05
1.11753e-08
1.83342e-05
1.07812e-08
1.85432e-05
1.0383e-08
1.87546e-05
9.97898e-09
1.89684e-05
9.57769e-09
1.91846e-05
9.17312e-09
1.94032e-05
8.76874e-09
1.9624e-05
8.36952e-09
1.98472e-05
7.96808e-09
2.00727e-05
7.57105e-09
2.03005e-05
7.17557e-09
2.05305e-05
6.7881e-09
2.07628e-05
6.40344e-09
2.09972e-05
6.02592e-09
2.12338e-05
5.654e-09
2.14725e-05
5.28993e-09
2.17133e-05
4.93072e-09
2.19562e-05
4.58135e-09
2.22012e-05
4.23552e-09
2.24481e-05
3.90453e-09
2.26969e-05
3.57892e-09
2.29477e-05
3.2642e-09
2.32003e-05
2.95784e-09
2.34547e-05
2.66397e-09
2.37108e-05
2.37801e-09
2.39687e-05
2.10498e-09
2.42282e-05
1.83962e-09
2.44892e-05
1.58868e-09
2.47518e-05
1.34543e-09
2.50158e-05
1.11452e-09
2.52812e-05
8.98314e-10
2.55479e-05
6.90446e-10
2.58157e-05
4.9849e-10
2.60847e-05
3.1639e-10
2.63547e-05
1.48229e-10
2.66257e-05
-5.61766e-12
2.68975e-05
-1.47668e-10
2.717e-05
-2.7418e-10
2.74431e-05
-3.87886e-10
2.77167e-05
-4.88647e-10
2.79906e-05
-5.72022e-10
2.82648e-05
-6.43531e-10
2.85391e-05
-6.99083e-10
2.88133e-05
2.90874e-05
6.01732e-10
1.45287e-05
1.09887e-09
1.33212e-05
1.63252e-09
1.28997e-05
2.24818e-09
1.2675e-05
2.90271e-09
1.2548e-05
3.56625e-09
1.2481e-05
4.23195e-09
1.24543e-05
4.89529e-09
1.24564e-05
5.56e-09
1.24803e-05
6.21312e-09
1.25214e-05
6.85775e-09
1.25762e-05
7.49007e-09
1.26425e-05
8.112e-09
1.27186e-05
8.71093e-09
1.28031e-05
9.29435e-09
1.28951e-05
9.84485e-09
1.29937e-05
1.03785e-08
1.30982e-05
1.08783e-08
1.32083e-05
1.13445e-08
1.33233e-05
1.1785e-08
1.34431e-05
1.21874e-08
1.35672e-05
1.25546e-08
1.36955e-05
1.28855e-08
1.38277e-05
1.31784e-08
1.39636e-05
1.34349e-08
1.41031e-05
1.36543e-08
1.42461e-05
1.38384e-08
1.43925e-05
1.39893e-08
1.4542e-05
1.40988e-08
1.46947e-05
1.41775e-08
1.48505e-05
1.42199e-08
1.50093e-05
1.4229e-08
1.51711e-05
1.42048e-08
1.53357e-05
1.41531e-08
1.55032e-05
1.40714e-08
1.56734e-05
1.39577e-08
1.58465e-05
1.38227e-08
1.60222e-05
1.36591e-08
1.62007e-05
1.34753e-08
1.63818e-05
1.32666e-08
1.65656e-05
1.30388e-08
1.6752e-05
1.27916e-08
1.69409e-05
1.25265e-08
1.71325e-05
1.22459e-08
1.73266e-05
1.19522e-08
1.75232e-05
1.16395e-08
1.77223e-05
1.13195e-08
1.79239e-05
1.099e-08
1.8128e-05
1.06491e-08
1.83346e-05
1.03015e-08
1.85436e-05
9.95182e-09
1.8755e-05
9.59335e-09
1.89688e-05
9.22843e-09
1.9185e-05
8.86347e-09
1.94035e-05
8.49658e-09
1.96244e-05
8.12702e-09
1.98476e-05
7.75722e-09
2.00731e-05
7.38867e-09
2.03009e-05
7.02137e-09
2.05309e-05
6.65645e-09
2.07631e-05
6.29635e-09
2.09976e-05
5.93539e-09
2.12342e-05
5.58235e-09
2.14729e-05
5.23178e-09
2.17137e-05
4.89145e-09
2.19566e-05
4.55454e-09
2.22015e-05
4.22813e-09
2.24484e-05
3.9033e-09
2.26972e-05
3.5897e-09
2.2948e-05
3.28218e-09
2.32006e-05
2.98516e-09
2.3455e-05
2.69669e-09
2.37111e-05
2.41511e-09
2.3969e-05
2.14523e-09
2.42284e-05
1.88432e-09
2.44895e-05
1.63482e-09
2.47521e-05
1.39581e-09
2.50161e-05
1.16792e-09
2.52814e-05
9.51982e-10
2.55481e-05
7.46646e-10
2.58159e-05
5.54733e-10
2.60849e-05
3.74646e-10
2.63549e-05
2.07255e-10
2.66259e-05
5.29329e-11
2.68976e-05
-8.77025e-11
2.71701e-05
-2.17372e-10
2.74432e-05
-3.32633e-10
2.77168e-05
-4.29038e-10
2.79907e-05
-5.17332e-10
2.82649e-05
-5.86524e-10
2.85392e-05
-6.421e-10
2.88134e-05
2.90874e-05
4.83689e-10
1.45282e-05
8.82013e-10
1.33208e-05
1.29757e-09
1.28993e-05
1.78681e-09
1.26745e-05
2.31405e-09
1.25475e-05
2.85589e-09
1.24804e-05
3.4041e-09
1.24537e-05
3.95391e-09
1.24559e-05
4.50505e-09
1.24798e-05
5.05589e-09
1.25208e-05
5.60604e-09
1.25756e-05
6.1441e-09
1.2642e-05
6.67834e-09
1.27181e-05
7.20263e-09
1.28026e-05
7.71097e-09
1.28946e-05
8.20776e-09
1.29932e-05
8.67971e-09
1.30978e-05
9.14007e-09
1.32078e-05
9.57186e-09
1.33229e-05
9.98447e-09
1.34427e-05
1.03689e-08
1.35668e-05
1.07264e-08
1.36951e-05
1.106e-08
1.38273e-05
1.13598e-08
1.39633e-05
1.1635e-08
1.41029e-05
1.18787e-08
1.42459e-05
1.20895e-08
1.43922e-05
1.22692e-08
1.45418e-05
1.24224e-08
1.46946e-05
1.25399e-08
1.48504e-05
1.26316e-08
1.50092e-05
1.26921e-08
1.5171e-05
1.27261e-08
1.53357e-05
1.27302e-08
1.55032e-05
1.27049e-08
1.56735e-05
1.26525e-08
1.58465e-05
1.25751e-08
1.60223e-05
1.24756e-08
1.62008e-05
1.23514e-08
1.63819e-05
1.22027e-08
1.65657e-05
1.20346e-08
1.67521e-05
1.18473e-08
1.69411e-05
1.1643e-08
1.71327e-05
1.14198e-08
1.73268e-05
1.11801e-08
1.75234e-05
1.09287e-08
1.77226e-05
1.06613e-08
1.79242e-05
1.03799e-08
1.81283e-05
1.00919e-08
1.83349e-05
9.79026e-09
1.85439e-05
9.47951e-09
1.87553e-05
9.16194e-09
1.89691e-05
8.84188e-09
1.91853e-05
8.51242e-09
1.94038e-05
8.17987e-09
1.96247e-05
7.84231e-09
1.98479e-05
7.50559e-09
2.00734e-05
7.16515e-09
2.03012e-05
6.82698e-09
2.05312e-05
6.48849e-09
2.07635e-05
6.14906e-09
2.09979e-05
5.81671e-09
2.12345e-05
5.48239e-09
2.14732e-05
5.15399e-09
2.1714e-05
4.82798e-09
2.19569e-05
4.50638e-09
2.22018e-05
4.1903e-09
2.24487e-05
3.88109e-09
2.26975e-05
3.57921e-09
2.29483e-05
3.28225e-09
2.32009e-05
2.99305e-09
2.34553e-05
2.71047e-09
2.37114e-05
2.44142e-09
2.39692e-05
2.17489e-09
2.42287e-05
1.92364e-09
2.44898e-05
1.67678e-09
2.47523e-05
1.44054e-09
2.50163e-05
1.2178e-09
2.52817e-05
1.00336e-09
2.55483e-05
8.01589e-10
2.58161e-05
6.09636e-10
2.60851e-05
4.29841e-10
2.63551e-05
2.62564e-10
2.6626e-05
1.08662e-10
2.68978e-05
-3.17558e-11
2.71702e-05
-1.59745e-10
2.74433e-05
-2.69581e-10
2.77169e-05
-3.71838e-10
2.79908e-05
-4.53827e-10
2.8265e-05
-5.26552e-10
2.85392e-05
-5.82754e-10
2.88134e-05
2.90875e-05
4.05871e-10
1.45278e-05
7.35619e-10
1.33205e-05
1.06218e-09
1.2899e-05
1.45458e-09
1.26741e-05
1.88081e-09
1.2547e-05
2.32664e-09
1.248e-05
2.78095e-09
1.24533e-05
3.24749e-09
1.24554e-05
3.70508e-09
1.24793e-05
4.16661e-09
1.25204e-05
4.62794e-09
1.25752e-05
5.09138e-09
1.26415e-05
5.54648e-09
1.27176e-05
5.99602e-09
1.28022e-05
6.43945e-09
1.28941e-05
6.87516e-09
1.29927e-05
7.29916e-09
1.30973e-05
7.70614e-09
1.32074e-05
8.10215e-09
1.33225e-05
8.47619e-09
1.34423e-05
8.83655e-09
1.35665e-05
9.17556e-09
1.36948e-05
9.49081e-09
1.3827e-05
9.79154e-09
1.3963e-05
1.00645e-08
1.41026e-05
1.03135e-08
1.42456e-05
1.05371e-08
1.4392e-05
1.07361e-08
1.45416e-05
1.0909e-08
1.46944e-05
1.10604e-08
1.48503e-05
1.11831e-08
1.50091e-05
1.12769e-08
1.51709e-05
1.13479e-08
1.53356e-05
1.13934e-08
1.55031e-05
1.1415e-08
1.56734e-05
1.14121e-08
1.58465e-05
1.13838e-08
1.60223e-05
1.1333e-08
1.62008e-05
1.12562e-08
1.6382e-05
1.1163e-08
1.65658e-05
1.10506e-08
1.67522e-05
1.0912e-08
1.69413e-05
1.07563e-08
1.71328e-05
1.05858e-08
1.7327e-05
1.03978e-08
1.75236e-05
1.01923e-08
1.77228e-05
9.9738e-09
1.79244e-05
9.74222e-09
1.81285e-05
9.49731e-09
1.83351e-05
9.24098e-09
1.85441e-05
8.97577e-09
1.87556e-05
8.69908e-09
1.89694e-05
8.41483e-09
1.91856e-05
8.12517e-09
1.94041e-05
7.82782e-09
1.9625e-05
7.52827e-09
1.98482e-05
7.22256e-09
2.00738e-05
6.91407e-09
2.03015e-05
6.60252e-09
2.05315e-05
6.29181e-09
2.07638e-05
5.97902e-09
2.09982e-05
5.6657e-09
2.12348e-05
5.35313e-09
2.14735e-05
5.04469e-09
2.17143e-05
4.738e-09
2.19572e-05
4.43203e-09
2.22021e-05
4.13383e-09
2.2449e-05
3.83854e-09
2.26978e-05
3.54934e-09
2.29486e-05
3.26328e-09
2.32011e-05
2.98529e-09
2.34555e-05
2.71602e-09
2.37117e-05
2.45069e-09
2.39695e-05
2.19619e-09
2.4229e-05
1.94665e-09
2.449e-05
1.70737e-09
2.47526e-05
1.48067e-09
2.50165e-05
1.25756e-09
2.52819e-05
1.04847e-09
2.55485e-05
8.48235e-10
2.58163e-05
6.60624e-10
2.60853e-05
4.83094e-10
2.63553e-05
3.19377e-10
2.66262e-05
1.66733e-10
2.68979e-05
2.72082e-11
2.71704e-05
-9.8828e-11
2.74434e-05
-2.11067e-10
2.7717e-05
-3.09059e-10
2.79909e-05
-3.9154e-10
2.82651e-05
-4.6054e-10
2.85393e-05
-5.18311e-10
2.88135e-05
2.90875e-05
3.37413e-10
1.45275e-05
6.11958e-10
1.33202e-05
8.79591e-10
1.28987e-05
1.1971e-09
1.26738e-05
1.54625e-09
1.25467e-05
1.91213e-09
1.24796e-05
2.2971e-09
1.24529e-05
2.6792e-09
1.2455e-05
3.06812e-09
1.2479e-05
3.45893e-09
1.252e-05
3.84942e-09
1.25748e-05
4.24138e-09
1.26411e-05
4.62911e-09
1.27172e-05
5.01939e-09
1.28018e-05
5.40705e-09
1.28938e-05
5.78311e-09
1.29924e-05
6.15439e-09
1.3097e-05
6.518e-09
1.3207e-05
6.87116e-09
1.33222e-05
7.21454e-09
1.34419e-05
7.54043e-09
1.35661e-05
7.85677e-09
1.36945e-05
8.15401e-09
1.38267e-05
8.43727e-09
1.39627e-05
8.69979e-09
1.41023e-05
8.94436e-09
1.42454e-05
9.16976e-09
1.43918e-05
9.37892e-09
1.45414e-05
9.56248e-09
1.46942e-05
9.72638e-09
1.48501e-05
9.86477e-09
1.5009e-05
9.98566e-09
1.51708e-05
1.00831e-08
1.53355e-05
1.01586e-08
1.5503e-05
1.02107e-08
1.56734e-05
1.02435e-08
1.58465e-05
1.02539e-08
1.60223e-05
1.02407e-08
1.62009e-05
1.02109e-08
1.63821e-05
1.01581e-08
1.65659e-05
1.00828e-08
1.67523e-05
9.99555e-09
1.69413e-05
9.88429e-09
1.71329e-05
9.75316e-09
1.73271e-05
9.61341e-09
1.75238e-05
9.45055e-09
1.77229e-05
9.27796e-09
1.79246e-05
9.08881e-09
1.81287e-05
8.88447e-09
1.83353e-05
8.66939e-09
1.85443e-05
8.44286e-09
1.87558e-05
8.21134e-09
1.89696e-05
7.96322e-09
1.91858e-05
7.70734e-09
1.94044e-05
7.44909e-09
1.96253e-05
7.17969e-09
1.98485e-05
6.90717e-09
2.0074e-05
6.62881e-09
2.03018e-05
6.34624e-09
2.05318e-05
6.06071e-09
2.07641e-05
5.77377e-09
2.09985e-05
5.485e-09
2.12351e-05
5.19749e-09
2.14738e-05
4.91046e-09
2.17146e-05
4.62315e-09
2.19575e-05
4.34073e-09
2.22024e-05
4.05427e-09
2.24493e-05
3.77667e-09
2.26981e-05
3.49933e-09
2.29488e-05
3.23092e-09
2.32014e-05
2.96416e-09
2.34558e-05
2.70244e-09
2.37119e-05
2.45e-09
2.39698e-05
2.20175e-09
2.42292e-05
1.96245e-09
2.44902e-05
1.73061e-09
2.47528e-05
1.50682e-09
2.50168e-05
1.29395e-09
2.52821e-05
1.08826e-09
2.55487e-05
8.92362e-10
2.58165e-05
7.06827e-10
2.60855e-05
5.33681e-10
2.63555e-05
3.71837e-10
2.66264e-05
2.21681e-10
2.68981e-05
8.52552e-11
2.71705e-05
-3.86786e-11
2.74436e-05
-1.48099e-10
2.77171e-05
-2.44397e-10
2.7991e-05
-3.26517e-10
2.82651e-05
-3.93553e-10
2.85394e-05
-4.46975e-10
2.88136e-05
2.90875e-05
2.82524e-10
1.45272e-05
5.16206e-10
1.332e-05
7.26739e-10
1.28985e-05
9.8048e-10
1.26736e-05
1.26926e-09
1.25464e-05
1.58131e-09
1.24793e-05
1.89638e-09
1.24526e-05
2.21858e-09
1.24547e-05
2.5479e-09
1.24786e-05
2.88163e-09
1.25196e-05
3.21532e-09
1.25745e-05
3.5474e-09
1.26408e-05
3.8843e-09
1.27169e-05
4.21599e-09
1.28014e-05
4.54853e-09
1.28934e-05
4.87761e-09
1.2992e-05
5.2054e-09
1.30966e-05
5.525e-09
1.32067e-05
5.83942e-09
1.33218e-05
6.14316e-09
1.34416e-05
6.4426e-09
1.35658e-05
6.73019e-09
1.36942e-05
7.00607e-09
1.38265e-05
7.26793e-09
1.39625e-05
7.51682e-09
1.41021e-05
7.75057e-09
1.42452e-05
7.97193e-09
1.43916e-05
8.17448e-09
1.45412e-05
8.36111e-09
1.4694e-05
8.52765e-09
1.48499e-05
8.68258e-09
1.50088e-05
8.8141e-09
1.51707e-05
8.92847e-09
1.53354e-05
9.02349e-09
1.55029e-05
9.10356e-09
1.56733e-05
9.15719e-09
1.58464e-05
9.19537e-09
1.60223e-05
9.21438e-09
1.62008e-05
9.21332e-09
1.63821e-05
9.19608e-09
1.65659e-05
9.15897e-09
1.67524e-05
9.10382e-09
1.69414e-05
9.03146e-09
1.7133e-05
8.94421e-09
1.73272e-05
8.83367e-09
1.75239e-05
8.71795e-09
1.77231e-05
8.58031e-09
1.79247e-05
8.42891e-09
1.81289e-05
8.26551e-09
1.83355e-05
8.08948e-09
1.85445e-05
7.90026e-09
1.8756e-05
7.69901e-09
1.89698e-05
7.49032e-09
1.9186e-05
7.27263e-09
1.94046e-05
7.0434e-09
1.96255e-05
6.8089e-09
1.98487e-05
6.56561e-09
2.00743e-05
6.31541e-09
2.03021e-05
6.06371e-09
2.05321e-05
5.80806e-09
2.07643e-05
5.54505e-09
2.09988e-05
5.28228e-09
2.12354e-05
5.01889e-09
2.14741e-05
4.75025e-09
2.17149e-05
4.48316e-09
2.19578e-05
4.21674e-09
2.22027e-05
3.95606e-09
2.24495e-05
3.69248e-09
2.26984e-05
3.43408e-09
2.29491e-05
3.17601e-09
2.32017e-05
2.92559e-09
2.34561e-05
2.67674e-09
2.37122e-05
2.43281e-09
2.397e-05
2.19584e-09
2.42295e-05
1.96521e-09
2.44905e-05
1.74469e-09
2.4753e-05
1.5275e-09
2.5017e-05
1.31945e-09
2.52823e-05
1.11965e-09
2.55489e-05
9.29789e-10
2.58167e-05
7.49011e-10
2.60857e-05
5.81006e-10