/*--------------------------------*- C++ -*----------------------------------*\
  =========                 |
  \\      /  F ield         | OpenFOAM: The Open Source CFD Toolbox
   \\    /   O peration     | Website:  https://openfoam.org
    \\  /    A nd           | Version:  10
     \\/     M anipulation  |
\*---------------------------------------------------------------------------*/
FoamFile
{
    format      ascii;
    class       volVectorField;
    location    "26000";
    object      U;
}
// * * * * * * * * * * * * * * * * * * * * * * * * * * * * * * * * * * * * * //

dimensions      [0 1 -1 0 0 0 0];

internalField   nonuniform List<vector> 
17808
(
(-1.6728 1.82135 -8.35749e-18)
(-2.06246 2.25194 -9.32993e-19)
(-2.23254 2.43903 6.02704e-18)
(-2.34857 2.56283 6.43829e-18)
(-2.43513 2.65737 -1.50315e-18)
(-2.50448 2.73287 -1.05291e-17)
(-2.56205 2.79576 5.26145e-18)
(-2.61125 2.8496 -5.56034e-18)
(-2.6542 2.89667 9.32037e-18)
(-2.69229 2.93848 -2.5895e-21)
(-2.72651 2.97609 -4.18098e-18)
(-2.75758 3.01026 2.97972e-18)
(-2.78602 3.04156 -4.26497e-18)
(-2.81225 3.07045 4.52695e-19)
(-2.83657 3.09725 0)
(-2.85924 3.12225 4.16006e-19)
(-2.88046 3.14567 -7.99843e-19)
(-2.9004 3.16769 -7.70148e-19)
(-2.91921 3.18845 -3.34051e-18)
(-2.93699 3.2081 3.14679e-21)
(-2.95384 3.22673 2.77547e-18)
(-2.96986 3.24443 0)
(-2.9851 3.26129 2.60081e-18)
(-2.99963 3.27737 -2.52619e-18)
(-3.01351 3.29273 2.44977e-18)
(-3.02678 3.30742 -2.97953e-18)
(-3.03949 3.3215 -5.79239e-19)
(-3.05167 3.33499 0)
(-3.06335 3.34793 -5.49141e-19)
(-3.07456 3.36036 -5.35141e-19)
(-3.08534 3.37231 2.08573e-18)
(-3.0957 3.38379 -1.52905e-18)
(-3.10566 3.39484 0)
(-3.11524 3.40547 0)
(-3.12446 3.4157 4.74123e-19)
(-3.13334 3.42555 2.31524e-18)
(-3.14188 3.43504 -1.36075e-18)
(-3.15011 3.44417 0)
(-3.15802 3.45297 -1.73182e-18)
(-3.16565 3.46143 3.40467e-21)
(-3.17298 3.46958 2.49176e-18)
(-3.18004 3.47742 2.43569e-18)
(-3.18682 3.48496 -1.59266e-18)
(-3.19334 3.49221 7.78883e-19)
(-3.19961 3.49918 0)
(-3.20562 3.50586 -7.47083e-19)
(-3.21139 3.51228 2.19363e-18)
(-3.21692 3.51843 -2.86915e-18)
(-3.22221 3.52432 7.02254e-19)
(-3.22727 3.52996 0)
(-3.23211 3.53534 0)
(-3.23672 3.54047 1.97902e-18)
(-3.24111 3.54536 -6.48645e-19)
(-3.24528 3.55001 0)
(-3.24923 3.55441 6.20692e-19)
(-3.25297 3.55859 6.07991e-19)
(-3.2565 3.56252 -5.95485e-19)
(-3.25982 3.56623 -5.83166e-19)
(-3.26293 3.5697 -5.7106e-19)
(-3.26583 3.57294 1.11644e-18)
(-3.26853 3.57596 -1.84093e-21)
(-3.27102 3.57875 1.0698e-18)
(-3.2733 3.58131 -1.05072e-18)
(-3.27539 3.58365 -1.02637e-18)
(-3.27726 3.58576 -2.00645e-18)
(-3.27894 3.58764 9.82249e-19)
(-3.28041 3.5893 -1.9232e-18)
(-3.28168 3.59074 1.87869e-18)
(-3.28274 3.59195 0)
(-3.2836 3.59294 8.97543e-19)
(-3.28426 3.5937 1.75214e-18)
(-3.28471 3.59423 -8.60582e-19)
(-3.28496 3.59454 -8.38704e-19)
(-3.28499 3.59462 8.17086e-19)
(-3.28483 3.59447 -1.90208e-21)
(-3.28445 3.59408 -2.33516e-18)
(-3.28386 3.59347 1.52075e-18)
(-3.28307 3.59263 0)
(-3.28206 3.59155 -7.24152e-19)
(-3.28083 3.59023 -2.114e-18)
(-3.2794 3.58868 0)
(-3.27774 3.58689 0)
(-3.27587 3.58486 1.30183e-18)
(-3.27378 3.58258 0)
(-3.27146 3.58006 1.23354e-18)
(-3.26893 3.5773 0)
(-3.26616 3.57428 -2.72798e-23)
(-3.26317 3.57102 0)
(-3.25995 3.5675 0)
(-3.2565 3.56372 1.07187e-18)
(-3.25281 3.55968 2.08228e-18)
(-3.24889 3.55539 2.02186e-18)
(-1.67082 1.83401 -9.33302e-19)
(-2.05629 2.26464 9.24578e-19)
(-2.22674 2.44903 0)
(-2.34121 2.57292 0)
(-2.42711 2.66701 1.49482e-18)
(-2.49614 2.74203 -6.96961e-19)
(-2.55355 2.80451 5.21582e-18)
(-2.60269 2.85801 -4.28607e-18)
(-2.64561 2.9048 -5.76642e-19)
(-2.68371 2.94639 4.35679e-18)
(-2.71795 2.98382 -4.64877e-18)
(-2.74905 3.01785 9.81742e-19)
(-2.77751 3.04905 4.67818e-19)
(-2.80376 3.07786 -4.4693e-19)
(-2.8281 3.1046 0)
(-2.85079 3.12956 -4.10531e-19)
(-2.87203 3.15295 3.94582e-19)
(-2.89198 3.17494 3.79895e-19)
(-2.9108 3.1957 0)
(-2.92858 3.21534 0)
(-2.94544 3.23397 0)
(-2.96146 3.25168 -6.62197e-19)
(-2.9767 3.26854 0)
(-2.99123 3.28463 -6.22632e-19)
(-3.00511 3.3 0)
(-3.01838 3.31471 5.87661e-19)
(-3.03108 3.3288 5.71673e-19)
(-3.04325 3.3423 0)
(-3.05493 3.35526 -2.16666e-18)
(-3.06614 3.36771 5.31615e-19)
(-3.07691 3.37967 1.54758e-18)
(-3.08726 3.39117 -5.02869e-19)
(-3.09721 3.40224 1.96227e-18)
(-3.10679 3.41289 -4.31614e-18)
(-3.116 3.42314 1.40752e-18)
(-3.12487 3.433 -4.58105e-19)
(-3.13341 3.44251 -8.95992e-19)
(-3.14163 3.45166 0)
(-3.14954 3.46047 0)
(-3.15715 3.46895 2.09682e-18)
(-3.16448 3.47711 -1.64522e-18)
(-3.17153 3.48497 -3.83605e-23)
(-3.17831 3.49253 -7.88085e-19)
(-3.18482 3.49979 -1.54387e-18)
(-3.19108 3.50677 -7.54518e-19)
(-3.19709 3.51347 2.22458e-18)
(-3.20285 3.51991 -1.45032e-18)
(-3.20837 3.52607 2.1362e-18)
(-3.21366 3.53197 -2.08999e-18)
(-3.21871 3.53762 1.36846e-18)
(-3.22354 3.54302 -1.33768e-18)
(-3.22814 3.54816 1.31456e-18)
(-3.23253 3.55306 -6.43318e-19)
(-3.23669 3.55772 0)
(-3.24064 3.56214 -6.17874e-19)
(-3.24438 3.56632 0)
(-3.2479 3.57027 0)
(-3.25121 3.57398 5.81323e-19)
(-3.25432 3.57746 1.84613e-21)
(-3.25722 3.58071 1.11765e-18)
(-3.25991 3.58374 -1.09289e-18)
(-3.2624 3.58653 1.07033e-18)
(-3.26468 3.5891 0)
(-3.26676 3.59145 0)
(-3.26864 3.59356 2.00704e-18)
(-3.27031 3.59546 -9.83092e-19)
(-3.27178 3.59712 1.92586e-18)
(-3.27305 3.59856 -1.90963e-21)
(-3.27411 3.59978 -9.22452e-19)
(-3.27497 3.60077 0)
(-3.27563 3.60153 -1.7584e-18)
(-3.27608 3.60207 3.44125e-18)
(-3.27633 3.60237 -3.82693e-21)
(-3.27637 3.60245 -3.83173e-21)
(-3.2762 3.6023 -1.90675e-21)
(-3.27583 3.60192 7.81447e-19)
(-3.27525 3.60131 -1.53135e-18)
(-3.27445 3.60047 7.46299e-19)
(-3.27345 3.59938 1.45433e-18)
(-3.27223 3.59807 -7.12094e-19)
(-3.27079 3.59651 6.90539e-19)
(-3.26915 3.59472 -2.02685e-18)
(-3.26728 3.59268 1.97128e-18)
(-3.26519 3.59041 -3.82981e-21)
(-3.26289 3.58788 -1.24792e-18)
(-3.26036 3.58511 6.0934e-19)
(-3.2576 3.58209 -2.36459e-18)
(-3.25462 3.57882 0)
(-3.25141 3.57529 0)
(-3.24797 3.57151 -2.17508e-18)
(-3.24429 3.56747 -1.58355e-18)
(-3.24038 3.56316 -1.02312e-18)
(-1.66759 1.84177 1.86532e-18)
(-2.05289 2.27229 1.47518e-17)
(-2.22313 2.45649 -2.7442e-17)
(-2.33621 2.58123 1.27712e-17)
(-2.42152 2.67524 -7.41824e-19)
(-2.48996 2.75024 0)
(-2.54686 2.81268 0)
(-2.59559 2.86612 0)
(-2.6382 2.91284 -8.54871e-18)
(-2.67605 2.95435 8.61658e-18)
(-2.7101 2.99171 5.09896e-19)
(-2.74104 3.02567 8.6114e-23)
(-2.76939 3.05681 7.3817e-18)
(-2.79554 3.08556 -1.45457e-17)
(-2.81981 3.11227 6.75339e-18)
(-2.84243 3.13719 6.06679e-18)
(-2.86363 3.16055 -5.83594e-18)
(-2.88354 3.18252 0)
(-2.90233 3.20326 0)
(-2.92009 3.22289 0)
(-2.93692 3.24151 0)
(-2.95292 3.25922 1.30471e-18)
(-2.96814 3.27609 0)
(-2.98266 3.29218 6.13392e-19)
(-2.99652 3.30756 0)
(-3.00977 3.32227 -5.78991e-19)
(-3.02246 3.33637 0)
(-3.03463 3.34988 2.19167e-18)
(-3.04629 3.36285 -2.13828e-18)
(-3.05749 3.37531 5.20735e-19)
(-3.06825 3.38729 -5.07944e-19)
(-3.07859 3.3988 2.47717e-18)
(-3.08853 3.40988 -3.21034e-21)
(-3.0981 3.42055 -1.42037e-18)
(-3.1073 3.43081 1.38503e-18)
(-3.11616 3.44069 -1.35739e-18)
(-3.12469 3.45021 4.4204e-19)
(-3.1329 3.45938 0)
(-3.1408 3.4682 0)
(-3.1484 3.4767 -2.48465e-18)
(-3.15572 3.48488 3.33895e-21)
(-3.16276 3.49275 3.32558e-21)
(-3.16953 3.50032 2.33765e-18)
(-3.17604 3.5076 -1.52411e-18)
(-3.18229 3.51459 7.49299e-19)
(-3.18829 3.52131 0)
(-3.19404 3.52775 0)
(-3.19956 3.53393 0)
(-3.20483 3.53985 1.74784e-21)
(-3.20988 3.54551 6.78325e-19)
(-3.2147 3.55091 0)
(-3.2193 3.55607 6.50296e-19)
(-3.22368 3.56098 -1.27334e-18)
(-3.22784 3.56565 1.87694e-18)
(-3.23178 3.57008 1.22375e-18)
(-3.23551 3.57427 -1.20322e-18)
(-3.23903 3.57823 -1.17587e-18)
(-3.24234 3.58195 5.78991e-19)
(-3.24544 3.58544 -5.6568e-19)
(-3.24834 3.5887 5.54343e-19)
(-3.25102 3.59173 1.08639e-18)
(-3.25351 3.59453 -1.06439e-18)
(-3.25579 3.59711 0)
(-3.25787 3.59946 0)
(-3.25974 3.60158 -2.28839e-23)
(-3.26141 3.60348 -1.95661e-18)
(-3.26288 3.60515 9.6051e-19)
(-3.26415 3.6066 -9.36376e-19)
(-3.26521 3.60781 2.75444e-18)
(-3.26607 3.60881 -1.90553e-21)
(-3.26673 3.60957 8.78628e-19)
(-3.26718 3.61011 -8.59236e-19)
(-3.26743 3.61042 0)
(-3.26747 3.6105 0)
(-3.2673 3.61035 0)
(-3.26693 3.60997 7.81901e-19)
(-3.26635 3.60936 -7.67429e-19)
(-3.26556 3.60851 -7.4745e-19)
(-3.26456 3.60743 0)
(-3.26335 3.60611 0)
(-3.26192 3.60456 -2.08157e-18)
(-3.26028 3.60276 3.38841e-18)
(-3.25841 3.60072 -2.67393e-23)
(-3.25634 3.59844 0)
(-3.25404 3.59591 -6.25076e-19)
(-3.25151 3.59313 3.83865e-21)
(-3.24877 3.59011 5.96535e-19)
(-3.24579 3.58683 -1.15747e-18)
(-3.24259 3.58329 -1.12621e-18)
(-3.23916 3.5795 1.64127e-18)
(-3.2355 3.57545 -3.8021e-21)
(-3.2316 3.57114 5.15748e-19)
(-1.66241 1.8471 1.30498e-17)
(-2.04789 2.27776 1.37853e-17)
(-2.21754 2.46289 -1.45056e-17)
(-2.33002 2.58823 7.92596e-19)
(-2.41517 2.68232 0)
(-2.4833 2.75753 0)
(-2.53994 2.82013 0)
(-2.58843 2.87368 9.58287e-18)
(-2.63082 2.92048 -1.80292e-17)
(-2.66847 2.96204 1.70137e-17)
(-2.70234 2.99944 -8.0573e-18)
(-2.73313 3.03343 7.16732e-18)
(-2.76134 3.06458 -7.28657e-18)
(-2.78738 3.09334 4.34561e-19)
(-2.81154 3.12005 7.06641e-18)
(-2.83409 3.14497 -5.98463e-18)
(-2.8552 3.16833 6.12698e-18)
(-2.87505 3.19031 -3.74892e-19)
(-2.89378 3.21105 -5.69092e-18)
(-2.91149 3.23067 -3.43225e-19)
(-2.92828 3.2493 0)
(-2.94424 3.26701 -1.28487e-18)
(-2.95943 3.28388 0)
(-2.97391 3.29997 0)
(-2.98775 3.31536 -5.27644e-18)
(-3.00098 3.33008 4.56473e-18)
(-3.01365 3.34418 0)
(-3.02579 3.35771 0)
(-3.03743 3.37069 0)
(-3.04861 3.38316 -1.02606e-18)
(-3.05935 3.39515 5.00498e-19)
(-3.06968 3.40668 0)
(-3.07961 3.41777 0)
(-3.08916 3.42844 0)
(-3.09835 3.43872 -2.73097e-18)
(-3.10719 3.44862 4.01389e-18)
(-3.11571 3.45815 0)
(-3.12391 3.46733 0)
(-3.1318 3.47617 0)
(-3.13939 3.48468 3.67727e-18)
(-3.1467 3.49287 -6.59006e-21)
(-3.15373 3.50075 -7.84795e-18)
(-3.16048 3.50834 5.38293e-18)
(-3.16698 3.51563 -2.26426e-18)
(-3.17322 3.52264 0)
(-3.17921 3.52937 7.24176e-19)
(-3.18496 3.53582 2.83667e-18)
(-3.19046 3.54201 -2.78821e-18)
(-3.19574 3.54794 -6.82709e-19)
(-3.20078 3.55361 3.34402e-18)
(-3.20559 3.55903 -1.31837e-18)
(-3.21018 3.5642 -1.29134e-18)
(-3.21455 3.56912 -1.26478e-18)
(-3.2187 3.5738 -1.77454e-21)
(-3.22264 3.57824 -1.8239e-18)
(-3.22636 3.58244 0)
(-3.22988 3.5864 5.82281e-19)
(-3.23318 3.59014 -1.1472e-18)
(-3.23628 3.59363 -1.68271e-18)
(-3.23917 3.5969 5.52294e-19)
(-3.24185 3.59994 1.07921e-18)
(-3.24433 3.60275 1.83132e-21)
(-3.24661 3.60533 3.69455e-21)
(-3.24869 3.60769 1.0176e-18)
(-3.25056 3.60982 -9.95148e-19)
(-3.25223 3.61172 9.74768e-19)
(-3.25369 3.6134 0)
(-3.25496 3.61485 -9.32907e-19)
(-3.25602 3.61607 -9.11385e-19)
(-3.25688 3.61706 1.88115e-21)
(-3.25754 3.61783 -1.75119e-18)
(-3.25799 3.61837 1.71702e-18)
(-3.25824 3.61868 0)
(-3.25828 3.61877 -1.90836e-21)
(-3.25812 3.61862 -1.60569e-18)
(-3.25775 3.61824 7.8374e-19)
(-3.25717 3.61762 7.65815e-19)
(-3.25639 3.61678 7.48064e-19)
(-3.25539 3.61569 0)
(-3.25418 3.61437 0)
(-3.25276 3.61281 1.39217e-18)
(-3.25112 3.61101 -2.71663e-18)
(-3.24927 3.60897 -1.3249e-18)
(-3.24719 3.60668 1.29185e-18)
(-3.2449 3.60415 1.88695e-18)
(-3.24239 3.60137 6.11604e-19)
(-3.23965 3.59834 1.19535e-18)
(-3.23669 3.59505 5.80103e-19)
(-3.23349 3.59151 1.1293e-18)
(-3.23007 3.58771 -5.53259e-19)
(-3.22642 3.58365 5.34429e-19)
(-3.22253 3.57933 -3.8429e-21)
(-1.65723 1.85237 1.58244e-17)
(-2.04238 2.28316 -1.46609e-17)
(-2.21116 2.46934 -1.27222e-17)
(-2.32327 2.59499 2.36054e-17)
(-2.40822 2.68926 -1.09518e-17)
(-2.47608 2.7647 1.1529e-17)
(-2.53253 2.82745 -2.02437e-17)
(-2.58086 2.88113 6.5544e-21)
(-2.62309 2.92803 8.90739e-18)
(-2.66061 2.96968 0)
(-2.69435 3.00715 0)
(-2.72502 3.04119 -4.71478e-19)
(-2.75312 3.07239 -4.48808e-19)
(-2.77906 3.10119 4.28334e-19)
(-2.80313 3.12793 3.02853e-23)
(-2.82559 3.15287 -3.92839e-19)
(-2.84663 3.17625 -7.54699e-19)
(-2.86641 3.19824 -1.60664e-23)
(-2.88508 3.219 0)
(-2.90273 3.23864 3.3792e-19)
(-2.91947 3.25728 5.22391e-18)
(-2.93538 3.27499 -4.43017e-18)
(-2.95053 3.29187 0)
(-2.96497 3.30798 5.34883e-18)
(-2.97877 3.32338 -4.04556e-18)
(-2.99197 3.33811 -4.48793e-18)
(-3.00461 3.35223 4.37234e-18)
(-3.01672 3.36576 5.31783e-19)
(-3.02834 3.37876 0)
(-3.0395 3.39124 5.05246e-19)
(-3.05022 3.40324 0)
(-3.06052 3.41478 0)
(-3.07043 3.42588 -3.75717e-18)
(-3.07996 3.43657 3.21849e-18)
(-3.08913 3.44686 -8.98169e-19)
(-3.09796 3.45677 -3.51077e-18)
(-3.10646 3.46631 3.01164e-18)
(-3.11464 3.47551 -4.20665e-19)
(-3.12252 3.48436 -3.29186e-18)
(-3.1301 3.49288 3.23043e-18)
(-3.13739 3.50109 -3.15831e-18)
(-3.14441 3.50898 3.87577e-18)
(-3.15116 3.51658 -3.03305e-18)
(-3.15764 3.52389 6.61388e-21)
(-3.16387 3.53091 5.10699e-18)
(-3.16985 3.53765 -3.5804e-18)
(-3.17559 3.54412 0)
(-3.18109 3.55032 2.74919e-18)
(-3.18635 3.55626 -2.70339e-18)
(-3.19138 3.56194 0)
(-3.19619 3.56737 -6.49558e-19)
(-3.20077 3.57255 1.27449e-18)
(-3.20513 3.57748 -2.49719e-18)
(-3.20928 3.58217 5.51987e-18)
(-3.21321 3.58662 -1.80856e-18)
(-3.21692 3.59083 -5.90243e-19)
(-3.22043 3.5948 2.89146e-18)
(-3.22373 3.59854 1.12872e-18)
(-3.22682 3.60205 5.49851e-19)
(-3.22971 3.60533 -7.23594e-21)
(-3.23239 3.60837 -6.42869e-18)
(-3.23487 3.61119 -1.04328e-18)
(-3.23714 3.61378 7.34084e-21)
(-3.23921 3.61614 2.02295e-18)
(-3.24108 3.61828 -2.96494e-18)
(-3.24275 3.62018 -1.93198e-18)
(-3.24421 3.62186 5.60637e-21)
(-3.24548 3.62332 9.32592e-19)
(-3.24654 3.62454 -9.09675e-19)
(-3.2474 3.62554 1.7871e-18)
(-3.24806 3.62631 0)
(-3.24851 3.62686 -1.70877e-18)
(-3.24876 3.62717 8.38893e-19)
(-3.2488 3.62725 1.921e-21)
(-3.24864 3.6271 1.60371e-18)
(-3.24828 3.62672 -7.83146e-19)
(-3.2477 3.62611 0)
(-3.24692 3.62526 -1.49638e-18)
(-3.24593 3.62418 0)
(-3.24472 3.62285 -1.42798e-18)
(-3.2433 3.62129 0)
(-3.24167 3.61949 6.82512e-19)
(-3.23983 3.61744 6.66063e-19)
(-3.23776 3.61515 -1.94175e-18)
(-3.23548 3.61261 -6.29924e-19)
(-3.23297 3.60982 -1.84607e-18)
(-3.23024 3.60679 -5.98406e-19)
(-3.22729 3.60349 1.16982e-18)
(-3.22411 3.59995 -5.67725e-19)
(-3.22069 3.59614 1.1131e-18)
(-3.21705 3.59207 -5.37861e-19)
(-3.21318 3.58774 -1.57747e-18)
(-1.65218 1.85775 0)
(-2.03682 2.28883 0)
(-2.20471 2.47595 1.26499e-17)
(-2.31655 2.6018 -6.819e-21)
(-2.4012 2.69633 -1.23025e-17)
(-2.46878 2.77197 1.00704e-17)
(-2.52502 2.83486 -9.38811e-18)
(-2.57315 2.88866 0)
(-2.61522 2.93567 -5.49562e-19)
(-2.65259 2.97741 -8.80192e-18)
(-2.6862 3.01495 7.84128e-18)
(-2.71675 3.04906 9.2962e-19)
(-2.74474 3.08031 4.42279e-19)
(-2.77058 3.10916 -7.59277e-18)
(-2.79456 3.13593 6.05694e-18)
(-2.81693 3.16092 3.8683e-19)
(-2.83789 3.18433 3.71523e-19)
(-2.8576 3.20635 6.43173e-18)
(-2.87619 3.22713 -6.02836e-21)
(-2.89378 3.24679 -1.06431e-17)
(-2.91047 3.26544 5.14724e-18)
(-2.92632 3.28318 0)
(-2.94142 3.30008 -4.82252e-18)
(-2.95582 3.3162 6.00469e-21)
(-2.96958 3.33161 4.54973e-18)
(-2.98274 3.34636 5.52488e-19)
(-2.99534 3.36049 4.29731e-18)
(-3.00742 3.37404 -9.42164e-18)
(-3.01901 3.38705 8.16096e-18)
(-3.03013 3.39954 -6.07838e-21)
(-3.04082 3.41156 -4.371e-18)
(-3.0511 3.42311 0)
(-3.06099 3.43423 0)
(-3.0705 3.44493 4.52424e-19)
(-3.07965 3.45523 4.42393e-19)
(-3.08846 3.46516 -8.65528e-19)
(-3.09694 3.47471 1.01107e-23)
(-3.10511 3.48392 4.1462e-19)
(-3.11296 3.49278 0)
(-3.12053 3.50132 -3.57657e-18)
(-3.12781 3.50954 2.34167e-18)
(-3.13481 3.51745 -3.05271e-18)
(-3.14154 3.52506 3.748e-18)
(-3.14802 3.53238 2.9342e-18)
(-3.15423 3.53941 -2.88401e-18)
(-3.1602 3.54616 0)
(-3.16593 3.55264 0)
(-3.17141 3.55886 0)
(-3.17667 3.56481 0)
(-3.18169 3.5705 -6.54521e-19)
(-3.18648 3.57594 -1.92344e-18)
(-3.19106 3.58113 1.89432e-18)
(-3.19541 3.58607 0)
(-3.19955 3.59077 -6.07018e-19)
(-3.20347 3.59523 -2.37933e-18)
(-3.20718 3.59945 2.92643e-18)
(-3.21069 3.60343 5.73641e-19)
(-3.21398 3.60718 -1.29344e-23)
(-3.21706 3.6107 5.52279e-19)
(-3.21995 3.61398 0)
(-3.22262 3.61704 1.0631e-18)
(-3.22509 3.61986 0)
(-3.22737 3.62245 0)
(-3.22943 3.62482 -3.00511e-18)
(-3.2313 3.62696 4.91688e-18)
(-3.23296 3.62887 -9.67733e-19)
(-3.23443 3.63056 9.44963e-19)
(-3.23569 3.63202 0)
(-3.23675 3.63325 9.0738e-19)
(-3.23761 3.63425 8.85136e-19)
(-3.23827 3.63502 -3.4825e-18)
(-3.23872 3.63557 1.70885e-18)
(-3.23897 3.63588 0)
(-3.23902 3.63596 0)
(-3.23886 3.63582 7.99358e-19)
(-3.2385 3.63544 0)
(-3.23793 3.63482 7.64805e-19)
(-3.23715 3.63397 -7.43937e-19)
(-3.23616 3.63288 1.46578e-18)
(-3.23496 3.63156 -7.12339e-19)
(-3.23355 3.62999 2.09536e-18)
(-3.23192 3.62819 0)
(-3.23008 3.62614 -6.63426e-19)
(-3.22802 3.62384 6.51351e-19)
(-3.22575 3.6213 0)
(-3.22325 3.6185 -6.19979e-19)
(-3.22053 3.61546 1.80597e-18)
(-3.21759 3.61216 0)
(-3.21442 3.6086 0)
(-3.21102 3.60479 -1.67072e-18)
(-3.20739 3.60071 2.71648e-18)
(-3.20352 3.59637 1.05694e-18)
(-1.64698 1.86303 0)
(-2.03098 2.2946 -9.09711e-19)
(-2.19803 2.48254 8.38446e-19)
(-2.30963 2.60862 7.74969e-19)
(-2.39397 2.70343 1.07496e-17)
(-2.4613 2.77927 -1.06376e-17)
(-2.51734 2.84232 8.6549e-23)
(-2.56528 2.89625 -9.24574e-18)
(-2.60719 2.94337 9.22464e-18)
(-2.6444 2.98521 -8.17222e-18)
(-2.67788 3.02284 1.54569e-17)
(-2.7083 3.05702 -4.64378e-19)
(-2.73618 3.08834 -6.226e-21)
(-2.76191 3.11725 -6.65316e-18)
(-2.78579 3.14407 0)
(-2.80807 3.1691 0)
(-2.82895 3.19255 5.848e-18)
(-2.84858 3.21461 -1.16098e-17)
(-2.8671 3.23542 5.42766e-18)
(-2.88463 3.25512 -5.23302e-18)
(-2.90125 3.2738 5.06417e-18)
(-2.91704 3.29156 0)
(-2.93209 3.30848 -4.74434e-18)
(-2.94644 3.32463 3.45727e-18)
(-2.96015 3.34006 4.47011e-18)
(-2.97326 3.35482 -4.89492e-18)
(-2.98583 3.36897 0)
(-2.99787 3.38254 5.15017e-19)
(-3.00942 3.39556 0)
(-3.02051 3.40807 0)
(-3.03117 3.4201 4.7766e-19)
(-3.04142 3.43167 -3.72825e-18)
(-3.05128 3.4428 3.64848e-18)
(-3.06076 3.45352 -3.11496e-18)
(-3.06989 3.46384 3.48799e-18)
(-3.07868 3.47377 8.52417e-19)
(-3.08714 3.48335 -2.91708e-18)
(-3.09528 3.49256 6.1271e-18)
(-3.10312 3.50144 -3.20388e-18)
(-3.11067 3.50999 3.92016e-19)
(-3.11793 3.51823 1.5368e-18)
(-3.12492 3.52615 -3.00992e-18)
(-3.13164 3.53377 2.21905e-18)
(-3.13809 3.5411 0)
(-3.1443 3.54815 1.42118e-18)
(-3.15025 3.55491 0)
(-3.15596 3.5614 2.0489e-18)
(-3.16144 3.56763 -6.77896e-19)
(-3.16668 3.57359 -2.63869e-18)
(-3.17169 3.5793 6.46678e-19)
(-3.17648 3.58475 0)
(-3.18104 3.58995 0)
(-3.18539 3.5949 0)
(-3.18952 3.59961 6.00474e-19)
(-3.19343 3.60408 -2.35439e-18)
(-3.19714 3.60831 4.62917e-18)
(-3.20063 3.6123 -5.11213e-18)
(-3.20392 3.61605 -5.50528e-19)
(-3.207 3.61958 1.09802e-18)
(-3.20987 3.62287 -2.14481e-18)
(-3.21254 3.62593 7.15291e-21)
(-3.21501 3.62876 2.07241e-18)
(-3.21728 3.63136 1.0149e-18)
(-3.21934 3.63373 9.95664e-19)
(-3.22121 3.63588 0)
(-3.22287 3.6378 2.86979e-18)
(-3.22433 3.63949 -7.38067e-21)
(-3.22559 3.64095 -1.84539e-18)
(-3.22665 3.64218 -9.0266e-19)
(-3.22751 3.64318 0)
(-3.22817 3.64396 0)
(-3.22862 3.64451 -8.4918e-19)
(-3.22888 3.64482 0)
(-3.22892 3.64491 -8.14418e-19)
(-3.22877 3.64476 -2.38808e-18)
(-3.22841 3.64438 7.87975e-19)
(-3.22784 3.64376 -7.55874e-19)
(-3.22706 3.64291 1.49764e-18)
(-3.22608 3.64182 -7.3042e-19)
(-3.22489 3.6405 1.42824e-18)
(-3.22348 3.63893 -1.39594e-18)
(-3.22186 3.63712 0)
(-3.22003 3.63506 0)
(-3.21798 3.63276 1.30097e-18)
(-3.21571 3.63021 0)
(-3.21322 3.62741 1.23936e-18)
(-3.21051 3.62436 -2.41809e-18)
(-3.20758 3.62106 0)
(-3.20442 3.61749 1.14947e-18)
(-3.20103 3.61367 0)
(-3.19741 3.60958 -1.09136e-18)
(-3.19356 3.60523 0)
(-1.64158 1.86823 1.57671e-17)
(-2.02479 2.30045 1.63073e-17)
(-2.19104 2.48914 -2.66653e-17)
(-2.3024 2.61547 6.7083e-21)
(-2.38642 2.71057 1.2785e-17)
(-2.45353 2.78661 -1.11749e-17)
(-2.50936 2.84982 -6.04621e-19)
(-2.55713 2.9039 9.13646e-18)
(-2.59888 2.95115 9.09613e-18)
(-2.63596 2.9931 -1.56208e-17)
(-2.66931 3.03082 4.82447e-19)
(-2.69961 3.06509 6.77334e-18)
(-2.72738 3.09649 0)
(-2.753 3.12546 4.09209e-19)
(-2.77679 3.15235 3.91189e-19)
(-2.79898 3.17743 0)
(-2.81978 3.20093 5.75411e-18)
(-2.83933 3.22303 -5.93308e-21)
(-2.85778 3.24388 -5.00563e-18)
(-2.87523 3.26362 3.21891e-19)
(-2.89179 3.28233 0)
(-2.90752 3.30013 -4.21269e-18)
(-2.92251 3.31708 4.08812e-18)
(-2.93681 3.33325 -1.27002e-23)
(-2.95047 3.3487 -4.3962e-18)
(-2.96354 3.36349 4.81414e-18)
(-2.97605 3.37766 0)
(-2.98805 3.39125 0)
(-2.99957 3.4043 -3.45295e-18)
(-3.01063 3.41683 5.90655e-21)
(-3.02125 3.42887 3.76242e-18)
(-3.03147 3.44046 0)
(-3.04129 3.45161 -3.58432e-18)
(-3.05075 3.46234 3.07167e-18)
(-3.05985 3.47267 -2.99847e-18)
(-3.06861 3.48263 2.94012e-18)
(-3.07705 3.49221 -4.10751e-19)
(-3.08517 3.50145 -2.81275e-18)
(-3.09299 3.51034 3.15571e-18)
(-3.10051 3.5189 0)
(-3.10775 3.52715 3.02541e-18)
(-3.11472 3.53509 -2.97269e-18)
(-3.12142 3.54272 0)
(-3.12786 3.55006 0)
(-3.13405 3.55712 -3.50077e-18)
(-3.13999 3.5639 2.06633e-18)
(-3.14569 3.5704 3.37159e-18)
(-3.15115 3.57664 -4.63779e-18)
(-3.15638 3.58262 2.60497e-18)
(-3.16138 3.58833 0)
(-3.16616 3.59379 0)
(-3.17071 3.599 3.07497e-18)
(-3.17504 3.60397 -2.42159e-18)
(-3.17916 3.60868 -5.93656e-19)
(-3.18307 3.61316 0)
(-3.18677 3.6174 -2.85884e-18)
(-3.19025 3.6214 6.91454e-21)
(-3.19353 3.62516 1.65934e-18)
(-3.19661 3.6287 3.24815e-18)
(-3.19948 3.63199 -2.66389e-18)
(-3.20214 3.63506 1.04468e-18)
(-3.20461 3.6379 0)
(-3.20687 3.64051 -1.93033e-23)
(-3.20893 3.64288 0)
(-3.21079 3.64503 9.69319e-19)
(-3.21245 3.64696 9.47379e-19)
(-3.21391 3.64865 -1.86957e-18)
(-3.21517 3.65011 9.15059e-19)
(-3.21623 3.65135 8.97354e-19)
(-3.21709 3.65236 8.79828e-19)
(-3.21774 3.65314 -1.72122e-18)
(-3.2182 3.65368 2.53964e-18)
(-3.21845 3.654 0)
(-3.2185 3.65409 8.11417e-19)
(-3.21835 3.65394 -7.94696e-19)
(-3.21799 3.65356 -1.5563e-18)
(-3.21743 3.65294 -7.61741e-19)
(-3.21666 3.65209 0)
(-3.21568 3.651 7.29399e-19)
(-3.21449 3.64967 0)
(-3.21309 3.6481 1.39526e-18)
(-3.21147 3.64628 0)
(-3.20965 3.64422 0)
(-3.20761 3.64192 -1.29837e-18)
(-3.20535 3.63936 3.90307e-21)
(-3.20287 3.63656 1.24176e-18)
(-3.20017 3.6335 1.99816e-23)
(-3.19724 3.63019 -1.18253e-18)
(-3.19409 3.62661 -1.15343e-18)
(-3.19072 3.62278 -2.24532e-18)
(-3.18711 3.61869 1.10008e-18)
(-3.18327 3.61433 0)
(-1.63603 1.87346 -1.574e-17)
(-2.0183 2.30644 1.35405e-17)
(-2.1838 2.49582 0)
(-2.29487 2.62243 1.21962e-17)
(-2.37859 2.71782 -1.26606e-17)
(-2.44546 2.79406 -5.30149e-23)
(-2.50109 2.85745 9.0567e-18)
(-2.5487 2.91167 -6.52276e-21)
(-2.59029 2.95905 -9.50734e-18)
(-2.62723 3.00111 0)
(-2.66045 3.03893 -4.6912e-19)
(-2.69064 3.07329 -7.10974e-18)
(-2.7183 3.10477 6.76401e-18)
(-2.74383 3.13381 0)
(-2.76752 3.16077 -3.84916e-19)
(-2.78963 3.18591 -3.68723e-19)
(-2.81034 3.20947 0)
(-2.82981 3.23162 -5.10306e-18)
(-2.84819 3.25252 1.0167e-17)
(-2.86557 3.2723 -1.04446e-17)
(-2.88206 3.29105 9.78865e-18)
(-2.89774 3.30888 -5.97867e-19)
(-2.91267 3.32587 -4.01924e-18)
(-2.92691 3.34207 5.56641e-19)
(-2.94052 3.35756 0)
(-2.95354 3.37237 -5.25576e-19)
(-2.96601 3.38657 0)
(-2.97796 3.40018 4.47982e-18)
(-2.98943 3.41325 -4.37207e-18)
(-3.00045 3.4258 3.78519e-18)
(-3.01104 3.43787 -7.3947e-18)
(-3.02122 3.44948 4.06535e-18)
(-3.03101 3.46064 0)
(-3.04044 3.47139 3.44732e-18)
(-3.04951 3.48175 -7.59416e-18)
(-3.05824 3.49172 3.30622e-18)
(-3.06665 3.50132 3.55941e-24)
(-3.07475 3.51057 0)
(-3.08254 3.51948 -3.48892e-18)
(-3.09004 3.52805 6.10344e-21)
(-3.09727 3.53631 2.24023e-18)
(-3.10421 3.54426 0)
(-3.1109 3.55191 -2.86658e-18)
(-3.11732 3.55927 3.52274e-18)
(-3.12349 3.56634 0)
(-3.12941 3.57313 1.17241e-23)
(-3.1351 3.57965 -2.6595e-18)
(-3.14054 3.5859 4.57512e-18)
(-3.14576 3.59188 -3.21223e-18)
(-3.15074 3.59761 0)
(-3.15551 3.60308 6.19021e-19)
(-3.16005 3.6083 -6.08013e-19)
(-3.16437 3.61327 0)
(-3.16848 3.618 -2.34313e-18)
(-3.17238 3.62249 2.3083e-18)
(-3.17607 3.62674 5.6603e-19)
(-3.17955 3.63074 0)
(-3.18282 3.63452 1.09222e-18)
(-3.18589 3.63806 -5.36392e-19)
(-3.18875 3.64136 9.76409e-24)
(-3.19141 3.64444 1.03118e-18)
(-3.19387 3.64728 -2.03565e-18)
(-3.19612 3.64989 -9.97661e-19)
(-3.19818 3.65228 -9.79458e-19)
(-3.20004 3.65443 -9.61503e-19)
(-3.2017 3.65636 0)
(-3.20315 3.65806 9.26139e-19)
(-3.20441 3.65953 -9.08761e-19)
(-3.20547 3.66077 -1.78307e-18)
(-3.20633 3.66178 -8.74495e-19)
(-3.20698 3.66256 -1.71148e-18)
(-3.20744 3.66311 2.52634e-18)
(-3.20769 3.66342 -1.64484e-18)
(-3.20775 3.66351 8.11639e-19)
(-3.20759 3.66336 2.37098e-18)
(-3.20724 3.66298 -7.79236e-19)
(-3.20668 3.66236 7.59456e-19)
(-3.20591 3.66151 -1.48334e-18)
(-3.20494 3.66042 1.45957e-18)
(-3.20375 3.65908 0)
(-3.20236 3.65751 -2.78732e-18)
(-3.20075 3.65569 -1.36303e-18)
(-3.19893 3.65363 1.33268e-18)
(-3.1969 3.65132 -2.60524e-18)
(-3.19465 3.64875 1.27284e-18)
(-3.19218 3.64594 -2.48276e-18)
(-3.18949 3.64288 2.43215e-18)
(-3.18658 3.63956 1.86302e-23)
(-3.18344 3.63597 1.15265e-18)
(-3.18007 3.63213 -3.91212e-21)
(-3.17648 3.62803 -1.10025e-18)
(-3.17266 3.62366 1.06864e-18)
(-1.63033 1.87875 -1.47938e-17)
(-2.01155 2.31259 -1.43766e-17)
(-2.17631 2.50262 6.26935e-21)
(-2.28708 2.62954 2.4192e-17)
(-2.37048 2.72522 -1.04457e-17)
(-2.43712 2.80166 1.09282e-17)
(-2.49255 2.86522 -8.95227e-18)
(-2.53998 2.91959 0)
(-2.58142 2.9671 5.20688e-19)
(-2.61822 3.00927 7.34089e-18)
(-2.65131 3.0472 -6.935e-18)
(-2.68139 3.08165 8.75444e-19)
(-2.70894 3.11321 4.1593e-19)
(-2.73437 3.14234 -5.94204e-18)
(-2.75797 3.16936 6.44019e-18)
(-2.77999 3.19457 6.16179e-18)
(-2.80061 3.21819 -5.5714e-18)
(-2.82001 3.24039 5.35195e-18)
(-2.83831 3.26134 -5.16151e-18)
(-2.85563 3.28116 -3.11122e-19)
(-2.87205 3.29997 -4.80781e-18)
(-2.88767 3.31784 4.65844e-18)
(-2.90254 3.33486 5.63921e-19)
(-2.91672 3.3511 -5.4709e-19)
(-2.93028 3.36662 0)
(-2.94324 3.38147 -4.12964e-18)
(-2.95567 3.39569 4.02418e-18)
(-2.96758 3.40933 -4.8957e-19)
(-2.979 3.42242 0)
(-2.98998 3.435 4.18651e-18)
(-3.00053 3.44709 -4.09224e-18)
(-3.01067 3.45872 -4.43521e-18)
(-3.02043 3.46991 3.47287e-18)
(-3.02982 3.48068 -3.39025e-18)
(-3.03886 3.49105 3.73762e-18)
(-3.04756 3.50104 0)
(-3.05594 3.51066 3.97749e-19)
(-3.06401 3.51993 3.89647e-19)
(-3.07178 3.52885 -2.28812e-18)
(-3.07926 3.53745 5.98943e-18)
(-3.08646 3.54572 -7.40226e-19)
(-3.09338 3.55369 -5.04113e-18)
(-3.10004 3.56135 2.82944e-18)
(-3.10645 3.56872 1.3838e-18)
(-3.1126 3.5758 -2.72583e-18)
(-3.1185 3.58261 6.68286e-19)
(-3.12417 3.58914 2.62169e-18)
(-3.1296 3.5954 -1.29207e-18)
(-3.1348 3.6014 3.16176e-18)
(-3.13977 3.60713 -1.8686e-18)
(-3.14452 3.61262 -1.01008e-23)
(-3.14905 3.61785 0)
(-3.15337 3.62283 -2.35532e-18)
(-3.15746 3.62757 2.90016e-18)
(-3.16135 3.63207 0)
(-3.16503 3.63632 0)
(-3.1685 3.64034 2.1951e-18)
(-3.17176 3.64412 -1.08687e-18)
(-3.17482 3.64767 -2.65638e-18)
(-3.17768 3.65098 -1.5604e-18)
(-3.18033 3.65406 2.05193e-18)
(-3.18278 3.65691 -1.00612e-18)
(-3.18504 3.65953 9.84738e-19)
(-3.18709 3.66192 -9.74129e-19)
(-3.18894 3.66408 -1.90273e-18)
(-3.1906 3.66601 1.87537e-18)
(-3.19205 3.66771 -1.83764e-18)
(-3.19331 3.66918 0)
(-3.19436 3.67043 3.53711e-18)
(-3.19522 3.67144 -1.74091e-18)
(-3.19588 3.67222 -1.70071e-18)
(-3.19633 3.67277 8.39632e-19)
(-3.19659 3.67309 0)
(-3.19664 3.67318 8.03824e-19)
(-3.19649 3.67303 0)
(-3.19614 3.67265 7.72238e-19)
(-3.19558 3.67203 7.52851e-19)
(-3.19482 3.67117 -1.48618e-18)
(-3.19385 3.67008 0)
(-3.19267 3.66874 7.10633e-19)
(-3.19129 3.66716 2.78221e-18)
(-3.18969 3.66534 1.36119e-18)
(-3.18787 3.66327 -1.33152e-18)
(-3.18585 3.66096 1.93297e-23)
(-3.18361 3.65839 0)
(-3.18115 3.65557 -1.24403e-18)
(-3.17847 3.6525 -3.91426e-21)
(-3.17556 3.64917 -3.91105e-21)
(-3.17244 3.64558 0)
(-3.16909 3.64173 -1.13113e-18)
(-3.16551 3.63762 2.20329e-18)
(-3.1617 3.63323 -3.94671e-21)
(-1.62446 1.8841 -1.47695e-17)
(-2.00454 2.3189 -1.43146e-17)
(-2.16858 2.50955 2.61366e-17)
(-2.279 2.63679 -1.19938e-17)
(-2.36209 2.73276 0)
(-2.42849 2.80941 0)
(-2.48372 2.87315 0)
(-2.53096 2.92768 8.77535e-18)
(-2.57225 2.97531 -8.21683e-18)
(-2.60891 3.0176 4.82386e-19)
(-2.64188 3.05563 7.27848e-18)
(-2.67183 3.09018 -4.36877e-19)
(-2.69928 3.12183 -1.35055e-17)
(-2.72461 3.15103 5.85098e-18)
(-2.74812 3.17813 -7.44772e-19)
(-2.77005 3.20341 6.05837e-18)
(-2.79059 3.22709 3.36406e-19)
(-2.80991 3.24935 -5.59498e-18)
(-2.82814 3.27036 0)
(-2.84539 3.29023 5.50023e-18)
(-2.86174 3.30908 -4.72979e-18)
(-2.87729 3.32699 5.71805e-19)
(-2.8921 3.34406 -5.54049e-19)
(-2.90623 3.36033 5.37505e-19)
(-2.91973 3.37589 0)
(-2.93265 3.39077 4.05745e-18)
(-2.94502 3.40503 -3.95397e-18)
(-2.95688 3.4187 4.81055e-19)
(-2.96826 3.43182 4.68925e-19)
(-2.9792 3.44443 -9.14885e-19)
(-2.9897 3.45654 4.01617e-18)
(-2.99981 3.4682 -6.54318e-18)
(-3.00953 3.47941 3.41377e-18)
(-3.01888 3.4902 2.91595e-18)
(-3.02789 3.5006 -6.52799e-18)
(-3.03656 3.5106 3.19817e-18)
(-3.04491 3.52024 3.91176e-19)
(-3.05295 3.52953 -3.83268e-19)
(-3.06069 3.53847 3.00233e-18)
(-3.06814 3.54708 -2.58127e-18)
(-3.07531 3.55538 -1.44206e-18)
(-3.08222 3.56336 2.12956e-18)
(-3.08885 3.57104 -6.95638e-19)
(-3.09524 3.57842 2.72829e-18)
(-3.10137 3.58552 -2.68468e-18)
(-3.10725 3.59233 3.28858e-18)
(-3.1129 3.59888 -6.20607e-21)
(-3.11832 3.60515 -6.41415e-19)
(-3.1235 3.61116 -2.49918e-18)
(-3.12846 3.61691 -6.13133e-19)
(-3.13319 3.6224 1.80427e-18)
(-3.13771 3.62765 -2.37158e-18)
(-3.14201 3.63264 -5.819e-19)
(-3.1461 3.63739 0)
(-3.14997 3.64189 -5.62116e-19)
(-3.15364 3.64616 -2.20667e-18)
(-3.1571 3.65019 2.71853e-18)
(-3.16035 3.65397 3.19904e-18)
(-3.1634 3.65753 -1.05253e-18)
(-3.16625 3.66085 0)
(-3.1689 3.66394 1.01329e-18)
(-3.17135 3.66679 2.98373e-18)
(-3.17359 3.66942 -1.96024e-18)
(-3.17564 3.67181 9.61247e-19)
(-3.17749 3.67398 -1.8851e-18)
(-3.17914 3.67592 7.11167e-21)
(-3.18059 3.67762 3.64756e-18)
(-3.18184 3.6791 0)
(-3.1829 3.68034 -1.33484e-23)
(-3.18375 3.68136 1.72085e-18)
(-3.18441 3.68214 -1.69626e-18)
(-3.18487 3.68269 0)
(-3.18512 3.68301 2.44072e-18)
(-3.18518 3.6831 -7.45526e-21)
(-3.18503 3.68295 -1.57143e-18)
(-3.18468 3.68257 7.64765e-19)
(-3.18413 3.68195 -7.57133e-19)
(-3.18337 3.68109 0)
(-3.18241 3.67999 0)
(-3.18124 3.67866 -1.00701e-23)
(-3.17985 3.67707 -1.96503e-23)
(-3.17826 3.67525 1.35839e-18)
(-3.17646 3.67317 -1.32941e-18)
(-3.17444 3.67085 3.90211e-21)
(-3.17221 3.66828 7.79806e-21)
(-3.16976 3.66545 3.73557e-18)