/*--------------------------------*- C++ -*----------------------------------*\
  =========                 |
  \\      /  F ield         | OpenFOAM: The Open Source CFD Toolbox
   \\    /   O peration     | Website:  https://openfoam.org
    \\  /    A nd           | Version:  10
     \\/     M anipulation  |
\*---------------------------------------------------------------------------*/
FoamFile
{
    format      ascii;
    class       volScalarField;
    location    "49000";
    object      k;
}
// * * * * * * * * * * * * * * * * * * * * * * * * * * * * * * * * * * * * * //

dimensions      [0 2 -2 0 0 0 0];

internalField   nonuniform List<scalar> 
17969
(
1.90017e-05
0.000443577
0.0011518
0.0020804
0.00307974
0.00422991
0.00562437
0.00735442
0.00944923
0.0117319
0.0138588
0.0155274
0.0166571
0.0172997
0.017579
0.0176329
0.0175903
0.0175507
0.0175544
0.0176714
0.0179402
0.018365
0.0189309
0.0196135
0.0203855
0.0212194
0.0220907
0.0229785
0.0238669
0.0247446
0.0256038
0.0264395
0.0272488
0.02803
0.0287825
0.0295061
0.0302008
0.0308671
0.0315053
0.0321156
0.0326983
0.0332538
0.0337823
0.0342837
0.0347584
0.0352063
0.0356275
0.0360222
0.0363905
0.0367325
0.0370485
0.0373387
0.0376035
0.0378433
0.0380587
0.0382503
0.0384187
0.0385649
0.0386896
0.038794
0.038879
0.038946
0.0389961
0.0390307
0.0390511
0.0390586
0.0390545
0.0390401
0.0390164
0.0389844
0.0389448
0.0388979
0.0388438
0.0387821
0.0387129
0.0386373
0.0385556
0.0384668
0.0383688
0.0382614
0.0381465
0.0380268
0.0379057
0.037787
0.0376753
0.0375755
0.0374932
0.0374342
0.0374052
0.0374135
0.0374668
0.0375741
0.0377474
0.0379976
0.038335
0.0387701
0.0393109
0.0399618
0.0407296
0.0416243
7.24196e-06
0.000187195
0.000557052
0.00111879
0.00172912
0.0024111
0.00323259
0.0042544
0.00554018
0.00717709
0.00916438
0.0113408
0.0134964
0.0153867
0.0168444
0.0178297
0.0183894
0.0186213
0.0186402
0.0185611
0.0184776
0.018427
0.0184855
0.018687
0.0190365
0.0195217
0.0201215
0.0208116
0.0215678
0.0223678
0.0231922
0.0240249
0.0248536
0.0256694
0.0264661
0.0272397
0.0279874
0.0287079
0.0294003
0.0300642
0.0306995
0.0313062
0.0318845
0.0324344
0.0329562
0.0334501
0.0339161
0.0343546
0.0347656
0.0351494
0.0355063
0.0358367
0.0361408
0.0364191
0.0366722
0.0369007
0.0371052
0.0372866
0.0374457
0.0375836
0.0377013
0.0377999
0.0378806
0.0379448
0.0379936
0.0380286
0.0380508
0.0380616
0.038062
0.038053
0.0380352
0.0380091
0.0379747
0.0379316
0.0378797
0.0378199
0.0377526
0.0376776
0.0375915
0.0374949
0.0373898
0.0372791
0.0371662
0.0370553
0.0369509
0.0368587
0.0367848
0.0367359
0.0367194
0.036743
0.0368143
0.0369408
0.0371314
0.0373989
0.0377566
0.0382156
0.0387846
0.0394692
0.040278
0.0412213
3.82e-06
0.000100551
0.000308797
0.000658571
0.00103885
0.00144331
0.00191761
0.00250585
0.00325067
0.00420617
0.00542632
0.00696713
0.00885982
0.0109592
0.0130961
0.0151266
0.0168398
0.0181294
0.0189723
0.0194204
0.0195699
0.0195306
0.0194103
0.0192893
0.019209
0.0192324
0.0193864
0.0196752
0.0200891
0.0206106
0.0212193
0.0218946
0.0226172
0.0233698
0.0241378
0.0249089
0.0256735
0.0264242
0.0271559
0.027865
0.0285489
0.029206
0.0298355
0.0304366
0.031009
0.0315527
0.0320676
0.0325538
0.0330114
0.0334407
0.033842
0.0342155
0.0345616
0.034881
0.035174
0.0354412
0.0356835
0.0359016
0.0360963
0.0362686
0.0364196
0.0365503
0.0366621
0.036756
0.0368335
0.0368958
0.0369442
0.0369799
0.0370041
0.0370177
0.0370215
0.037016
0.0370011
0.0369768
0.0369428
0.0368998
0.0368482
0.0367887
0.0367167
0.0366336
0.0365415
0.0364433
0.0363425
0.0362432
0.0361501
0.0360691
0.0360068
0.0359708
0.0359695
0.0360117
0.0361065
0.036262
0.0364852
0.0367842
0.0371727
0.0376666
0.0382751
0.0390051
0.0398673
0.0408723
2.78946e-06
7.27146e-05
0.000218698
0.000468092
0.000729836
0.000988299
0.00127041
0.00161216
0.00204393
0.00259498
0.00331222
0.00423857
0.00541523
0.00688429
0.00870254
0.0107396
0.0128379
0.0149055
0.0167743
0.0182899
0.0193816
0.0200566
0.0203815
0.0204529
0.020371
0.020228
0.0200877
0.0199861
0.0199752
0.0200787
0.0203018
0.0206386
0.0210762
0.0215983
0.0221878
0.022828
0.0235034
0.0242005
0.0249074
0.0256142
0.026313
0.0269974
0.0276629
0.0283058
0.0289238
0.0295152
0.0300788
0.0306139
0.0311201
0.0315974
0.0320457
0.0324652
0.0328562
0.0332191
0.0335544
0.0338627
0.0341447
0.0344012
0.034633
0.034841
0.0350264
0.0351901
0.0353335
0.0354577
0.035564
0.0356538
0.0357283
0.0357888
0.0358365
0.0358725
0.0358976
0.0359124
0.0359172
0.035912
0.0358967
0.0358716
0.0358375
0.0357954
0.0357406
0.0356745
0.0355993
0.0355178
0.0354334
0.0353503
0.0352734
0.0352086
0.0351628
0.0351443
0.0351621
0.0352265
0.035348
0.0355369
0.0358016
0.0361482
0.0365839
0.0371242
0.037784
0.038572
0.0395007
0.0405816
0.0418223
0.0432271
0.0447964
0.0465267
2.32329e-06
6.01045e-05
0.000177204
0.000377499
0.00058135
0.000770068
0.000960537
0.00117166
0.00142649
0.00174323
0.00214505
0.00267401
0.00337209
0.00427033
0.00540693
0.0068191
0.00855219
0.0105311
0.0125983
0.014651
0.0165996
0.0182781
0.01959
0.0205035
0.0210474
0.0212908
0.021319
0.0212163
0.0210585
0.0208971
0.0207649
0.0207082
0.0207504
0.0208994
0.0211534
0.0215034
0.0219366
0.0224386
0.0229947
0.0235908
0.024214
0.0248525
0.0254966
0.0261377
0.0267689
0.0273848
0.0279811
0.0285546
0.0291029
0.0296244
0.030118
0.0305831
0.0310195
0.0314272
0.0318063
0.0321573
0.0324807
0.0327772
0.0330476
0.0332927
0.0335136
0.0337114
0.0338872
0.0340423
0.0341779
0.0342954
0.0343961
0.0344815
0.0345527
0.034611
0.0346574
0.0346928
0.0347179
0.0347328
0.0347375
0.0347323
0.0347175
0.0346938
0.0346609
0.0346162
0.0345625
0.0345024
0.0344396
0.0343781
0.034323
0.0342803
0.0342572
0.0342623
0.0343054
0.0343976
0.0345508
0.0347771
0.0350873
0.0354892
0.0359871
0.0365896
0.0373131
0.0381722
0.0391815
0.0403532
0.0416955
0.0432125
0.0449043
0.0467664
2.02469e-06
5.22749e-05
0.000152168
0.000324542
0.000497811
0.000651201
0.000796569
0.000945719
0.00111033
0.00130514
0.00154302
0.00183856
0.00221821
0.00271688
0.00337586
0.00423269
0.00531322
0.00665302
0.00829152
0.0101945
0.0122252
0.01425
0.0162221
0.0180241
0.0195371
0.0206989
0.0214988
0.0219703
0.0221742
0.0221825
0.0220662
0.02189
0.0216966
0.0215223
0.0214108
0.0213855
0.0214572
0.0216273
0.0218899
0.0222349
0.0226502
0.0231224
0.0236384
0.0241855
0.0247523
0.0253287
0.0259061
0.0264772
0.0270361
0.0275782
0.0280998
0.0285981
0.0290711
0.0295176
0.0299367
0.0303281
0.0306917
0.0310278
0.0313368
0.0316194
0.0318764
0.0321088
0.0323177
0.0325042
0.0326696
0.0328153
0.0329427
0.0330532
0.0331484
0.0332295
0.033298
0.033355
0.0334016
0.0334385
0.0334656
0.033483
0.0334912
0.0334906
0.033482
0.0334622
0.033434
0.0334001
0.0333641
0.0333301
0.0333032
0.0332895
0.0332963
0.0333326
0.0334086
0.0335361
0.033728
0.0339979
0.0343583
0.0348196
0.0353873
0.0360647
0.0368646
0.0378092
0.0389149
0.0401944
0.0416562
0.043304
0.0451369
0.0471488
1.80945e-06
4.6807e-05
0.000135223
0.000290378
0.000447023
0.000582345
0.000705213
0.000824145
0.000946136
0.00107831
0.00122966
0.00141121
0.00163144
0.00190452
0.00225676
0.00271815
0.00332497
0.00412062
0.0051235
0.00636817
0.00789106
0.00970067
0.0116838
0.0136828
0.0156457
0.0175274
0.0192109
0.02061
0.021681
0.02242
0.0228563
0.0230413
0.0230365
0.0229051
0.0227051
0.0224708
0.0222486
0.0220792
0.021986
0.0219818
0.0220702
0.0222477
0.0225064
0.0228356
0.0232234
0.0236571
0.0241246
0.0246147
0.0251174
0.0256239
0.026127
0.0266207
0.0271002
0.0275616
0.028002
0.0284194
0.0288123
0.0291798
0.0295214
0.0298371
0.0301272
0.0303921
0.0306326
0.0308497
0.0310445
0.0312183
0.0313725
0.0315086
0.0316282
0.031733
0.0318245
0.0319045
0.0319742
0.032035
0.0320868
0.0321297
0.032164
0.0321899
0.0322078
0.0322175
0.0322195
0.032217
0.0322136
0.0322135
0.0322218
0.0322446
0.0322894
0.0323652
0.0324826
0.0326539
0.0328929
0.0332139
0.0336311
0.0341564
0.0347974
0.0355565
0.0364459
0.0374915
0.0387109
0.040117
0.0417177
0.0435158
0.0455088
0.0476886
0.050042
1.66201e-06
4.31385e-05
0.000123916
0.000268337
0.000416191
0.000542709
0.000654798
0.000759376
0.000861479
0.000965338
0.00107533
0.00119688
0.00133771
0.00150515
0.00170625
0.00195556
0.002276
0.00269462
0.00324436
0.00396355
0.00487349
0.00600705
0.00739682
0.00908707
0.0109824
0.0129622
0.0149341
0.0168551
0.0186631
0.0202634
0.0215895
0.0226056
0.0233086
0.0237231
0.0238937
0.0238752
0.0237258
0.0234979
0.0232213
0.0229524
0.0227273
0.0225701
0.0224942
0.0225041
0.0225983
0.0227706
0.0230119
0.0233113
0.0236574
0.0240388
0.0244448
0.0248657
0.0252932
0.0257201
0.0261404
0.0265493
0.0269431
0.0273188
0.0276743
0.028008
0.028319
0.0286069
0.0288717
0.0291136
0.0293334
0.029532
0.0297106
0.0298706
0.0300135
0.0301412
0.0302555
0.0303582
0.0304514
0.0305367
0.0306144
0.0306843
0.0307472
0.0308029
0.0308514
0.0308942
0.0309307
0.0309645
0.0309995
0.0310399
0.0310907
0.031158
0.0312491
0.0313729
0.0315402
0.0317638
0.0320579
0.0324381
0.0329192
0.0335142
0.0342317
0.0350785
0.0360711
0.0372342
0.0385853
0.0401368
0.0418956
0.0438629
0.0460339
0.0483978
0.0509389
0.0536369
0.0564682
1.58094e-06
4.11452e-05
0.00011754
0.00025594
0.000399816
0.000522681
0.00063012
0.000728251
0.000821283
0.000912325
0.00100406
0.00109926
0.00120123
0.00131444
0.00144546
0.00159977
0.00178303
0.00200867
0.00229679
0.00267197
0.00316509
0.00380437
0.00461962
0.00564459
0.00691083
0.0084584
0.0102547
0.012196
0.0141642
0.0161086
0.0179867
0.0197341
0.0212703
0.0225406
0.0235132
0.0241853
0.0245786
0.0247339
0.0247011
0.0245341
0.0242713
0.0239622
0.0236545
0.0233811
0.0231653
0.0230204
0.0229523
0.0229612
0.0230428
0.0231902
0.023394
0.0236444
0.023931
0.0242442
0.024575
0.0249153
0.0252583
0.0255982
0.0259302
0.0262506
0.0265564
0.0268455
0.0271163
0.0273681
0.0276005
0.0278137
0.0280082
0.0281851
0.0283456
0.0284914
0.0286244
0.0287467
0.0288604
0.0289679
0.0290696
0.0291656
0.0292572
0.0293451
0.0294286
0.029508
0.0295843
0.0296598
0.0297391
0.0298265
0.0299268
0.0300458
0.0301907
0.0303702
0.0305951
0.030878
0.031234
0.0316795
0.0322314
0.0329038
0.0337055
0.0346494
0.0357593
0.0370554
0.0385546
0.0402683
0.042202
0.0443545
0.0467183
0.0492797
0.0520195
0.0549141
0.0579375
0.0610616
1.56221e-06
4.07107e-05
0.000115629
0.000251815
0.00039505
0.000517376
0.000623518
0.00071922
0.000808369
0.00089365
0.000977133
0.00106064
0.001146
0.00123533
0.00133132
0.00143772
0.00156008
0.00170309
0.00187114
0.00207553
0.00233402
0.00266868
0.00310222
0.00366367
0.00438537
0.00530067
0.00644104
0.0078404
0.0095249
0.0114022
0.0133605
0.0153308
0.0172579
0.019097
0.0207906
0.022268
0.0234844
0.0244128
0.025052
0.0254235
0.0255645
0.0255216
0.0253377
0.0250525
0.0247197
0.0243784
0.0240597
0.0237855
0.0235699
0.0234205
0.0233397
0.0233253
0.0233724
0.0234738
0.0236211
0.0238057
0.0240188
0.0242523
0.0244987
0.0247515
0.0250052
0.0252551
0.0254975
0.0257297
0.0259497
0.0261561
0.0263483
0.0265264
0.0266909
0.0268432
0.0269849
0.0271178
0.0272445
0.0273673
0.0274869
0.027604
0.0277205
0.0278381
0.0279572
0.0280777
0.0282023
0.028327
0.0284561
0.0285956
0.0287509
0.0289276
0.0291324
0.0293734
0.0296613
0.0300084
0.0304289
0.0309399
0.0315626
0.0323179
0.0332223
0.0342854
0.0355239
0.0369648
0.0386248
0.0405139
0.0426358
0.0449864
0.0475548
0.0503235
0.0532694
0.0563658
0.0595835
0.0628922
0.0662621
0.0696647
1.60192e-06
4.17454e-05
0.000117923
0.000255125
0.000400227
0.000524064
0.000630897
0.000726348
0.000814224
0.000897086
0.000976786
0.00105481
0.0011325
0.00121115
0.0012922
0.00137737
0.00146891
0.00157
0.00168534
0.00181953
0.00197571
0.00216214
0.00239369
0.00268826
0.00306822
0.0035607
0.00419694
0.0050107
0.00603554
0.00730226
0.00885159
0.0106406
0.0125701
0.014539
0.0165065
0.0184113
0.020203
0.0218362
0.0232506
0.0244081
0.0252884
0.0258939
0.0262462
0.0263787
0.0263278
0.026127
0.025828
0.0254739
0.0251015
0.0247395
0.0244091
0.024125
0.023896
0.0237261
0.0236154
0.0235609
0.0235576
0.0235988
0.0236774
0.0237859
0.0239172
0.0240647
0.0242222
0.0243848
0.0245483
0.0247094
0.0248655
0.0250155
0.0251588
0.0252953
0.0254259
0.0255521
0.0256759
0.0258
0.0259251
0.026052
0.0261833
0.0263215
0.0264681
0.0266241
0.026791
0.0269725
0.0271636
0.0273664
0.0275849
0.0278255
0.0280946
0.0283988
0.0287469
0.0291551
0.0296392
0.0302187
0.0309171
0.0317603
0.0327725
0.0339701
0.0353582
0.0369541
0.0387857
0.0408618
0.0431834
0.0457428
0.0485248
0.0515075
0.0546637
0.0579631
0.0613735
0.0648625
0.0683988
0.071953
0.0754984
0.0790113
0.0824707
0.0858591
1.69693e-06
4.41882e-05
0.000124314
0.000265261
0.000414125
0.000540857
0.000649594
0.000746029
0.000834027
0.000916169
0.000994243
0.00106962
0.00114349
0.00121686
0.00129074
0.00136618
0.00144434
0.00152669
0.00161512
0.00171225
0.0018219
0.00194875
0.00209514
0.00226649
0.00247558
0.00273786
0.00307296
0.00350544
0.00406466
0.00478371
0.00569722
0.00683677
0.00823626
0.00991335
0.0117831
0.0137335
0.0157045
0.0176546
0.0195265
0.021267
0.0228302
0.0241741
0.0252683
0.0260992
0.026671
0.0270005
0.0271075
0.0270339
0.0268243
0.0265199
0.0261572
0.0257673
0.0253758
0.0250026
0.0246624
0.024365
0.0241158
0.0239167
0.0237665
0.0236622
0.0235992
0.0235716
0.023574
0.0236005
0.0236456
0.0237045
0.0237729
0.023848
0.0239272
0.0240096
0.0240944
0.0241826
0.0242758
0.024376
0.024484
0.0246007
0.0247287
0.0248706
0.0250284
0.0252036
0.0253976
0.0256128
0.0258546
0.0261186
0.0264035
0.0267137
0.0270547
0.0274322
0.0278537
0.0283316
0.0288855
0.0295371
0.0303127
0.0312423
0.0323571
0.0336831
0.0352327
0.0370078
0.0390223
0.0412968
0.0438282
0.0466048
0.0496062
0.0528058
0.0561721
0.0596711
0.0632678
0.0669281
0.0706196
0.0743124
0.0779799
0.0815987
0.0851488
0.0886132
1.84547e-06
4.79968e-05
0.000134662
0.000281667
0.000435649
0.000566234
0.000677565
0.000775627
0.000864422
0.000946608
0.00102405
0.00109813
0.00116997
0.00124048
0.0013105
0.00138083
0.00145226
0.00152567
0.00160207
0.00168271
0.00176917
0.00186366
0.0019693
0.00209066
0.00223007
0.00239063
0.00258258
0.00281924
0.0031175
0.00349892
0.00399013
0.00462234
0.00542981
0.00644637
0.00770231
0.0092382
0.0110057
0.012912
0.0148636
0.0168168
0.0187254
0.0205412
0.0222167
0.0237038
0.0249638
0.0259768
0.026731
0.0272391
0.0275243
0.0276164
0.0275488
0.0273556
0.0270693
0.0267202
0.026335
0.0259362
0.0255421
0.0251668
0.0248202
0.0245086
0.0242351
0.0240004
0.0238034
0.0236419
0.0235118
0.0234094
0.0233316
0.0232744
0.0232352
0.0232116
0.0232023
0.0232074
0.0232275
0.023264
0.0233192
0.0233942
0.0234906
0.0236103
0.0237551
0.0239265
0.0241258
0.0243547
0.0246161
0.0249145
0.0252511
0.0256227
0.0260319
0.0264836
0.0269846
0.0275449
0.0281791
0.028908
0.0297622
0.0307765
0.0319884
0.033434
0.0351362
0.0371009
0.0393226
0.0418039
0.0445523
0.0475504
0.0507724
0.0541865
0.0577571
0.0614466
0.065218
0.0690357
0.0728666
0.076681
0.0804528
0.0841593
0.0877815
0.0913035
2.05134e-06
5.32354e-05
0.000149026
0.000303918
0.00046347
0.000598116
0.000712491
0.000812625
0.000902684
0.000985455
0.00106289
0.00113642
0.00120716
0.00127602
0.00134379
0.00141115
0.00147878
0.00154733
0.0016175
0.00169003
0.00176581
0.00184592
0.00193172
0.00202506
0.00212856
0.00224604
0.00238073
0.00253445
0.002714
0.00293114
0.00320014
0.00353954
0.00397271
0.00452804
0.00523795
0.00613676
0.00725473
0.00862528
0.010259
0.0120765
0.0139721
0.015894
0.0177968
0.0196316
0.0213501
0.0229113
0.0242764
0.0254207
0.0263356
0.0270238
0.027498
0.0277777
0.0278864
0.0278503
0.0276964
0.0274508
0.0271384
0.0267814
0.026399
0.0260072
0.0256188
0.0252433
0.0248876
0.0245562
0.0242509
0.0239719
0.0237201
0.023495
0.0232958
0.023121
0.0229706
0.0228444
0.022743
0.0226691
0.0226269
0.0226184
0.0226445
0.0227061
0.0228044
0.0229404
0.0231154
0.0233306
0.0235877
0.0238888
0.0242369
0.0246368
0.0250903
0.0255985
0.0261641
0.0267966
0.0275099
0.0283238
0.0292646
0.0303662
0.0316731
0.0332311
0.0350736
0.0372166
0.0396554
0.0423647
0.045332
0.0485504
0.0519881
0.0556083
0.0593711
0.0632364
0.0671653
0.0711214
0.0750718
0.0789873
0.0828425
0.086616
0.09029
0.0938499
2.31406e-06
5.99011e-05
0.000167472
0.000330535
0.00049665
0.000635927
0.000753499
0.000855791
0.000947229
0.00103077
0.00110845
0.00118179
0.00125193
0.00131979
0.00138614
0.00145165
0.00151693
0.00158255
0.00164908
0.00171708
0.00178716
0.00185999
0.00193634
0.00201714
0.00210359
0.00219723
0.00230024
0.00241569
0.00254765
0.00269757
0.0028689
0.00307181
0.00331839
0.00362426
0.00400936
0.00449841
0.00512046
0.00590754
0.00689051
0.00809608
0.00956345
0.0112439
0.0130514
0.0149037
0.0167569
0.018563
0.0202775
0.0218604
0.0232818
0.0245191
0.0255595
0.0264005
0.0270458
0.0275061
0.0277966
0.0279358
0.0279437
0.0278413
0.0276491
0.0273868
0.0270723
0.0267212
0.0263472
0.0259613
0.0255724
0.0251871
0.0248112
0.024449
0.0241039
0.0237784
0.0234751
0.0231969
0.0229468
0.0227295
0.0225522
0.0224213
0.0223375
0.0223016
0.0223145
0.0223773
0.0224913
0.0226575
0.0228771
0.0231517
0.023483
0.0238737
0.0243267
0.0248466
0.025441
0.0261173
0.0268881
0.0277722
0.0287956
0.0299916
0.0313993
0.0330666
0.0350419
0.0373493
0.0399899
0.0429359
0.0461383
0.0495692
0.0532109
0.0570216
0.0609581
0.0649782
0.0690421
0.0731134
0.0771597
0.0811528
0.0850687
0.0888872
0.092592
0.09617
0.0996109
2.63327e-06
6.7915e-05
0.000188986
0.000361761
0.000534913
0.000678811
0.000799471
0.00090383
0.00099661
0.00108094
0.00115899
0.00123231
0.00130211
0.00136932
0.00143472
0.00149898
0.00156269
0.00162639
0.00169059
0.00175579
0.00182248
0.00189117
0.00196239
0.00203673
0.00211487
0.00219763
0.00228602
0.00238136
0.00248548
0.00260091
0.00273148
0.00287952
0.00304652
0.00323977
0.00346991
0.00374993
0.00409654
0.00453068
0.00507755
0.00576591
0.00662634
0.00768408
0.00896786
0.0104811
0.0121555
0.0138958
0.0156558
0.0173908
0.0190587
0.0206258
0.0220634
0.0233519
0.024477
0.0254305
0.0262119
0.0268251
0.0272782
0.0275828
0.0277529
0.0278037
0.0277511
0.0276107
0.0273975
0.0271253
0.0268067
0.026453
0.0260744
0.0256794
0.0252754
0.0248694
0.0244674
0.0240757
0.0237004
0.0233488
0.0230348
0.0227704
0.0225588
0.0224021
0.0223024
0.022262
0.0222827
0.0223663
0.0225144
0.0227286
0.0230104
0.023362
0.0237862
0.0242873
0.0248721
0.0255509
0.0263394
0.0272599
0.0283422
0.0296207
0.0311333
0.03292
0.0350277
0.0374923
0.0403163
0.0434771
0.0469182
0.0505695
0.0543945
0.0583719
0.0624562
0.066604
0.0707755
0.0749348
0.0790506
0.0830962
0.0870488
0.0908901
0.0946049
0.0981817
0.101611
3.01583e-06
7.74608e-05
0.000213345
0.000397145
0.000577502
0.000725835
0.000849369
0.000955633
0.00104966
0.00113475
0.00121317
0.00128656
0.00135615
0.00142291
0.00148762
0.00155098
0.00161356
0.0016759
0.00173849
0.0018018
0.00186629
0.00193238
0.00200052
0.00207116
0.00214477
0.00222187
0.00230304
0.00238897
0.00248055
0.00257891
0.00268557
0.00280265
0.00293321
0.00308092
0.00324676
0.00343432
0.00365324
0.00391434
0.00423155
0.00462226
0.00510765
0.00571203
0.00646173
0.00738064
0.00848758
0.00981363
0.0113123
0.0129123
0.0145455
0.0161756
0.0177644
0.0192795
0.0206964
0.0219942
0.0231581
0.024179
0.0250516
0.0257753
0.0263537
0.0267928
0.0271011
0.0272888
0.0273672
0.027348
0.0272426
0.0270629
0.02682
0.0265242
0.026185
0.0258115
0.0254125
0.0249967
0.0245729
0.0241508
0.0237492
0.0233862
0.0230693
0.0228039
0.022595
0.022447
0.0223641
0.0223496
0.0224066
0.0225379
0.0227458
0.0230331
0.023403
0.0238606
0.0244135
0.0250739
0.0258601
0.0267974
0.0279188
0.0292628
0.0308692
0.0327751
0.0350206
0.0376402
0.0406373
0.043986
0.0476287
0.0514872
0.0554886
0.0596004
0.0638001
0.0680435
0.0722913
0.0765089
0.0806664
0.0847385
0.0887043
0.0925468
0.0962525
0.0998108
0.103214
3.46241e-06
8.83972e-05
0.00024075
0.000436245
0.000623666
0.000776134
0.000902293
0.00101029
0.00110544
0.00119123
0.00127002
0.00134351
0.00141296
0.00147937
0.00154355
0.00160619
0.00166788
0.00172917
0.00179055
0.00185248
0.0019154
0.00197972
0.00204585
0.00211417
0.00218509
0.00225897
0.00233624
0.00241732
0.00250272
0.00259303
0.00268898
0.00279156
0.00290206
0.00302229
0.00315477
0.00330336
0.0034699
0.00365564
0.0038679
0.00411622
0.00441197
0.00476938
0.00520552
0.00574018
0.00639496
0.00719211
0.0081467
0.00927612
0.0105794
0.0120056
0.0134858
0.0149811
0.0164599
0.0178909
0.0192491
0.0205151
0.0216741
0.0227145
0.0236296
0.0244159
0.0250729
0.0256029
0.0260105
0.0263017
0.0264837
0.0265649
0.0265542
0.0264606
0.0262928
0.0260599
0.0257707
0.0254343
0.0250605
0.0246598
0.0242526
0.0238609
0.0234969
0.0231701
0.0228891
0.0226617
0.0224948
0.0223945
0.0223663
0.0224147
0.0225442
0.0227592
0.0230646
0.0234669
0.023976
0.0246066
0.0253804
0.0263268
0.0274826
0.0288896
0.0305888
0.0326152
0.0350005
0.0377696
0.0409246
0.0444381
0.0482413
0.0522545
0.0564072
0.060639
0.0649214
0.0692266
0.0735184
0.0777637
0.0819347
0.0860078
0.0899641
0.0937879
0.0974672
0.100993
0.104357
0.107557
3.97934e-06
0.000100798
0.000270863
0.000478456
0.000672638
0.000828921
0.000957472
0.00106704
0.00116323
0.00124966
0.0013288
0.00140239
0.00147173
0.00153784
0.00160156
0.00166358
0.00172452
0.00178492
0.00184529
0.0019061
0.00196778
0.00203076
0.00209544
0.00216219
0.00223137
0.00230332
0.00237835
0.00245681
0.002539
0.0026253
0.00271611
0.00281194
0.00291342
0.00302141
0.00313703
0.00326187
0.00339807
0.00354877
0.00371745
0.00390477
0.00411432
0.00435494
0.00463584
0.0049685
0.0053664
0.00584502
0.00642087
0.00711076
0.00792822
0.00888116
0.00998601
0.0112168
0.0125299
0.0138686
0.0152089
0.0165248
0.0177912
0.0189883
0.0201007
0.0211169
0.0220287
0.0228303
0.0235192
0.024095
0.0245589
0.0249141
0.0251651
0.0253175
0.025377
0.0253502
0.0252443
0.0250667
0.0248259
0.0245316
0.0242019
0.0238593
0.0235196
0.0231959
0.0229001
0.0226432
0.0224349
0.0222844
0.0221996
0.0221877
0.0222555
0.0224099
0.0226585
0.0230102
0.0234781
0.024081
0.0248448
0.0258038
0.0269995
0.0284767
0.0302771
0.0324332
0.0349631
0.0378747
0.041159
0.0447814
0.0486936
0.0528223
0.0570871
0.0614147
0.0657575
0.0700932
0.0743968
0.0786391
0.0827953
0.0868442
0.0907686
0.0945547
0.098192
0.101672
0.104989
0.108139
4.57479e-06
0.000114827
0.000303054
0.000522983
0.000723609
0.000883453
0.00101423
0.00112526
0.00122241
0.00130946
0.00138893
0.00146261
0.00153185
0.00159769
0.00166096
0.0017224
0.00178261
0.00184218
0.00190162
0.00196141
0.00202202
0.00208388
0.00214739
0.00221295
0.00228092
0.0023516
0.00242531
0.00250231
0.00258287
0.00266722
0.00275561
0.00284834
0.00294573
0.00304822
0.00315636
0.00327091
0.00339289
0.00352369
0.00366519
0.00381997
0.00399201
0.00418283
0.00439332
0.00463038
0.0049019
0.00521676
0.00558537
0.00601921
0.00653047
0.00713128
0.00783329
0.00864179
0.00955937
0.0105957
0.0117188
0.0128936
0.014078
0.0152532
0.0163992
0.017496
0.0185283
0.0194841
0.0203539
0.0211313
0.0218121
0.0223938
0.0228758
0.0232591
0.0235458
0.0237388
0.023842
0.0238604
0.0237991
0.0236655
0.0234729
0.0232408
0.0229868
0.0227261
0.0224728
0.0222401
0.0220402
0.0218843
0.0217831
0.0217459
0.0217814
0.0218999
0.0221123
0.0224307
0.022872
0.0234598
0.0242256
0.0252089
0.026456
0.0280138
0.0299239
0.0322147
0.0348917
0.0379391
0.0413366
0.0450538
0.0490362
0.0532167
0.0575245
0.0618908
0.0662578
0.0705949
0.0748834
0.0790975
0.0832137
0.087214
0.0910837
0.0948113
0.0983878
0.101807
0.105062
0.108155
5.25627e-06
0.000130618
0.000337189
0.000569238
0.000775956
0.000939152
0.00107203
0.00118444
0.00128252
0.00137014
0.00144993
0.00152372
0.00159284
0.00165837
0.00172117
0.00178199
0.00184146
0.00190017
0.00195867
0.00201746
0.00207702
0.00213781
0.00220029
0.00226485
0.00233186
0.00240166
0.00247455
0.00255077
0.00263056
0.0027141
0.00280156
0.00289312
0.00298895
0.00308927
0.00319436
0.0033046
0.0034205
0.00354275
0.00367229
0.00381037
0.0039587
0.00411948
0.00429583
0.0044912
0.00470584
0.00494261
0.00520896
0.0055115
0.00585815
0.00625733
0.00671772
0.00724753
0.0078542
0.00854394
0.00931619
0.0101693
0.0111058
0.0120993
0.0131243
0.0141478
0.015154
0.0161285
0.0170566
0.0179253
0.0187252
0.019449
0.0200911
0.0206481
0.0211182
0.0215005
0.021795
0.0220033
0.0221275
0.0221716
0.0221424
0.022054
0.0219236
0.0217669
0.0215988
0.0214335
0.0212843
0.0211637
0.0210841
0.0210574
0.0210938
0.0212053
0.0214068
0.0217146
0.0221498
0.0227412
0.023526
0.0245492
0.0258607
0.0275088
0.029532
0.0319524
0.0347627
0.0379372
0.0414454
0.0452404
0.0492643
0.0534542
0.0577483
0.0620907
0.0664348
0.0707441
0.0749899
0.0791479
0.0831984
0.0871248
0.0909141
0.0945559
0.0980431
0.101377
0.104562
0.107594
6.01673e-06
0.000147936
0.000373444
0.000616998
0.000829241
0.000995576
0.00113047
0.00124425
0.00134324
0.00143143
0.00151149
0.0015853
0.00165425
0.00171941
0.00178167
0.00184178
0.00190041
0.00195818
0.00201569
0.00207339
0.00213184
0.00219154
0.00225299
0.00231661
0.0023828
0.00245191
0.00252427
0.00260011
0.00267966
0.00276306
0.00285046
0.00294195
0.00303763
0.0031376
0.00324198
0.00335096
0.00346478
0.00358378
0.00370846
0.00383946
0.00397766
0.00412421
0.00428062
0.00444881
0.00463123
0.00483168
0.00505171
0.00529119
0.00555544
0.00585014
0.0061807
0.00655333
0.00697389
0.00744788
0.00797962
0.00857226
0.00922749
0.00994134
0.0107082
0.0115285
0.0123839
0.0132553
0.0141223
0.0149649
0.0157739
0.0165392
0.0172508
0.0179011
0.0184843
0.018996
0.0194325
0.0197919
0.0200737
0.0202781
0.0204054
0.0204638
0.0204681
0.0204329
0.0203721
0.0202996
0.0202287
0.0201723
0.0201434
0.0201547
0.0202192
0.0203507
0.0205658
0.0208853
0.0213355
0.0219503
0.0227724
0.0238515
0.02524
0.0269853
0.0291218
0.0316586
0.034578
0.0378497
0.0414332
0.0452754
0.0493171
0.0534986
0.0577633
0.0620607
0.0663482
0.0705907
0.0747599
0.0788331
0.0827919
0.0866221
0.0903125
0.0938543
0.0972435
0.100484
0.103581
0.106534
6.85691e-06
0.000166655
0.000410679
0.000665481
0.00088293
0.00105223
0.00118906
0.00130417
0.00140405
0.00149281
0.00157315
0.00164699
0.00171574
0.00178049
0.00184214
0.00190145
0.00195911
0.00201577
0.00207202
0.00212845
0.00218563
0.00224413
0.00230451
0.00236721
0.0024326
0.00250112
0.0025731
0.0026488
0.00272842
0.00281211
0.00289998
0.00299207
0.00308844
0.00318911
0.00329411
0.00340351
0.00351739
0.00363592
0.00375934
0.00388798
0.00402232
0.00416297
0.00431077
0.00446677
0.0046323
0.00480909
0.0049991
0.00520487
0.00542998
0.00567447
0.00593868
0.0062283
0.00654704
0.00689882
0.00728774
0.00771697
0.00818902
0.008705
0.00926475
0.00986754
0.0105086
0.0111811
0.0118796
0.0125987
0.0133223
0.0140371
0.0147268
0.0153824
0.0159974
0.0165639
0.0170757
0.0175281
0.0179173
0.0182406
0.0184928
0.0186763
0.0188025
0.0188836
0.0189319
0.0189594
0.018978
0.0190001
0.0190384
0.019106
0.019217
0.0193871
0.0196355
0.0199862
0.02047
0.0211261
0.022002
0.0231509
0.0246258
0.0264714
0.0287152
0.0313523
0.0343568
0.0376964
0.0413232
0.045181
0.049211
0.0533562
0.0575641
0.0617886
0.0659907
0.0701382
0.0742052
0.0781711
0.0820196
0.0857384
0.0893184
0.092753
0.0960375
0.0991714
0.102163
0.105021
7.76727e-06
0.000186607
0.000448403
0.000714124
0.000936487
0.0011086
0.00124731
0.0013637
0.00146446
0.00155376
0.00163434
0.00170816
0.00177663
0.00184087
0.00190179
0.00196017
0.00201674
0.00207216
0.00212709
0.00218215
0.00223796
0.00229513
0.00235422
0.00241578
0.00248028
0.00254819
0.00261993
0.00269564
0.00277552
0.00285974
0.00294842
0.00304154
0.0031391
0.0032411
0.0033475
0.00345828
0.00357345
0.00369304
0.00381716
0.00394595
0.00407966
0.00421864
0.00436333
0.00451435
0.00467245
0.00483859
0.00501391
0.00519984
0.00539811
0.00561056
0.00583949
0.00608751
0.00635381
0.00663911
0.00694792
0.0072821
0.00764385
0.00803525
0.00845719
0.00891013
0.00939337
0.00990486
0.0104412
0.0109986
0.011571
0.0121523
0.012741
0.0133288
0.0139048
0.0144539
0.0149715
0.015451
0.0158873
0.016276
0.0166081
0.0168803
0.0170997
0.0172758
0.0174186
0.0175378
0.0176433
0.0177455
0.0178559
0.0179876
0.018155
0.0183753
0.0186698
0.0190657
0.0195978
0.0203095
0.0212522
0.022481
0.0240476
0.0259925
0.0283292
0.0310436
0.0341087
0.0374857
0.0411229
0.0449631
0.0489494
0.0530279
0.0571502
0.0612744
0.0653653
0.069394
0.0733376
0.0771778
0.0809006
0.0844958
0.0879558
0.0912755
0.0944519
0.0974822
0.100366
0.103114
8.73743e-06
0.000207495
0.000486092
0.000762355
0.000989382
0.00116419
0.0013047
0.00142236
0.00152396
0.00161374
0.00169451
0.00176821
0.00183629
0.00189987
0.00195989
0.00201717
0.00207246
0.00212647
0.00217989
0.00223343
0.00228775
0.00234352
0.00240134
0.00246182
0.00252547
0.00259276
0.00266406
0.00273968
0.00281984
0.00290474
0.0029945
0.00308887
0.00318792
0.00329164
0.0033999
0.00351262
0.00362977
0.00375129
0.00387719
0.00400752
0.00414238
0.00428194
0.00442644
0.00457623
0.00473174
0.00489352
0.00506226
0.00523876
0.00542399
0.00561907
0.0058253
0.00604415
0.00627696
0.00652532
0.00679096
0.0070725
0.00736998
0.0076865
0.00802223
0.00837819
0.00875509
0.00915277
0.00956961
0.0100023
0.0104479
0.010904
0.0113689
0.0118388
0.0123105
0.012786
0.0132554
0.0137056
0.0141326
0.0145324
0.014895
0.0152136
0.0154912
0.0157336
0.0159474
0.01614
0.0163197
0.0164941
0.016673
0.0168684
0.0170949
0.0173705
0.0177184
0.0181685
0.0187589
0.0195364
0.0205544
0.0218678
0.0235253
0.0255603
0.0279725
0.0307406
0.0338382
0.0372209
0.0408354
0.0446257
0.0485374
0.0525203
0.0565302
0.0605295
0.0644867
0.0683765
0.0721788
0.0758779
0.079462
0.0829226
0.0862536
0.0894511
0.0925129
0.0954383
0.0982241
0.100872
9.75257e-06
0.000228975
0.00052318
0.000809548
0.00104103
0.00121844
0.00136072
0.00147959
0.00158199
0.00167221
0.00175306
0.00182653
0.00189407
0.00195682
0.00201575
0.00207171
0.00212549
0.00217787
0.00222959
0.00228142
0.00233409
0.00238832
0.00244481
0.00250418
0.00256701
0.00263376
0.00270485
0.00278057
0.00286114
0.00294669
0.00303729
0.00313291
0.00323355
0.00333925
0.00344965
0.0035646
0.0036841
0.00380805
0.00393634
0.00406896
0.00420594
0.00434732
0.00449322
0.00464382
0.00479936
0.00496015
0.00512657
0.00529909
0.00547826
0.0056647
0.00585913
0.00606236
0.0062752
0.00649855
0.00673331
0.00698001
0.00723902
0.00751157
0.00779582
0.00809069
0.00839856
0.00871903
0.00905144
0.00939442
0.00974582
0.0101034
0.0104659
0.0108324
0.0112019
0.0115748
0.0119515
0.0123357
0.0127131
0.0130812
0.0134321
0.0137577
0.0140582