/*--------------------------------*- C++ -*----------------------------------*\
  =========                 |
  \\      /  F ield         | OpenFOAM: The Open Source CFD Toolbox
   \\    /   O peration     | Website:  https://openfoam.org
    \\  /    A nd           | Version:  10
     \\/     M anipulation  |
\*---------------------------------------------------------------------------*/
FoamFile
{
    format      ascii;
    class       volScalarField;
    location    "49000";
    object      yPlus;
}
// * * * * * * * * * * * * * * * * * * * * * * * * * * * * * * * * * * * * * //

dimensions      [0 0 0 0 0 0 0];

internalField   uniform 0;

boundaryField
{
    right
    {
        type            cyclic;
    }
    left
    {
        type            cyclic;
    }
    outerWall
    {
        type            calculated;
        value           nonuniform List<scalar> 0();
    }
    stirrerWall
    {
        type            calculated;
        value           nonuniform List<scalar> 
398
(
0.286338
0.176769
0.128383
0.109707
0.100121
0.0934656
0.088358
0.0846816
0.0825908
0.0821002
0.0831373
0.0855676
0.0892344
0.0940805
0.0999241
0.106594
0.114075
0.12223
0.131038
0.140502
0.150605
0.161132
0.172016
0.183081
0.19418
0.205152
0.215809
0.225961
0.23538
0.24391
0.251488
0.257682
0.26257
0.266291
0.268878
0.270484
0.271359
0.271358
0.270061
0.268028
0.265651
0.261205
0.25458
0.247293
0.239041
0.230142
0.220799
0.211411
0.202185
0.193063
0.18403
0.175234
0.166745
0.158553
0.150619
0.142889
0.135249
0.127767
0.120581
0.113739
0.107251
0.10109
0.095218
0.0896192
0.0842493
0.0790085
0.07399
0.0690291
0.0642999
0.0597295
0.0554106
0.0515624
0.048401
0.0459427
0.0439814
0.0419368
0.0388041
0.0333342
0.0242887
0.00703152
0.00703152
0.0187576
0.00800137
0.0113325
0.0142248
0.0184374
0.0226915
0.0264303
0.0291575
0.0309882
0.0320367
0.0324109
0.032232
0.0316158
0.0306609
0.0294498
0.0280376
0.0264888
0.0248902
0.0232844
0.0218134
0.020463
0.0191969
0.0179912
0.0168522
0.0157968
0.0148546
0.0140635
0.0134699
0.0131386
0.0131648
0.0137838
0.0152463
0.0175344
0.0205688
0.0241581
0.0279804
0.0318343
0.0355598
0.0392724
0.042929
0.04658
0.0501686
0.0538141
0.0575757
0.0616544
0.0661837
0.0714083
0.0780168
0.0869954
0.0977823
0.111371
0.127312
0.145502
0.166771
0.191498
0.219596
0.251122
0.286103
0.324563
0.366495
0.41201
0.461424
0.515295
0.574367
0.639436
0.711389
0.791331
0.880961
0.982465
1.09839
1.23219
1.38605
1.56191
1.7606
1.97373
2.18974
2.40228
2.60592
2.80308
2.98648
3.15315
3.30285
3.43644
3.55484
3.66073
3.75772
3.84935
3.93795
4.02514
4.11153
4.19682
4.28088
4.36358
4.438
4.49785
4.54949
4.59327
4.62535
4.6437
4.64969
4.64764
4.63831
4.62171
4.59862
4.56903
4.53174
4.48674
4.43426
4.37438
4.30702
4.23231
4.14994
4.05956
3.96038
3.85333
3.74396
3.63122
3.51306
3.38878
3.25855
3.12313
2.98345
2.8407
2.69636
2.55217
2.41018
2.27274
0.0279043
0.0387974
0.0247895
0.0219651
0.0339586
0.0629355
0.115736
0.177812
0.233319
0.275147
0.302042
0.315189
0.315638
0.304099
0.284131
0.256507
0.236725
0.217935
0.198258
0.177857
0.15752
0.137966
0.119759
0.103211
0.0884085
0.0752924
0.0639406
0.0545529
0.0473529
0.0424529
0.0415416
0.0579044
0.117802
0.216054
0.304253
0.358722
0.384182
0.386873
0.388751
0.403422
0.436541
0.482149
0.528992
0.571848
0.60872
0.641256
0.680428
0.732622
0.828321
0.998798
1.33254
2.34298
4.37435
7.05181
9.55064
11.0765
11.3243
10.8653
11.1558
10.727
11.1264
11.3467
11.5604
12.1319
12.5836
12.6806
11.2499
12.2438
10.784
11.3149
11.1255
11.8122
11.4273
11.9043
12.2506
11.681
11.9312
12.1724
12.4044
12.6283
12.8451
13.0556
13.2605
13.4606
13.6566
13.8494
14.0402
14.2306
14.42
14.6083
14.7961
14.9835
15.171
15.3588
15.5472
15.7365
15.9269
16.1187
16.312
16.5072
16.7048
16.9053
17.1082
17.314
17.5231
17.7357
17.9522
18.173
18.3984
18.6283
0.0279043
0.0811218
0.122217
0.167129
0.170321
0.166335
0.164944
0.156808
0.176876
0.209112
0.250657
0.301458
0.361961
0.432415
0.512679
0.602464
0.700878
0.807046
0.919882
1.03828
1.16086
1.28636
1.4139
1.54342
1.67569
1.81329
1.96278
2.11043
2.25316
2.39078
2.52303
2.65035
2.77469
2.89735
3.01898
3.14344
3.2705
3.40115
3.53413
3.67711
3.78323
3.86478
3.96257
4.06648
4.18058
4.31264
4.4678
4.65239
4.88363
5.18126
5.57228
6.10198
6.83388
7.62338
8.50544
9.5302
10.732
11.4005
9.91923
10.5516
11.17
10.7297
10.6009
11.3998
12.0986
11.8047
11.3597
11.1021
11.4474
10.8731
10.2111
10.9541
9.35108
5.49726
2.1067
0.865704
0.67367
0.642744
0.556637
0.426238
)
;
    }
    top
    {
        type            empty;
    }
    bottom
    {
        type            empty;
    }
    procBoundary1to0
    {
        type            processor;
        value           uniform 0;
    }
}


// ************************************************************************* //
