/*--------------------------------*- C++ -*----------------------------------*\
  =========                 |
  \\      /  F ield         | OpenFOAM: The Open Source CFD Toolbox
   \\    /   O peration     | Website:  https://openfoam.org
    \\  /    A nd           | Version:  10
     \\/     M anipulation  |
\*---------------------------------------------------------------------------*/
FoamFile
{
    format      ascii;
    class       volScalarField;
    location    "8000";
    object      omega;
}
// * * * * * * * * * * * * * * * * * * * * * * * * * * * * * * * * * * * * * //

dimensions      [0 0 -1 0 0 0 0];

internalField   nonuniform List<scalar> 
17808
(
15695.9
6325.04
3606.75
2480.02
1874.76
1500.21
1246.59
1063.82
926.006
818.434
732.159
661.436
602.409
552.397
509.479
472.243
439.627
410.818
385.185
362.228
341.547
322.816
305.773
290.196
275.905
262.745
250.586
239.318
228.845
219.087
209.973
201.44
193.434
185.908
178.821
172.135
165.817
159.837
154.17
148.791
143.68
138.817
134.184
129.767
125.55
121.521
117.668
113.979
110.445
107.056
103.804
100.682
97.6813
94.7961
92.02
89.3473
86.7725
84.2909
81.8976
79.5885
77.3594
75.2065
73.1264
71.1157
69.1714
67.2906
65.4706
63.7087
62.0026
60.3498
58.7483
57.196
55.691
54.2313
52.8153
51.4414
50.1079
48.8134
47.5564
46.3358
45.1501
43.9981
42.8788
41.7911
40.7338
39.706
38.7067
37.735
36.7902
35.8712
34.9774
34.108
15695.7
6323.59
3607.68
2481.39
1876.11
1501.39
1247.57
1064.64
926.687
819.002
732.635
661.837
602.749
552.687
509.728
472.458
439.813
410.981
385.328
362.354
341.658
322.915
305.861
290.275
275.976
262.808
250.643
239.37
228.893
219.13
210.012
201.476
193.467
185.939
178.849
172.161
165.841
159.859
154.19
148.81
143.698
138.833
134.2
129.782
125.564
121.534
117.68
113.99
110.455
107.066
103.814
100.691
97.6902
94.8046
92.0281
89.355
86.78
84.298
81.9045
79.5951
77.3658
75.2127
73.1324
71.1216
69.1772
67.2962
65.476
63.714
62.0077
60.3549
58.7532
57.2008
55.6957
54.2359
52.8198
51.4458
50.1122
48.8176
47.5606
46.3399
45.1541
44.0022
42.8828
41.795
40.7376
39.7098
38.7104
37.7388
36.7938
35.8749
34.981
34.1116
15697.8
6322.06
3608.03
2481.94
1876.69
1501.96
1248.1
1065.11
927.099
819.364
732.953
662.117
602.996
552.905
509.921
472.629
439.965
411.117
385.449
362.463
341.755
323.003
305.94
290.347
276.041
262.867
250.697
239.419
228.937
219.171
210.05
201.51
193.499
185.968
178.876
172.186
165.864
159.881
154.21
148.829
143.715
138.85
134.215
129.796
125.577
121.547
117.692
114.002
110.466
107.076
103.824
100.7
97.699
94.813
92.0362
89.3627
86.7874
84.3051
81.9113
79.6017
77.3721
75.2189
73.1384
71.1274
69.1828
67.3018
65.4814
63.7193
62.0129
60.3599
58.7582
57.2056
55.7004
54.2405
52.8244
51.4503
50.1166
48.822
47.5649
46.3442
45.1583
44.0063
42.8869
41.799
40.7416
39.7137
38.7144
37.7427
36.7977
35.8787
34.9848
34.1153
15699.5
6320.75
3608.19
2482.24
1877.05
1502.33
1248.45
1065.43
927.391
819.625
733.186
662.325
603.183
553.073
510.072
472.766
440.089
411.229
385.552
362.556
341.84
323.08
306.011
290.412
276.1
262.922
250.747
239.465
228.98
219.211
210.086
201.543
193.53
185.997
178.903
172.21
165.887
159.902
154.23
148.848
143.733
138.866
134.231
129.81
125.591
121.56
117.704
114.013
110.477
107.087
103.834
100.71
97.7081
94.8217
92.0445
89.3707
86.795
84.3125
81.9184
79.6085
77.3787
75.2253
73.1446
71.1335
69.1887
67.3075
65.4871
63.7248
62.0182
60.3651
58.7633
57.2107
55.7053
54.2454
52.8292
51.455
50.1213
48.8266
47.5694
46.3486
45.1627
44.0106
42.8912
41.8033
40.7458
39.7179
38.7185
37.7468
36.8018
35.8827
34.9888
34.1193
15701
6319.19
3607.9
2482.22
1877.18
1502.54
1248.68
1065.65
927.597
819.814
733.359
662.483
603.326
553.204
510.192
472.875
440.19
411.322
385.637
362.634
341.913
323.148
306.073
290.469
276.153
262.971
250.793
239.507
229.019
219.247
210.12
201.575
193.559
186.025
178.929
172.235
165.91
159.924
154.25
148.866
143.75
138.883
134.246
129.825
125.605
121.573
117.716
114.025
110.489
107.098
103.844
100.72
97.7174
94.8306
92.0531
89.3789
86.803
84.3201
81.9258
79.6156
77.3856
75.2319
73.1511
71.1398
69.1949
67.3135
65.4929
63.7305
62.0238
60.3706
58.7686
57.2159
55.7105
54.2504
52.8341
51.4598
50.1261
48.8313
47.5741
46.3532
45.1673
44.0152
42.8957
41.8077
40.7503
39.7223
38.7229
37.7511
36.8061
35.887
34.993
34.1235
15702.5
6317.7
3607.43
2482.04
1877.17
1502.61
1248.79
1065.79
927.733
819.946
733.484
662.599
603.435
553.305
510.286
472.963
440.271
411.398
385.708
362.7
341.975
323.205
306.127
290.52
276.201
263.016
250.834
239.546
229.056
219.282
210.152
201.606
193.588
186.051
178.954
172.258
165.932
159.944
154.27
148.885
143.768
138.899
134.262
129.84
125.619
121.586
117.729
114.037
110.5
107.109
103.854
100.73
97.7271
94.8399
92.0619
89.3875
86.8112
84.328
81.9334
79.623
77.3927
75.2389
73.1578
71.1463
69.2013
67.3197
65.499
63.7364
62.0296
60.3763
58.7742
57.2214
55.7158
54.2557
52.8393
51.465
50.1311
48.8363
47.579
46.3581
45.1721
44.0199
42.9004
41.8124
40.7549
39.7269
38.7274
37.7556
36.8105
35.8914
34.9974
34.1279
15703.8
6316.47
3606.93
2481.82
1877.09
1502.61
1248.85
1065.87
927.823
820.038
733.574
662.686
603.517
553.383
510.36
473.032
440.337
411.46
385.767
362.756
342.027
323.255
306.174
290.564
276.243
263.055
250.872
239.582
229.089
219.313
210.182
201.634
193.615
186.076
178.978
172.281
165.953
159.965
154.289
148.903
143.785
138.916
134.278
129.855
125.633
121.6
117.742
114.049
110.512
107.12
103.865
100.74
97.7369
94.8494
92.071
89.3963
86.8196
84.3362
81.9413
79.6306
77.4001
75.246
73.1648
71.1531
69.2079
67.3262
65.5053
63.7426
62.0357
60.3822
58.78
57.2271
55.7214
54.2612
52.8447
51.4703
50.1364
48.8415
47.5842
46.3631
45.1771
44.0249
42.9053
41.8173
40.7597
39.7317
38.7322
37.7603
36.8152
35.8961
35.0021
34.1325
15705
6315.46
3606.43
2481.58
1876.98
1502.58
1248.86
1065.91
927.883
820.104
733.641
662.753
603.582
553.445
510.419
473.089
440.391
411.511
385.815
362.803
342.072
323.298
306.215
290.603
276.28
263.091
250.906
239.614
229.12
219.342
210.21
201.66
193.64
186.1
179.001
172.303
165.974
159.984
154.308
148.921
143.802
138.932
134.293
129.87
125.648
121.613
117.755
114.062
110.524
107.131
103.876
100.751
97.7471
94.8591
92.0804
89.4053
86.8284
84.3446
81.9495
79.6385
77.4078
75.2535
73.1721
71.1602
69.2148
67.3329
65.5119
63.749
62.042
60.3884
58.7861
57.233
55.7272
54.2669
52.8503
51.4758
50.1418
48.8469
47.5895
46.3684
45.1824
44.0301
42.9105
41.8224
40.7648
39.7367
38.7372
37.7653
36.8202
35.901
35.007
34.1373
15705.9
6314.61
3605.96
2481.34
1876.85
1502.53
1248.85
1065.93
927.92
820.15
733.691
662.803
603.632
553.494
510.467
473.135
440.435
411.554
385.857
362.842
342.11
323.334
306.25
290.637
276.312
263.122
250.936
239.643
229.148
219.369
210.236
201.685
193.663
186.123
179.022
172.323
165.994
160.004
154.326
148.939
143.819
138.948
134.309
129.885
125.662
121.627
117.768
114.074
110.536
107.143
103.887
100.761
97.7574
94.8691
92.09
89.4146
86.8373
84.3533
81.9579
79.6467
77.4157
75.2612
73.1796
71.1675
69.222
67.3399
65.5187
63.7557
62.0485
60.3948
58.7924
57.2392
55.7333
54.2729
52.8562
51.4816
50.1476
48.8525
47.5951
46.374
45.1878
44.0355
42.9158
41.8277
40.7701
39.742
38.7424
37.7705
36.8253
35.9061
35.012
34.1424
15706.7
6313.89
3605.51
2481.11
1876.72
1502.45
1248.83
1065.93
927.938
820.179
733.726
662.842
603.671
553.533
510.505
473.173
440.472
411.59
385.892
362.876
342.143
323.366
306.281
290.667
276.342
263.15
250.963
239.669
229.174
219.394
210.259
201.708
193.686
186.145
179.043
172.343
166.013
160.022
154.344
148.956
143.835
138.964
134.324
129.899
125.676
121.64
117.781
114.087
110.548
107.155
103.899
100.772
97.7679
94.8792
92.0999
89.4241
86.8466
84.3623
81.9666
79.6552
77.424
75.2692
73.1874
71.1751
69.2294
67.3472
65.5258
63.7627
62.0553
60.4015
58.7989
57.2456
55.7396
54.2791
52.8624
51.4877
50.1535
48.8584
47.6009
46.3797
45.1936
44.0412
42.9215
41.8333
40.7756
39.7475
38.7479
37.7759
36.8307
35.9115
35.0174
34.1477
15707.3
6313.3
3605.1
2480.88
1876.58
1502.37
1248.78
1065.92
927.944
820.197
733.751
662.87
603.702
553.565
510.537
473.204
440.503
411.621
385.922
362.906
342.172
323.395
306.309
290.694
276.368
263.176
250.988
239.693
229.197
219.417
210.282
201.729
193.706
186.165
179.062
172.362
166.031
160.04
154.361
148.972
143.851
138.979
134.339
129.914
125.69
121.654
117.794
114.1
110.56
107.166
103.91
100.783
97.7786
94.8896
92.1099
89.4339
86.856
84.3715
81.9755
79.6638
77.4324
75.2775
73.1954
71.183
69.2371
67.3547
65.5332
63.7699
62.0624
60.4084
58.8057
57.2523
55.7462
54.2856
52.8688
51.494
50.1598
48.8646
47.607
46.3858
45.1995
44.0471
42.9273
41.8391
40.7814
39.7532
38.7536
37.7816
36.8364
35.9171
35.0229
34.1532
15707.8
6312.8
3604.74
2480.67
1876.45
1502.29
1248.74
1065.9
927.94
820.205
733.767
662.891
603.726
553.59
510.563
473.231
440.53
411.647
385.948
362.931
342.197
323.419
306.333
290.718
276.391
263.199
251.011
239.716
229.219
219.438
210.302
201.75
193.726
186.184
179.081
172.38
166.049
160.057
154.378
148.988
143.867
138.995
134.353
129.928
125.704
121.667
117.807
114.112
110.572
107.178
103.922
100.794
97.7895
94.9001
92.1202
89.4438
86.8657
84.3809
81.9847
79.6728
77.4411
75.286
73.2037
71.1911
69.245
67.3625
65.5408
63.7774
62.0698
60.4156
58.8128
57.2593
55.7531
54.2924
52.8754
51.5006
50.1663
48.871
47.6134
46.3921
45.2058
44.0533
42.9335
41.8452
40.7874
39.7592
38.7595
37.7875
36.8422
35.9229
35.0288
34.159
15708.3
6312.38
3604.41
2480.47
1876.32
1502.21
1248.68
1065.87
927.928
820.205
733.776
662.906
603.744
553.611
510.585
473.253
440.553
411.67
385.97
362.954
342.219
323.442
306.355
290.74
276.413
263.22
251.032
239.736
229.239
219.458
210.322
201.769
193.745
186.202
179.099
172.398
166.066
160.073
154.394
149.004
143.882
139.009
134.368
129.942
125.717
121.681
117.82
114.125
110.585
107.19
103.933
100.806
97.8005
94.9108
92.1306
89.454
86.8756
84.3905
81.9941
79.682
77.4501
75.2947
73.2123
71.1995
69.2533
67.3706
65.5487
63.7851
62.0774
60.4231
58.8202
57.2665
55.7602
54.2994
52.8824
51.5074
50.173
48.8777
47.62
46.3986
45.2123
44.0597
42.9399
41.8515
40.7938
39.7655
38.7657
37.7937
36.8484
35.929
35.0348
34.165
15708.6
6312.03
3604.12
2480.29
1876.2
1502.13
1248.63
1065.84
927.912
820.201
733.78
662.915
603.757
553.627
510.603
473.272
440.572
411.69
385.991
362.974
342.24
323.462
306.375
290.76
276.433
263.24
251.051
239.755
229.258
219.476
210.34
201.787
193.762
186.219
179.116
172.414
166.082
160.089
154.41
149.019
143.897
139.024
134.382
129.956
125.731
121.694
117.833
114.137
110.597
107.202
103.945
100.817
97.8116
94.9217
92.1412
89.4643
86.8857
84.4004
82.0037
79.6914
77.4593
75.3038
73.2212
71.2082
69.2618
67.3789
65.5569
63.7932
62.0853
60.4309
58.8278
57.2741
55.7676
54.3067
52.8896
51.5146
50.1801
48.8847
47.6269
46.4054
45.219
44.0664
42.9465
41.8582
40.8003
39.772
38.7722
37.8001
36.8547
35.9353
35.0411
34.1713
15708.9
6311.73
3603.86
2480.13
1876.09
1502.05
1248.58
1065.8
927.892
820.192
733.779
662.921
603.767
553.64
510.618
473.288
440.589
411.707
386.009
362.993
342.258
323.48
306.394
290.778
276.451
263.258
251.069
239.773
229.276
219.494
210.357
201.804
193.779
186.236
179.132
172.431
166.098
160.105
154.425
149.034
143.912
139.038
134.396
129.97
125.744
121.707
117.846
114.15
110.609
107.214
103.957
100.829
97.8229
94.9327
92.152
89.4749
86.896
84.4105
82.0136
79.7011
77.4688
75.3131
73.2303
71.2171
69.2705
67.3875
65.5654
63.8015
62.0934
60.4389
58.8357
57.2819
55.7753
54.3143
52.8971
51.5219
50.1874
48.8919
47.6341
46.4125
45.2261
44.0734
42.9535
41.865
40.8072
39.7788
38.779
37.8068
36.8614
35.9419
35.0476
34.1778
15709.2
6311.48
3603.64
2479.98
1875.99
1501.98
1248.53
1065.77
927.87
820.18
733.776
662.923
603.774
553.65
510.63
473.302
440.604
411.723
386.025
363.009
342.275
323.498
306.411
290.795
276.468
263.275
251.086
239.79
229.292
219.511
210.374
201.82
193.796
186.252
179.148
172.446
166.113
160.12
154.44
149.049
143.927
139.053
134.41
129.983
125.758
121.72
117.859
114.163
110.622
107.226
103.969
100.84
97.8343
94.9439
92.163
89.4856
86.9066
84.4208
82.0237
79.711
77.4785
75.3226
73.2396
71.2263
69.2795
67.3964
65.5741
63.8101
62.1019
60.4472
58.8439
57.2899
55.7833
54.3222
52.9048
51.5296
50.195
48.8994
47.6415
46.4199
45.2334
44.0807
42.9607
41.8722
40.8143
39.7858
38.786
37.8137
36.8682
35.9487
35.0544
34.1846
15709.4
6311.27
3603.44
2479.84
1875.9
1501.91
1248.48
1065.73
927.848
820.167
733.77
662.923
603.778
553.657
510.64
473.314
440.617
411.737
386.04
363.025
342.291
323.513
306.427
290.812
276.484
263.291
251.102
239.807
229.309
219.527
210.39
201.836
193.811
186.268
179.164
172.462
166.129
160.135
154.455
149.064
143.941
139.067
134.424
129.997
125.771
121.734
117.872
114.175
110.634
107.239
103.981
100.852
97.8459
94.9553
92.1741
89.4965
86.9173
84.4313
82.034
79.7211
77.4885
75.3324
73.2492
71.2358
69.2888
67.4055
65.5831
63.8189
62.1106
60.4558
58.8524
57.2983
55.7915
54.3303
52.9129
51.5376
50.2029
48.9072
47.6492
46.4276
45.241
44.0882
42.9682
41.8797
40.8217
39.7932
38.7932
37.8209
15709.6
6311.09
3603.27
2479.72
1875.81
1501.85
1248.43
1065.7
927.825
820.153
733.763
662.921
603.781
553.663
510.648
473.324
440.629
411.75
386.053
363.039
342.305
323.528
306.442
290.827
276.5
263.307
251.118
239.822
229.324
219.542
210.406
201.852
193.827
186.283
179.179
172.477
166.143
160.15
154.469
149.078
143.955
139.081
134.438
130.011
125.785
121.747
117.885
114.188
110.647
107.251
103.993
100.864
97.8576
94.9668
92.1854
89.5076
86.9282
84.4421
82.0446
79.7315
77.4987
75.3424
73.2591
71.2455
69.2984
67.4149
65.5924
63.8281
62.1196
60.4647
58.8612
57.3069
55.8001
54.3388
52.9212
51.5458
50.211
48.9153
47.6573
46.4355
45.2489
44.0961
42.976
41.8874
40.8294
39.8008
38.8008
37.8283
15709.8
6310.93
3603.12
2479.61
1875.73
1501.79
1248.39
1065.67
927.803
820.139
733.754
662.918
603.782
553.667
510.655
473.333
440.639
411.762
386.066
363.052
342.319
323.543
306.457
290.842
276.515
263.322
251.133
239.837
229.34
219.558
210.421
201.867
193.842
186.298
179.194
172.491
166.158
160.164
154.484
149.092
143.969
139.095
134.452
130.024
125.798
121.76
117.898
114.201
110.659
107.263
104.005
100.876
97.8695
94.9785
92.1969
89.519
86.9393
84.453
82.0554
79.7421
77.5091
75.3527
73.2692
71.2554
69.3082
67.4246
65.6019
63.8375
62.1289
60.4739
58.8702
57.3159
55.8089
54.3475
52.9299
51.5544
50.2195
48.9237
47.6656
46.4438
45.2571
44.1042
42.9841
41.8955
40.8373
39.8087
38.8086
37.8361
15709.9
6310.8
3602.99
2479.51
1875.66
1501.74
1248.35
1065.64
927.782
820.124
733.746
662.914
603.782
553.67
510.661
473.341
440.649
411.772
386.077
363.064
342.332
323.556
306.471
290.856
276.529
263.337
251.148
239.852
229.354
219.573
210.436
201.882
193.857
186.313
179.208
172.506
166.173
160.179
154.498
149.106
143.983
139.109
134.465
130.038
125.811
121.773
117.911
114.214
110.672
107.276
104.017
100.888
97.8815
94.9903
92.2086
89.5305
86.9507
84.4642
82.0664
79.7529
77.5198
75.3632
73.2796
71.2657
69.3183
67.4346
65.6117
63.8472
62.1385
60.4833
58.8795
57.3251
55.818
54.3565
52.9388
51.5632
50.2282
48.9324
47.6742
46.4523
45.2656
44.1127
42.9925
41.9038
40.8456
15710.1
6310.69
3602.87
2479.43
1875.6
1501.69
1248.32
1065.61
927.763
820.111
733.737
662.91
603.781
553.673
510.666
473.348
440.657
411.782
386.088
363.076
342.344
323.569
306.484
290.87
276.543
263.351
251.162
239.867
229.369
219.587
210.45
201.896
193.871
186.327
179.223
172.52
166.187
160.193
154.512
149.121
143.997
139.122
134.479
130.051
125.825
121.786
117.924
114.227
110.685
107.289
104.03
100.901
97.8937
95.0024
92.2205
89.5422
86.9622
84.4756
82.0776
79.764
77.5307
75.374
73.2902
71.2762
69.3287
67.4448
65.6218
63.8571
62.1483
60.493
58.8892
57.3346
55.8274
54.3658
52.948
51.5723
50.2373
48.9413
47.6831
46.4612
45.2744
44.1214
43.0012
41.9125
40.8542
15710.2
6310.59
3602.78
2479.35
1875.54
1501.65
1248.29
1065.59
927.745
820.099
733.729
662.906
603.78
553.675
510.67
473.354
440.665
411.791
386.099
363.087
342.356
323.581
306.497
290.883
276.557
263.365
251.176
239.881
229.383
219.602
210.465
201.911
193.886
186.342
179.237
172.535
166.201
160.207
154.526
149.135
144.011
139.136
134.493
130.065
125.838
121.8
117.937
114.24
110.698
107.302
104.043
100.913
97.9061
95.0146
92.2325
89.5541
86.974
84.4872
82.0891
79.7753
77.5419
75.385
73.3011
71.2869
69.3393
67.4553
65.6322
63.8674
62.1584
60.5031
58.8991
57.3444
55.8371
54.3754
52.9575
51.5818
50.2466
48.9506
47.6923
46.4704
45.2835
44.1305
43.0102
41.9214
40.863
15710.4
6310.52
3602.69
2479.28
1875.49
1501.61
1248.26
1065.57
927.729
820.087
733.722
662.902
603.779
553.676
510.674
473.359
440.672
411.8
386.108
363.098
342.368
323.594
306.509
290.896
276.57
263.378
251.19
239.895
229.397
219.616
210.479
201.925
193.9
186.356
179.252
172.549
166.216
160.222
154.541
149.149
144.025
139.15
134.507
130.079
125.852
121.813
117.951
114.253
110.711
107.315
104.055
100.926
97.9187
95.027
92.2448
89.5663
86.986
84.4991
82.1008
79.7869
77.5534
75.3963
73.3123
71.298
69.3502
67.4661
65.6428
63.8779
62.1688
60.5133
58.9092
57.3545
55.8471
54.3853
52.9673
51.5915
50.2563
48.9602
47.7018
46.4798
45.2929
44.1399
43.0194
41.9305
40.872
15710.5
6310.45
3602.61
2479.22
1875.45
1501.58
1248.23
1065.55
927.716
820.077
733.716
662.899
603.779
553.678
510.677
473.365
440.679
411.808
386.118
363.108
342.379
323.605
306.522
290.909
276.583
263.392
251.204
239.909
229.412
219.63
210.493
201.94
193.915
186.371
179.266
172.564
166.23
160.236
154.555
149.163
144.039
139.164
134.521
130.093
125.866
121.827
117.964
114.267
110.724
107.328
104.069
100.939
97.9314
95.0397
92.2573
89.5786
86.9982
84.5111
82.1127
79.7987
77.565
75.4079
73.3237
71.3092
69.3614
67.4771
65.6537
63.8887
62.1795
60.5239
58.9197
57.3648
55.8574
54.3955
52.9774
51.6015
50.2662
48.9701
47.7117
46.4896
45.3026
44.1495
43.029
41.94
40.8813
15710.6
6310.4
3602.55
2479.17
1875.41
1501.55
1248.21
1065.53
927.704
820.069
733.71
662.896
603.778
553.68
510.681
473.37
440.686
411.816
386.127
363.118
342.39
323.617
306.534
290.921
276.596
263.405
251.217
239.923
229.425
219.644
210.508
201.954
193.929
186.385
179.281
172.578
166.245
160.25
154.569
149.177
144.054
139.179
134.535
130.107
125.88
121.841
117.978
114.28
110.738
107.341
104.082
100.952
97.9444
95.0525
92.27
89.5912
87.0107
84.5235
82.1249
79.8108
77.577
75.4197
73.3354
71.3208
69.3728
67.4884
65.6649
63.8998
62.1905
60.5348
58.9305
57.3755
55.8679
54.4059
52.9878
51.6118
50.2765
48.9803
47.7218
46.4996
45.3126
44.1594
43.0388
41.9496
40.8909
15710.8
6310.35
3602.5
2479.12
1875.37
1501.53
1248.19
1065.52
927.694
820.062
733.706
662.894
603.778
553.682
510.685
473.376
440.693
411.824
386.136
363.128
342.4
323.628
306.546
290.934
276.609
263.418
251.231
239.936
229.439
219.658
210.522
201.968
193.943
186.4
179.295
172.593
166.259
160.265
154.584
149.192
144.068
139.193
134.549
130.121
125.894
121.855
117.992
114.294
110.751
107.355
104.095
100.965
97.9576
95.0656
92.283
89.604
87.0233
84.536
82.1374
79.8231
77.5891
75.4317
73.3473
71.3326
69.3845
67.5
65.6764
63.9111
62.2017
60.5459
58.9415
57.3864
55.8788
54.4167
52.9985
51.6224
50.287
48.9907
47.7322
46.51
45.3228
44.1695
43.0488
41.9595
40.9006
15710.9
6310.32
3602.45
2479.08
1875.34
1501.5
1248.18
1065.51
927.686
820.057
733.703
662.893
603.779
553.684
510.689
473.381
440.7
411.832
386.145
363.138
342.411
323.639
306.557
290.946
276.622
263.431
251.244
239.95
229.453
219.672
210.536
201.983
193.958
186.414
179.31
172.607
166.274
160.279
154.598
149.206
144.082
139.207
134.563
130.135
125.908
121.869
118.006
114.308
110.765
107.368
104.109
100.979
97.971
95.0789
92.2961
89.617
87.0362
84.5488
82.15
79.8356
77.6015
75.444
73.3595
71.3447
69.3964
67.5118
65.6881
63.9227
62.2132
60.5573
58.9528
57.3976
55.8899
54.4277
53.0094
51.6333
50.2978
49.0015
47.7428
46.5205
45.3333
44.1799
43.059
41.9696
40.9106
15711
6310.3
3602.41
2479.05
1875.32
1501.48
1248.16
1065.5
927.68
820.053
733.701
662.893
603.781
553.688
510.693
473.387
440.706
411.84
386.153
363.147
342.421
323.65
306.569
290.958
276.634
263.444
251.258
239.964
229.467
219.686
210.55
201.997
193.972
186.429
179.324
172.622
166.288
160.294
154.613
149.221
144.097
139.222
134.578
130.15
125.922
121.883
118.02
114.322
110.779
107.382
104.123
100.992
97.9846
95.0923
92.3095
89.6303
87.0494
84.5618
82.1629
79.8484
77.6142
75.4565
73.3719
71.357
69.4086
67.5239
65.7001
63.9346
62.225
60.569
58.9644
57.4091
55.9013
54.4391
53.0207
51.6445
50.3089
49.0124
47.7537
46.5313
45.344
44.1904
43.0695
41.98
40.9209
15711.2
6310.28
3602.38
2479.02
1875.29
1501.47
1248.15
1065.49
927.675
820.051
733.701
662.894
603.783
553.691
510.698
473.393
440.713
411.847
386.162
363.157
342.431
323.661
306.58
290.97
276.647
263.457
251.271
239.977
229.481
219.7
210.564
202.011
193.987
186.443
179.339
172.637
166.303
160.309
154.628
149.236
144.112
139.237
134.593
130.164
125.937
121.898
118.035
114.336
110.793
107.396
104.137
101.006
97.9984
95.106
92.323
89.6437
87.0627
84.575
82.176
79.8614
77.6271
75.4693
73.3846
71.3695
69.421
67.5362
65.7123
63.9467
62.237
60.5809
58.9762
57.4209
55.913
54.4506
53.0321
51.6559
50.3202
49.0237
47.7648
46.5424
45.3549
44.2013
43.0802
41.9905
40.9313
15711.3
6310.27
3602.35
2478.99
1875.27
1501.46
1248.14
1065.49
927.672
820.05
733.702
662.896
603.787
553.696
510.704
473.399
440.721
411.856
386.171
363.167
342.442
323.672
306.592
290.982
276.659
263.47
251.284
239.991
229.495
219.714
210.579
202.026
194.001
186.458
179.354
172.651
166.318
160.324
154.642
149.251
144.127
139.251
134.607
130.179
125.952
121.912
118.049
114.351
110.808
107.411
104.151
101.02
98.0123
95.1199
92.3368
89.6574
87.0763
84.5885
82.1894
79.8746
77.6402
75.4823
73.3975
71.3823
69.4337
67.5488
65.7248
63.9591
62.2493
60.5931
58.9883
57.4328
55.9248
54.4624
53.0439
51.6675
50.3317
49.0351
47.7762
46.5536
45.366
44.2123
43.0911
42.0013
40.9419
15711.4
6310.27
3602.33
2478.97
1875.26
1501.44
1248.14
1065.48
927.671
820.05
733.703
662.899
603.791
553.7
510.709
473.406
440.728
411.864
386.18
363.176
342.452
323.683
306.603
290.994
276.672
263.483
251.297
240.004
229.508
219.728
210.593
202.04
194.016
186.472
179.368
172.666
166.333
160.338
154.657
149.265
144.141
139.266
134.622
130.194
125.966
121.927
118.064
114.365
110.822
107.425
104.165
101.035
98.0265
95.1339
92.3508
89.6712
87.09
84.6021
82.2029
79.888
77.6535
75.4955
73.4106
71.3953
69.4466
67.5616
65.7375
63.9717
62.2618
60.6055
59.0006
57.4451
55.937
54.4745
53.0558
51.6794
50.3435
49.0468
47.7878
46.565
45.3774
44.2235
43.1021
42.0122
40.9527
15711.6
6310.29
3602.32
2478.95
1875.24
1501.43
1248.13
1065.48
927.671
820.052
733.706
662.903
603.795
553.706
510.716
473.413
440.736
411.872
386.189
363.186
342.463
323.694
306.615
291.006
276.684
263.495
251.31
240.017
229.522
219.742
210.607
202.054
194.03
186.487
179.383
172.681
166.348
160.353
154.672
149.28
144.156
139.281
134.637
130.209
125.981
121.942
118.078
114.38
110.837
107.44
104.18
101.049
98.0408
95.1482
92.3649
89.6853
87.1039
84.6159
82.2166
79.9017
77.667
75.5089
73.4239
71.4085
69.4597
67.5746
65.7504
63.9845
62.2745
60.6181
59.0131
57.4575
55.9493
54.4867
53.068
51.6914
50.3555
49.0586
47.7995
46.5767
45.3889
44.2348
43.1133
42.0233
40.9636
15711.7
6310.3
3602.31
2478.94
1875.23
1501.43
1248.13
1065.48
927.672
820.055
733.71
662.908
603.801
553.712
510.723
473.42
440.744
411.881
386.199
363.196
342.473
323.705
306.626
291.018
276.696
263.508
251.323
240.031
229.536
219.756
210.621
202.069
194.045
186.502
179.398
172.696
166.362
160.368
154.687
149.295
144.172
139.296
134.652
130.224
125.996
121.957
118.093
114.395
110.852
107.454
104.194
101.064
98.0553
95.1625
92.3792
89.6995
87.118
84.6299
82.2305
79.9154
77.6807
75.5225
73.4374
71.4219
69.473
67.5878
65.7635
63.9975
62.2874
60.6309
59.0258
57.4701
55.9618
54.4991
53.0803
51.7036
50.3676
49.0707
47.8114
46.5884
45.4005
44.2463
43.1247
42.0345
40.9746
15711.9
6310.33
3602.3
2478.93
1875.23
1501.42
1248.13
1065.48
927.674
820.058
733.715
662.913
603.807
553.719
510.73
473.429
440.753
411.89
386.208
363.206
342.484
323.716
306.638
291.03
276.709
263.521
251.336
240.044
229.549
219.77
210.635
202.083
194.059
186.516
179.413
172.711
166.377
160.383
154.702
149.311
144.187
139.311
134.667
130.239
126.011
121.972
118.108
114.41
110.867
107.469
104.209
101.078
98.0699
95.1771
92.3936
89.7138
87.1323
84.6441
82.2446
79.9294
77.6946
75.5363
73.451
71.4354
69.4864
67.6011
65.7767
64.0106
62.3005
60.6439
59.0387
57.4829
55.9745
54.5117
53.0928
51.716
50.3799
49.0828
47.8234
46.6004
45.4123
44.258
43.1362
42.0458
40.9858
15712
6310.36
3602.3
2478.93
1875.22
1501.42
1248.13
1065.48
927.678
820.063
733.72
662.92
603.814
553.727
510.738
473.437
440.762
411.9
386.218
363.217
342.494
323.727
306.65
291.042
276.721
263.534
251.349
240.057
229.563
219.784
210.649
202.097
194.074
186.531
179.427
172.725
166.392
160.398
154.717
149.326
144.202
139.327
134.683
130.254
126.026
121.987
118.123
114.425
110.882
107.484
104.224
101.093
98.0846
95.1917
92.4082
89.7283
87.1467
84.6584
82.2587
79.9435
77.7086
75.5502
73.4648
71.4491
69.5001
67.6146
65.7901
64.024
62.3137
60.657
59.0517
57.4958
55.9874
54.5245
53.1054
51.7286
50.3923
49.0951
47.8356
46.6124
45.4242
44.2697
43.1478
42.0572
40.9971
15712.2
6310.39
3602.31
2478.92
1875.22
1501.42
1248.13
1065.48
927.682
820.068
733.727
662.927
603.822
553.735
510.747
473.446
440.771
411.91
386.228
363.227
342.505
323.738
306.661
291.054
276.733
263.546
251.362
240.071
229.576
219.798
210.663
202.111
194.088
186.545
179.442
172.74
166.407
160.413
154.732
149.341
144.217
139.342
134.698
130.269
126.042
122.002
118.139
114.44
110.897
107.499
104.239
101.108
98.0994
95.2064
92.4228
89.7428
87.1611
84.6727
82.273
79.9577
77.7227
75.5642
73.4787
71.463
69.5138
67.6283
65.8037
64.0374
62.327
60.6703
59.0649
57.5089
56.0003
54.5373
53.1182
51.7412
50.4048
49.1075
47.8479
46.6245
45.4362
44.2816
43.1595
42.0688
15712.3
6310.44
3602.32
2478.92
1875.22
1501.42
1248.13
1065.49
927.687
820.075
733.734
662.934
603.83
553.744
510.756
473.455
440.781
411.919
386.239
363.238
342.516
323.75
306.673
291.066
276.746
263.559
251.375
240.084
229.59
219.811
210.677
202.125
194.102
186.56
179.456
172.755
166.422
160.428
154.747
149.356
144.232
139.357
134.713
130.284
126.057
122.017
118.154
114.455
110.912
107.514
104.254
101.123
98.1142
95.2212
92.4375
89.7574
87.1757
84.6872
82.2874
79.972
77.7369
75.5783
73.4928
71.4769
69.5276
67.642
65.8173
64.051
62.3405
60.6836
59.0781
57.5221
56.0134
54.5503
53.131
51.7539
50.4174
49.12
47.8602
46.6367
45.4482
44.2934
43.1712
42.0803
15712.5
6310.49
3602.33
2478.93
1875.22
1501.42
1248.13
1065.49
927.693
820.081
733.741
662.943
603.839
553.753
510.765
473.465
440.791
411.93
386.249
363.248
342.527
323.761
306.684
291.078
276.758
263.571
251.388
240.097
229.603
219.825
210.691
202.139
194.116
186.574
179.471
172.769
166.437
160.443
154.762
149.371
144.247
139.372
134.728
130.299
126.072
122.032
118.169
114.47
110.927
107.529
104.269
101.138
98.1291
95.236
92.4522
89.7721
87.1902
84.7017
82.3018
79.9863
77.7511
75.5925
73.5068
71.4909
69.5415
67.6558
65.831
64.0646
62.354
60.697
59.0915
57.5353
56.0265
54.5633
53.1439
51.7667
50.43
49.1325
47.8726
46.649
45.4603
44.3053
43.1829
42.0918
15712.7
6310.54
3602.35
2478.93
1875.22
1501.42
1248.14
1065.5
927.7
820.089
733.749
662.951
603.848
553.762
510.775
473.475
440.801
411.94
386.26
363.259
342.538
323.772
306.696
291.09
276.77
263.584
251.401
240.11
229.616
219.838
210.704
202.153
194.13
186.588
179.485
172.784
166.451
160.458
154.777
149.386
144.262
139.387
134.743
130.314
126.087
122.047
118.184
114.485
110.942
107.544
104.284
101.153
98.1439
95.2507
92.4669
89.7867
87.2048
84.7162
82.3163
80.0007
77.7654
75.6067
73.5209
71.5049
69.5554
67.6697
65.8448
64.0782
62.3676
60.7105
59.1048
57.5485
56.0396
54.5763
53.1568
51.7795
50.4427
49.145
47.885
46.6612
45.4724
44.3172
43.1946
42.1033
15712.9
6310.6
3602.37
2478.94
1875.23
1501.43
1248.14
1065.5
927.707
820.097
733.758
662.96
603.857
553.772
510.785
473.485
440.811
411.951
386.27
363.27
342.55
323.784
306.708
291.101
276.782
263.596
251.413
240.123
229.629
219.851
210.718
202.167
194.144
186.602
179.499
172.798
166.466
160.472
154.792
149.4
144.277
139.402
134.758
130.329
126.102
122.062
118.199
114.5
110.957
107.559
104.298
101.167
98.1587
95.2655
92.4816
89.8014
87.2194
84.7307
82.3307
80.015
77.7797
75.6208
73.535
71.5189
69.5694
67.6835
65.8585
64.0919
62.3811
60.7239
59.1182
57.5618
56.0528
54.5893
53.1697
51.7922
50.4554
49.1575
47.8973
46.6734
45.4844
44.329
43.2062
42.1148
15713.1
6310.67
3602.39
2478.95
1875.23
1501.44
1248.15
1065.51
927.715
820.105
733.767
662.97
603.867
553.782
510.795
473.495
440.822
411.961
386.281
363.281
342.561
323.795
306.719
291.113
276.794
263.608
251.426
240.135
229.642
219.864
210.731
202.18
194.158
186.616
179.513
172.812
166.48
160.486
154.806
149.415
144.291
139.416
134.772
130.344
126.117
122.077
118.214
114.515
110.971
107.574
104.313
101.182
98.1734
95.2801
92.4962
89.8159
87.2339
84.7451
82.345
80.0293
77.7939
75.635
73.5491
71.5329
69.5833
67.6973
65.8722
64.1055
62.3946
60.7374
59.1315
57.575
56.0659
54.6023
53.1826
51.805
50.4679
49.17
47.9096
46.6855
45.4963
44.3408
43.2177
42.1261
15713.2
6310.73
3602.42
2478.97
1875.24
1501.44
1248.16
1065.52
927.723
820.114
733.776
662.979
603.877
553.792
510.805
473.506
440.832
411.972
386.292
363.292
342.572
323.807
306.731
291.125
276.806
263.62
251.438
240.148
229.655
219.877
210.744
202.193
194.171
186.63
179.527
172.826
166.494
160.501
154.82
149.429
144.306
139.431
134.787
130.359
126.131
122.092
118.228
114.53
110.986
107.588
104.328
101.197
98.1879
95.2946
92.5107
89.8303
87.2482
84.7594
82.3593
80.0435
77.808
75.649
73.5631
71.5468
69.5971
67.711
65.8859
64.119
62.4081
60.7507
59.1447
57.5881
56.0789
54.6152
53.1953
51.8176
50.4804
49.1823
47.9217
46.6975
45.5081
44.3524
43.2292
42.1374
15713.4
6310.81
3602.45
2478.99
1875.26
1501.45
1248.16
1065.53
927.732
820.124
733.786
662.989
603.887
553.802
510.816
473.516
440.843
411.983
386.303
363.303
342.583
323.818
306.742
291.136
276.818
263.632
251.45
240.16
229.667
219.89
210.757
202.206
194.184
186.643
179.54