/*--------------------------------*- C++ -*----------------------------------*\
  =========                 |
  \\      /  F ield         | OpenFOAM: The Open Source CFD Toolbox
   \\    /   O peration     | Website:  https://openfoam.org
    \\  /    A nd           | Version:  10
     \\/     M anipulation  |
\*---------------------------------------------------------------------------*/
FoamFile
{
    format      ascii;
    class       volScalarField;
    location    "8000";
    object      yPlus;
}
// * * * * * * * * * * * * * * * * * * * * * * * * * * * * * * * * * * * * * //

dimensions      [0 0 0 0 0 0 0];

internalField   uniform 0;

boundaryField
{
    right
    {
        type            cyclic;
    }
    left
    {
        type            cyclic;
    }
    outerWall
    {
        type            calculated;
        value           nonuniform List<scalar> 
200
(
29.3888
29.3885
29.3927
29.396
29.399
29.4019
29.4045
29.4068
29.4087
29.4103
29.4117
29.4129
29.4139
29.4148
29.4155
29.4162
29.4168
29.4174
29.4179
29.4184
29.4189
29.4194
29.4199
29.4204
29.4208
29.4213
29.4218
29.4223
29.4228
29.4233
29.4238
29.4244
29.4249
29.4255
29.426
29.4266
29.4272
29.4278
29.4284
29.4291
29.4297
29.4304
29.431
29.4317
29.4324
29.4331
29.4337
29.4344
29.4352
29.4359
29.4366
29.4373
29.438
29.4387
29.4394
29.4401
29.4408
29.4415
29.4422
29.4429
29.4435
29.4442
29.4448
29.4454
29.4459
29.4465
29.4469
29.4474
29.4478
29.4482
29.4485
29.4487
29.4489
29.449
29.4491
29.4477
29.4452
29.4424
29.4426
29.4431
29.3995
29.4063
29.4168
29.4261
29.4343
29.4419
29.4488
29.4549
29.4602
29.4648
29.4687
29.4721
29.475
29.4773
29.4793
29.4808
29.4819
29.4827
29.4832
29.4833
29.4831
29.4827
29.4819
29.4809
29.4795
29.4779
29.476
29.4738
29.4713
29.4685
29.4654
29.462
29.4581
29.4538
29.449
29.4436
29.4374
29.4299
29.4206
29.4055
29.4446
29.4474
29.4488
29.4476
29.446
29.4455
29.4457
29.4469
29.4482
29.4493
29.4499
29.4504
29.4506
29.4507
29.4507
29.4506
29.4505
29.4503
29.4501
29.4499
29.4497
29.4495
29.4492
29.449
29.4487
29.4484
29.4481
29.4479
29.4476
29.4473
29.447
29.4468
29.4465
29.4462
29.4459
29.4456
29.4454
29.4451
29.4448
29.4446
29.4443
29.444
29.4437
29.4435
29.4432
29.4429
29.4426
29.4424
29.4421
29.4418
29.4415
29.4412
29.4409
29.4406
29.4403
29.44
29.4396
29.4393
29.4389
29.4386
29.4382
29.4378
29.4374
29.437
29.4365
29.436
29.4355
29.435
29.4344
29.4338
29.4331
29.4323
29.4314
29.4303
29.4291
29.4275
29.4255
29.4227
29.4185
29.4085
)
;
    }
    stirrerWall
    {
        type            calculated;
        value           nonuniform List<scalar> 0();
    }
    top
    {
        type            empty;
    }
    bottom
    {
        type            empty;
    }
    procBoundary2to3
    {
        type            processor;
        value           uniform 0;
    }
}


// ************************************************************************* //
