/*--------------------------------*- C++ -*----------------------------------*\
  =========                 |
  \\      /  F ield         | OpenFOAM: The Open Source CFD Toolbox
   \\    /   O peration     | Website:  https://openfoam.org
    \\  /    A nd           | Version:  10
     \\/     M anipulation  |
\*---------------------------------------------------------------------------*/
FoamFile
{
    format      ascii;
    class       volScalarField;
    location    "13000";
    object      yPlus;
}
// * * * * * * * * * * * * * * * * * * * * * * * * * * * * * * * * * * * * * //

dimensions      [0 0 0 0 0 0 0];

internalField   uniform 0;

boundaryField
{
    right
    {
        type            cyclic;
    }
    left
    {
        type            cyclic;
    }
    outerWall
    {
        type            calculated;
        value           nonuniform List<scalar> 0();
    }
    stirrerWall
    {
        type            calculated;
        value           nonuniform List<scalar> 
98
(
0.0579727
0.0585691
0.0593201
0.0606722
0.0624331
0.0647195
0.0675952
0.0713325
0.0761779
0.0821481
0.0895485
0.0992479
0.111592
0.127497
0.148726
0.179205
0.229069
0.321897
0.529763
1.13179
7.76318
6.1795
5.04606
4.26113
3.73162
3.37976
3.14442
2.97982
2.85789
2.76191
2.68253
2.6146
2.55505
2.50194
2.45399
2.41033
2.37032
2.33348
2.29942
2.26783
2.23846
2.21109
2.18552
2.1616
2.13918
2.11813
2.09833
2.07966
2.06202
2.04527
2.02925
2.01378
1.99855
1.9831
1.96665
1.94767
1.92461
1.8964
1.85041
1.71455
4.30899
4.47029
4.6359
4.80302
4.97189
5.14267
5.31549
5.49048
5.6678
5.84764
6.03031
6.21634
6.40657
6.60164
6.80125
7.00614
7.21698
7.43457
7.65977
7.8936
8.13723
8.39194
8.6591
8.94024
9.23717
9.55158
9.88485
10.2373
10.6061
10.9775
11.307
11.4437
11.738
12.2303
12.842
13.543
14.3877
15.6791
)
;
    }
    top
    {
        type            empty;
    }
    bottom
    {
        type            empty;
    }
    procBoundary0to1
    {
        type            processor;
        value           uniform 0;
    }
    procBoundary0to3
    {
        type            processor;
        value           uniform 0;
    }
}


// ************************************************************************* //
