/*--------------------------------*- C++ -*----------------------------------*\
  =========                 |
  \\      /  F ield         | OpenFOAM: The Open Source CFD Toolbox
   \\    /   O peration     | Website:  https://openfoam.org
    \\  /    A nd           | Version:  10
     \\/     M anipulation  |
\*---------------------------------------------------------------------------*/
FoamFile
{
    format      ascii;
    class       volScalarField;
    location    "62000";
    object      p;
}
// * * * * * * * * * * * * * * * * * * * * * * * * * * * * * * * * * * * * * //

dimensions      [0 2 -2 0 0 0 0];

internalField   nonuniform List<scalar> 
17808
(
9.07264
9.10785
9.12936
9.14084
9.14966
9.15493
9.15792
9.15905
9.15873
9.15724
9.15476
9.15145
9.1474
9.14271
9.13744
9.13162
9.12531
9.11853
9.11131
9.10366
9.09559
9.08713
9.07828
9.06904
9.05943
9.04944
9.03908
9.02836
9.01726
9.0058
8.99398
8.98178
8.96922
8.95629
8.94298
8.9293
8.91524
8.90079
8.88596
8.87074
8.85513
8.83912
8.8227
8.80588
8.78864
8.77098
8.7529
8.73439
8.71544
8.69605
8.67621
8.65592
8.63516
8.61393
8.59223
8.57004
8.54736
8.52419
8.5005
8.47631
8.45159
8.42634
8.40054
8.37421
8.34731
8.31985
8.29181
8.26319
8.23398
8.20416
8.17373
8.14267
8.11098
8.07865
8.04567
8.01201
7.97769
7.94267
7.90696
7.87054
7.8334
7.79553
7.75691
7.71754
7.6774
7.63648
7.59477
7.55225
7.50892
7.46475
7.41974
7.37387
9.16264
9.16942
9.16506
9.16357
9.16404
9.16375
9.16312
9.16187
9.15998
9.15743
9.15425
9.15046
9.1461
9.14119
9.13577
9.12987
9.12351
9.1167
9.10947
9.10183
9.09379
9.08535
9.07653
9.06734
9.05777
9.04783
9.03752
9.02684
9.0158
9.00439
8.99262
8.98047
8.96796
8.95508
8.94182
8.92819
8.91417
8.89977
8.88499
8.86981
8.85424
8.83827
8.82189
8.8051
8.7879
8.77028
8.75223
8.73376
8.71484
8.69548
8.67567
8.6554
8.63467
8.61347
8.59179
8.56963
8.54698
8.52382
8.50016
8.47598
8.45128
8.42605
8.40028
8.37395
8.34707
8.31963
8.2916
8.263
8.2338
8.20399
8.17357
8.14252
8.11085
8.07852
8.04555
8.01191
7.97759
7.94258
7.90688
7.87047
7.83333
7.79547
7.75686
7.71749
7.67736
7.63644
7.59473
7.55222
7.50889
7.46473
7.41972
7.37386
9.20646
9.20559
9.19707
9.19253
9.18796
9.18302
9.17839
9.17378
9.16914
9.16438
9.15944
9.15425
9.14879
9.14303
9.13695
9.13052
9.12376
9.11664
9.10916
9.10133
9.09315
9.08461
9.07571
9.06645
9.05684
9.04687
9.03655
9.02587
9.01483
9.00343
8.99166
8.97954
8.96704
8.95418
8.94094
8.92733
8.91334
8.89897
8.88421
8.86906
8.85352
8.83757
8.82122
8.80446
8.78729
8.76969
8.75167
8.73322
8.71433
8.69499
8.6752
8.65496
8.63425
8.61307
8.59141
8.56927
8.54663
8.52349
8.49985
8.47569
8.451
8.42578
8.40002
8.37372
8.34685
8.31941
8.2914
8.26281
8.23361
8.20382
8.17341
8.14237
8.1107
8.07839
8.04542
8.01178
7.97747
7.94247
7.90677
7.87036
7.83323
7.79537
7.75676
7.7174
7.67727
7.63636
7.59465
7.55214
7.50882
7.46466
7.41965
7.37379
9.20887
9.20777
9.20233
9.1996
9.19535
9.19066
9.18585
9.18077
9.17548
9.16999
9.16429
9.15838
9.15224
9.14586
9.13923
9.13233
9.12515
9.11767
9.10989
9.10181
9.09341
9.08469
9.07564
9.06626
9.05655
9.0465
9.03611
9.02537
9.01429
9.00286
8.99107
8.97893
8.96643
8.95356
8.94032
8.92671
8.91273
8.89837
8.88362
8.86848
8.85295
8.83702
8.82068
8.80394
8.78678
8.7692
8.7512
8.73276
8.71389
8.69457
8.6748
8.65457
8.63388
8.61271
8.59107
8.56894
8.54632
8.5232
8.49956
8.47542
8.45074
8.42554
8.39979
8.37349
8.34663
8.31921
8.29121
8.26262
8.23343
8.20365
8.17324
8.14221
8.11055
8.07824
8.04528
8.01165
7.97734
7.94234
7.90665
7.87024
7.83312
7.79526
7.75666
7.71729
7.67717
7.63626
7.59455
7.55204
7.50872
7.46456
7.41955
7.37369
9.21047
9.20877
9.20426
9.20153
9.19731
9.193
9.18842
9.18349
9.17827
9.17277
9.16698
9.16092
9.15459
9.14799
9.14112
9.13397
9.12655
9.11885
9.11086
9.10257
9.09399
9.0851
9.07591
9.06641
9.05658
9.04643
9.03596
9.02515
9.01401
9.00253
8.9907
8.97852
8.96599
8.9531
8.93985
8.92623
8.91224
8.89787
8.88312
8.86799
8.85246
8.83654
8.82021
8.80348
8.78633
8.76876
8.75077
8.73234
8.71348
8.69418
8.67442
8.65421
8.63353
8.61238
8.59075
8.56863
8.54602
8.52291
8.49929
8.47516
8.45049
8.4253
8.39956
8.37328
8.34643
8.31901
8.29102
8.26244
8.23327
8.20348
8.17309
8.14207
8.11041
8.07811
8.04515
8.01152
7.97722
7.94223
7.90654
7.87014
7.83302
7.79516
7.75656
7.7172
7.67708
7.63617
7.59447
7.55196
7.50863
7.46447
7.41947
7.37361
9.21623
9.21398
9.20959
9.20624
9.20164
9.19703
9.19209
9.18686
9.18137
9.17562
9.1696
9.16333
9.15679
9.14999
9.14293
9.13559
9.12798
9.1201
9.11194
9.10349
9.09476
9.08573
9.07641
9.06679
9.05685
9.04661
9.03605
9.02516
9.01395
9.00241
8.99052
8.9783
8.96573
8.95281
8.93953
8.92589
8.91188
8.8975
8.88274
8.8676
8.85207
8.83614
8.81982
8.80309
8.78594
8.76838
8.75039
8.73198
8.71312
8.69383
8.67408
8.65388
8.63321
8.61207
8.59045
8.56834
8.54575
8.52265
8.49904
8.47491
8.45026
8.42508
8.39935
8.37307
8.34623
8.31883
8.29084
8.26227
8.2331
8.20333
8.17294
8.14193
8.11027
8.07798
8.04502
8.0114
7.97711
7.94212
7.90644
7.87004
7.83292
7.79507
7.75647
7.71712
7.67699
7.63609
7.59439
7.55188
7.50856
7.4644
7.4194
7.37354
9.22104
9.21848
9.2143
9.21065
9.20593
9.20113
9.19594
9.19047
9.18473
9.17872
9.17246
9.16595
9.15918
9.15217
9.14489
9.13736
9.12957
9.12152
9.11319
9.1046
9.09572
9.08656
9.07711
9.06737
9.05733
9.04699
9.03634
9.02537
9.01409
9.00248
8.99054
8.97826
8.96564
8.95268
8.93937
8.92569
8.91166
8.89726
8.88248
8.86732
8.85178
8.83584
8.81951
8.80278
8.78563
8.76807
8.75008
8.73167
8.71282
8.69353
8.67378
8.65358
8.63292
8.61179
8.59018
8.56808
8.54549
8.5224
8.4988
8.47468
8.45004
8.42487
8.39915
8.37288
8.34605
8.31865
8.29067
8.26211
8.23295
8.20318
8.1728
8.14179
8.11014
8.07785
8.04491
8.01129
7.977
7.94202
7.90633
7.86994
7.83283
7.79498
7.75638
7.71703
7.67691
7.63601
7.59431
7.5518
7.50848
7.46432
7.41932
7.37346
9.22399
9.22122
9.21724
9.21346
9.20877
9.20392
9.19868
9.19314
9.18731
9.1812
9.17482
9.16819
9.16129
9.15414
9.14673
9.13906
9.13113
9.12294
9.11448
9.10576
9.09676
9.08749
9.07793
9.06808
9.05795
9.04751
9.03678
9.02573
9.01437
9.00269
8.99069
8.97836
8.96569
8.95269
8.93933
8.92562
8.91156
8.89712
8.88232
8.86714
8.85158
8.83563
8.81929
8.80254
8.78539
8.76782
8.74983
8.73142
8.71256
8.69327
8.67353
8.65334
8.63268
8.61155
8.58994
8.56785
8.54527
8.52218
8.49859
8.47448
8.44984
8.42467
8.39896
8.3727
8.34587
8.31848
8.29051
8.26195
8.2328
8.20304
8.17266
8.14166
8.11002
8.07773
8.04479
8.01118
7.97689
7.94191
7.90624
7.86985
7.83274
7.79489
7.7563
7.71695
7.67683
7.63593
7.59423
7.55173
7.50841
7.46425
7.41925
7.3734
9.22625
9.22331
9.21949
9.21559
9.21092
9.20604
9.20076
9.19518
9.18931
9.18315
9.17671
9.17001
9.16304
9.15581
9.14831
9.14056
9.13254
9.12425
9.1157
9.10689
9.0978
9.08843
9.07878
9.06885
9.05863
9.04812
9.0373
9.02619
9.01476
9.00302
8.99096
8.97857
8.96586
8.9528
8.9394
8.92566
8.91155
8.89709
8.88226
8.86706
8.85147
8.83551
8.81914
8.80238
8.78522
8.76764
8.74964
8.73122
8.71236
8.69307
8.67333
8.65313
8.63247
8.61134
8.58974
8.56765
8.54507
8.52199
8.4984
8.47429
8.44966
8.4245
8.39879
8.37253
8.34572
8.31833
8.29036
8.26181
8.23266
8.20291
8.17254
8.14154
8.1099
8.07762
8.04468
8.01108
7.97679
7.94182
7.90614
7.86976
7.83265
7.79481
7.75622
7.71687
7.67676
7.63586
7.59416
7.55166
7.50834
7.46419
7.41919
7.37333
9.22831
9.22525
9.22153
9.21753
9.21288
9.20795
9.20264
9.19702
9.1911
9.18489
9.1784
9.17163
9.1646
9.15731
9.14975
9.14192
9.13383
9.12548
9.11685
9.10796
9.0988
9.08936
9.07964
9.06964
9.05935
9.04876
9.03789
9.02671
9.01522
9.00342
8.99131
8.97887
8.9661
8.953
8.93956
8.92578
8.91164
8.89714
8.88228
8.86705
8.85144
8.83545
8.81907
8.80229
8.78511
8.76752
8.74951
8.73108
8.71222
8.69291
8.67317
8.65297
8.6323
8.61118
8.58957
8.56748
8.5449
8.52182
8.49824
8.47413
8.4495
8.42434
8.39864
8.37239
8.34557
8.31819
8.29023
8.26168
8.23254
8.20279
8.17242
8.14142
8.10979
8.07752
8.04458
8.01098
7.9767
7.94173
7.90606
7.86968
7.83257
7.79473
7.75614
7.7168
7.67669
7.63579
7.5941
7.5516
7.50828
7.46413
7.41913
7.37327
9.23012
9.22696
9.22332
9.21925
9.2146
9.20964
9.2043
9.19865
9.19269
9.18644
9.17991
9.1731
9.16602
9.15867
9.15106
9.14318
9.13503
9.12662
9.11794
9.10899
9.09976
9.09026
9.08048
9.07042
9.06007
9.04943
9.0385
9.02726
9.01572
9.00387
8.99171
8.97922
8.96641
8.95327
8.93979
8.92597
8.91179
8.89726
8.88237
8.86711
8.85148
8.83546
8.81906
8.80226
8.78506
8.76746
8.74944
8.73099
8.71212
8.69281
8.67305
8.65284
8.63218
8.61104
8.58944
8.56735
8.54476
8.52168
8.4981
8.47399
8.44937
8.42421
8.39851
8.37226
8.34544
8.31807
8.29011
8.26156
8.23242
8.20268
8.17231
8.14132
8.10969
8.07742
8.04449
8.01089
7.97661
7.94165
7.90598
7.8696
7.8325
7.79466
7.75607
7.71673
7.67662
7.63573
7.59404
7.55154
7.50822
7.46407
7.41907
7.37322
9.23162
9.22839
9.22482
9.2207
9.21605
9.21107
9.20572
9.20005
9.19407
9.18779
9.18123
9.17439
9.16728
9.15989
9.15224
9.14432
9.13613
9.12767
9.11895
9.10995
9.10068
9.09113
9.0813
9.07119
9.06079
9.0501
9.03912
9.02784
9.01625
9.00436
8.99215
8.97962
8.96677
8.95359
8.94007
8.92621
8.912
8.89744
8.88252
8.86723
8.85157
8.83553
8.81911
8.80229
8.78507
8.76745
8.74941
8.73095
8.71206
8.69274
8.67298
8.65276
8.63209
8.61095
8.58934
8.56724
8.54466
8.52157
8.49799
8.47388
8.44925
8.4241
8.39839
8.37214
8.34534
8.31796
8.29
8.26146
8.23232
8.20258
8.17222
8.14123
8.1096
8.07733
8.0444
8.01081
7.97653
7.94157
7.9059
7.86953
7.83243
7.79459
7.75601
7.71667
7.67656
7.63567
7.59398
7.55148
7.50817
7.46402
7.41902
7.37316
9.23293
9.22963
9.22612
9.22195
9.21732
9.21232
9.20696
9.20127
9.19527
9.18898
9.18239
9.17553
9.16839
9.16098
9.1533
9.14535
9.13713
9.12864
9.11988
9.11084
9.10153
9.09194
9.08208
9.07193
9.06149
9.05076
9.03974
9.02842
9.01679
9.00486
8.99261
8.98005
8.96716
8.95394
8.94039
8.9265
8.91226
8.89767
8.88272
8.8674
8.85171
8.83565
8.8192
8.80236
8.78513
8.76748
8.74943
8.73096
8.71206
8.69272
8.67294
8.65272
8.63204
8.61089
8.58927
8.56717
8.54458
8.52149
8.4979
8.47379
8.44917
8.424
8.3983
8.37205
8.34524
8.31787
8.28991
8.26137
8.23223
8.20249
8.17213
8.14115
8.10952
8.07725
8.04433
8.01073
7.97646
7.9415
7.90584
7.86946
7.83236
7.79453
7.75595
7.71661
7.6765
7.63561
7.59393
7.55143
7.50812
7.46397
7.41897
7.37312
9.23408
9.23074
9.22726
9.22307
9.21844
9.21343
9.20805
9.20235
9.19634
9.19003
9.18344
9.17656
9.1694
9.16197
9.15426
9.14629
9.13804
9.12952
9.12073
9.11167
9.10233
9.09271
9.08281
9.07263
9.06216
9.0514
9.04034
9.02899
9.01733
9.00536
8.99308
8.98049
8.96757
8.95432
8.94073
8.92681
8.91254
8.89792
8.88295
8.86761
8.8519
8.83581
8.81934
8.80248
8.78522
8.76756
8.74949
8.731
8.71208
8.69274
8.67295
8.65271
8.63202
8.61086
8.58924
8.56713
8.54453
8.52144
8.49784
8.47373
8.4491
8.42394
8.39823
8.37198
8.34517
8.31779
8.28984
8.2613
8.23216
8.20242
8.17206
8.14107
8.10945
8.07719
8.04426
8.01067
7.9764
7.94144
7.90578
7.8694
7.83231
7.79448
7.7559
7.71656
7.67646
7.63557
7.59388
7.55139
7.50808
7.46393
7.41893
7.37307
9.23511
9.23173
9.22828
9.22406
9.21944
9.21442
9.20904
9.20333
9.19731
9.19099
9.18438
9.17748
9.17031
9.16286
9.15514
9.14714
9.13888
9.13034
9.12153
9.11244
9.10308
9.09343
9.08351
9.0733
9.0628
9.05201
9.04093
9.02955
9.01786
9.00587
8.99356
8.98093
8.96798
8.95471
8.9411
8.92715
8.91285
8.89821
8.88321
8.86784
8.85211
8.836
8.81951
8.80263
8.78535
8.76767
8.74959
8.73108
8.71215
8.69279
8.67299
8.65274
8.63203
8.61087
8.58923
8.56711
8.54451
8.52141
8.49781
8.47369
8.44906
8.42389
8.39818
8.37193
8.34512
8.31774
8.28978
8.26124
8.2321
8.20236
8.172
8.14102
8.1094
8.07713
8.04421
8.01061
7.97634
7.94139
7.90573
7.86935
7.83226
7.79443
7.75585
7.71652
7.67641
7.63552
7.59384
7.55135
7.50804
7.46389
7.41889
7.37304
9.23602
9.23262
9.22919
9.22495
9.22033
9.2153
9.20992
9.2042
9.19817
9.19184
9.18522
9.17832
9.17113
9.16367
9.15594
9.14793
9.13964
9.13109
9.12226
9.11315
9.10377
9.09411
9.08416
9.07393
9.06341
9.0526
9.0415
9.03009
9.01838
9.00636
8.99403
8.98138
8.9684
8.9551
8.94147
8.9275
8.91318
8.89851
8.88349
8.8681
8.85235
8.83622
8.81971
8.80281
8.78551
8.76782
8.74971
8.73119
8.71224
8.69287
8.67305
8.65279
8.63208
8.6109
8.58925
8.56713
8.54452
8.52141
8.4978
8.47368
8.44904
8.42387
8.39815
8.3719
8.34508
8.3177
8.28974
8.2612
8.23206
8.20232
8.17196
8.14097
8.10935
8.07708
8.04416
8.01057
7.9763
7.94134
7.90568
7.86931
7.83222
7.79439
7.75581
7.71648
7.67637
7.63549
7.59381
7.55132
7.508
7.46386
7.41886
7.373
9.23685
9.23342
9.23001
9.22576
9.22114
9.21611
9.21072
9.205
9.19896
9.19262
9.186
9.17908
9.17189
9.16441
9.15667
9.14865
9.14035
9.13178
9.12294
9.11382
9.10442
9.09474
9.08478
9.07453
9.06399
9.05316
9.04204
9.03061
9.01888
9.00684
8.99449
8.98182
8.96882
8.9555
8.94185
8.92785
8.91352
8.89883
8.88378
8.86838
8.8526
8.83646
8.81993
8.80301
8.7857
8.76798
8.74986
8.73133
8.71237
8.69298
8.67315
8.65287
8.63215
8.61096
8.5893
8.56717
8.54455
8.52143
8.49782
8.47369
8.44904
8.42386
8.39815
8.37188
8.34506
8.31768
8.28972
8.26117
8.23203
8.20229
8.17192
8.14094
8.10932
8.07705
8.04413
8.01053
7.97627
7.94131
7.90565
7.86928
7.83218
7.79435
7.75578
7.71645
7.67634
7.63546
7.59377
7.55128
9.23759
9.23415
9.23076
9.2265
9.22187
9.21684
9.21144
9.20572
9.19968
9.19334
9.1867
9.17978
9.17258
9.1651
9.15734
9.14931
9.14101
9.13243
9.12357
9.11444
9.10503
9.09533
9.08536
9.07509
9.06454
9.0537
9.04255
9.03111
9.01936
9.00731
8.99494
8.98225
8.96924
8.9559
8.94222
8.92821
8.91386
8.89915
8.88409
8.86867
8.85287
8.83671
8.82016
8.80323
8.7859
8.76817
8.75004
8.73148
8.71251
8.69311
8.67327
8.65298
8.63224
8.61104
8.58938
8.56723
8.5446
8.52148
8.49785
8.47372
8.44906
8.42388
8.39816
8.37189
8.34507
8.31768
8.28971
8.26116
8.23202
8.20227
8.17191
8.14092
8.1093
8.07703
8.0441
8.01051
7.97624
7.94128
7.90562
7.86925
7.83216
7.79433
7.75575
7.71642
7.67632
7.63543
7.59375
7.55125
9.23828
9.23483
9.23143
9.22717
9.22254
9.2175
9.21211
9.20638
9.20034
9.19399
9.18735
9.18042
9.17321
9.16573
9.15796
9.14993
9.14161
9.13302
9.12416
9.11502
9.10559
9.09589
9.0859
9.07563
9.06506
9.0542
9.04305
9.03159
9.01983
9.00776
8.99537
8.98267
8.96964
8.95629
8.9426
8.92857
8.9142
8.89948
8.8844
8.86896
8.85315
8.83697
8.82041
8.80346
8.78612
8.76838
8.75023
8.73166
8.71267
8.69326
8.6734
8.65311
8.63236
8.61115
8.58947
8.56732
8.54468
8.52154
8.49791
8.47377
8.44911
8.42391
8.39819
8.37191
8.34508
8.31769
8.28972
8.26117
8.23202
8.20227
8.1719
8.14091
8.10929
8.07702
8.04409
8.0105
7.97623
7.94127
7.90561
7.86923
7.83214
7.79431
7.75574
7.7164
7.6763
7.63541
7.59373
7.55123
9.23891
9.23545
9.23206
9.22779
9.22316
9.21812
9.21272
9.20699
9.20094
9.19459
9.18795
9.18102
9.1738
9.16631
9.15854
9.1505
9.14218
9.13358
9.12471
9.11556
9.10613
9.09641
9.08642
9.07613
9.06556
9.05469
9.04352
9.03205
9.02028
9.00819
8.9958
8.98308
8.97004
8.95667
8.94297
8.92893
8.91454
8.89981
8.88471
8.86926
8.85344
8.83725
8.82067
8.80371
8.78635
8.76859
8.75043
8.73185
8.71285
8.69342
8.67356
8.65325
8.63249
8.61127
8.58958
8.56742
8.54477
8.52163
8.49799
8.47384
8.44917
8.42397
8.39823
8.37195
8.34512
8.31772
8.28975
8.26119
8.23204
8.20228
8.17191
8.14092
8.10929
8.07702
8.04409
8.01049
7.97622
7.94126
7.9056
7.86923
7.83213
7.7943
7.75572
7.71639
7.67629
9.23949
9.23602
9.23263
9.22836
9.22374
9.21869
9.21329
9.20756
9.20151
9.19515
9.1885
9.18157
9.17435
9.16685
9.15908
9.15103
9.1427
9.1341
9.12522
9.11607
9.10663
9.09691
9.0869
9.07661
9.06602
9.05515
9.04397
9.03249
9.02071
9.00861
8.9962
8.98348
8.97042
8.95704
8.94333
8.92928
8.91488
8.90013
8.88503
8.86956
8.85373
8.83752
8.82093
8.80396
8.78659
8.76882
8.75065
8.73206
8.71305
8.69361
8.67373
8.65341
8.63264
8.61141
8.58971
8.56754
8.54488
8.52173
8.49808
8.47392
8.44924
8.42404
8.3983
8.37201
8.34517
8.31777
8.28979
8.26122
8.23207
8.20231
8.17194
8.14094
8.10931
8.07703
8.0441
8.0105
7.97623
7.94127
7.9056
7.86923
7.83213
7.7943
7.75572
7.71638
7.67627
9.24002
9.23655
9.23317
9.2289
9.22427
9.21922
9.21382
9.20808
9.20203
9.19567
9.18902
9.18208
9.17486
9.16736
9.15958
9.15153
9.1432
9.13459
9.12571
9.11654
9.1071
9.09737
9.08736
9.07706
9.06647
9.05558
9.0444
9.03291
9.02112
9.00902
8.9966
8.98386
8.9708
8.95741
8.94369
8.92962
8.91521
8.90046
8.88534
8.86986
8.85402
8.8378
8.8212
8.80422
8.78684
8.76906
8.75087
8.73227
8.71325
8.6938
8.67391
8.65358
8.6328
8.61156
8.58985
8.56767
8.545
8.52185
8.49819
8.47402
8.44934
8.42412
8.39838
8.37208
8.34524
8.31783
8.28984
8.26127
8.23211
8.20235
8.17197
8.14097
8.10934
8.07706
8.04412
8.01052
7.97625
7.94128
7.90561
7.86924
7.83214
7.79431
7.75573
7.71639
7.67628
9.24052
9.23705
9.23366
9.22939
9.22476
9.21972
9.21431
9.20857
9.20252
9.19616
9.18951
9.18257
9.17534
9.16784
9.16006
9.152
9.14366
9.13505
9.12616
9.117
9.10755
9.09781
9.0878
9.07749
9.06689
9.056
9.04481
9.03331
9.02151
9.0094
8.99698
8.98423
8.97116
8.95776
8.94403
8.92996
8.91554
8.90077
8.88565
8.87016
8.85431
8.83808
8.82147
8.80448
8.78709
8.7693
8.7511
8.73249
8.71346
8.694
8.6741
8.65376
8.63297
8.61172
8.59001
8.56782
8.54514
8.52198
8.49831
8.47413
8.44944
8.42422
8.39847
8.37217
8.34532
8.3179
8.28991
8.26134
8.23217
8.2024
8.17202
8.14102
8.10938
8.07709
8.04416
8.01055
7.97627
7.9413
7.90564
7.86926
7.83216
7.79432
7.75574
7.7164
7.67629
9.24099
9.23752
9.23413
9.22986
9.22523
9.22018
9.21477
9.20903
9.20298
9.19662
9.18996
9.18302
9.17579
9.16829
9.1605
9.15244
9.1441
9.13549
9.12659
9.11742
9.10797
9.09823
9.08821
9.0779
9.06729
9.0564
9.0452
9.0337
9.02189
9.00978
8.99734
8.98459
8.97152
8.95811
8.94437
8.93029
8.91586
8.90109
8.88595
8.87046
8.8546
8.83836
8.82174
8.80474
8.78734
8.76954
8.75134
8.73272
8.71368
8.69421
8.6743
8.65395
8.63315
8.6119
8.59017
8.56797
8.54529
8.52212
8.49844
8.47426
8.44956
8.42433
8.39857
8.37227
8.34541
8.31798
8.28999
8.26141
8.23224
8.20247
8.17208
8.14107
8.10943
8.07714
8.0442
8.01059
7.97631
7.94134
7.90567
7.86929
7.83218
7.79435
7.75576
7.71642
7.67631
9.24143
9.23796
9.23457
9.2303
9.22567
9.22062
9.21521
9.20947
9.20341
9.19705
9.19039
9.18345
9.17622
9.16871
9.16092
9.15286
9.14452
9.1359
9.127
9.11783
9.10837
9.09863
9.0886
9.07829
9.06768
9.05678
9.04557
9.03407
9.02226
9.01014
8.9977
8.98494
8.97186
8.95844
8.9447
8.93061
8.91618
8.90139
8.88625
8.87075
8.85488
8.83864
8.82201
8.805
8.78759
8.76979
8.75157
8.73295
8.7139
8.69442
8.67451
8.65415
8.63334
8.61208
8.59035
8.56814
8.54545
8.52227
8.49859
8.4744
8.44969
8.42446
8.39869
8.37238
8.34551
8.31808
8.29008
8.2615
8.23232
8.20254
8.17215
8.14114
8.10949
8.0772
8.04426
8.01065
7.97636
7.94138
7.90571
7.86933
7.83222
7.79438
7.7558
7.71645
7.67634
9.24185
9.23838
9.23498
9.23071
9.22608
9.22103
9.21562
9.20988
9.20382
9.19746
9.1908
9.18385
9.17662
9.16911
9.16132
9.15326
9.14491
9.13629
9.12739
9.11821
9.10875
9.09901
9.08898
9.07866
9.06805
9.05714
9.04593
9.03443
9.02261
9.01048
8.99804
8.98528
8.97219
8.95877
8.94502
8.93092
8.91648
8.9017
8.88655
8.87104
8.85516
8.83891
8.82228
8.80526
8.78785
8.77003
8.75181
8.73318
8.71412
8.69464
8.67472
8.65435
8.63354
8.61227
8.59053
8.56831
8.54561
8.52243
8.49874
8.47454
8.44983
8.42459
8.39881
8.3725
8.34562
8.31819
8.29018
8.26159
8.23241
8.20263
8.17223
8.14122
8.10957
8.07727
8.04432
8.01071
7.97642
7.94144
7.90576
7.86938
7.83227
7.79442
7.75584
7.71649
7.67638
9.24224
9.23878
9.23537
9.23111
9.22647
9.22142
9.21601
9.21027
9.20421
9.19784
9.19118
9.18424
9.177
9.16949
9.1617
9.15363
9.14529
9.13666
9.12776
9.11858
9.10912
9.09937
9.08934
9.07902
9.0684
9.05749
9.04628
9.03477
9.02295
9.01082
8.99837
8.9856
8.97251
8.95908
8.94533
8.93123
8.91678
8.90199
8.88684
8.87132
8.85544
8.83918
8.82254
8.80552
8.7881
8.77028
8.75205
8.73341
8.71435
8.69486
8.67493
8.65456
8.63374
8.61246
8.59071
8.56849
8.54579
8.52259
8.4989
8.47469
8.44997
8.42473
8.39895
8.37263
8.34575
8.31831
8.2903
8.2617
8.23251
8.20273
8.17233
8.1413
8.10965
8.07735
8.0444
8.01078
7.97648
7.9415
7.90582
7.86943
7.83232
7.79448
7.75589
7.71654
7.67642
9.24262
9.23915
9.23574
9.23148
9.22684
9.22179
9.21638
9.21064
9.20458
9.19821
9.19155
9.1846
9.17737
9.16985
9.16206
9.15399
9.14564
9.13702
9.12812
9.11893
9.10947
9.09972
9.08968
9.07936
9.06874
9.05783
9.04661
9.0351
9.02327
9.01114
8.99869
8.98591
8.97282
8.95939
8.94563
8.93152
8.91708
8.90228
8.88712
8.8716
8.85571
8.83945
8.82281
8.80577
8.78835
8.77052
8.75229
8.73364
8.71457
8.69508
8.67514
8.65477
8.63394
8.61265
8.5909
8.56867
8.54596
8.52276
8.49906
8.47485
8.45013
8.42488
8.39909
8.37276
8.34588
8.31843
8.29042
8.26182
8.23262
8.20283
8.17243
8.1414
8.10974
8.07744
8.04448
8.01086
7.97656
7.94157
7.90589
7.8695
7.83238
7.79453
7.75594
7.71659
7.67647
9.24297
9.23951
9.2361
9.23184
9.2272
9.22215
9.21674
9.21099
9.20493
9.19856
9.1919
9.18495
9.17772
9.1702
9.16241
9.15434
9.14599
9.13736
9.12845
9.11927
9.1098
9.10005
9.09001
9.07969
9.06906
9.05815
9.04693
9.03541
9.02359
9.01145
8.99899
8.98622
8.97312
8.95969
8.94592
8.93181
8.91736
8.90256
8.8874
8.87187
8.85598
8.83971
8.82306
8.80603
8.7886
8.77077
8.75253
8.73388
8.7148
8.6953
8.67536
8.65498
8.63415
8.61285
8.5911
8.56886
8.54615
8.52294
8.49923
8.47502
8.45029
8.42503
8.39924
8.37291
8.34602
8.31857
8.29054
8.26194
8.23274
8.20294
8.17253
8.1415
8.10984
8.07753
8.04457
8.01094
7.97664
7.94165
7.90597
7.86957
7.83245
7.7946
7.75601
7.71665
7.67653
9.24332
9.23985
9.23644
9.23218
9.22754
9.22249
9.21707
9.21133
9.20527
9.1989
9.19224
9.18528
9.17805
9.17053
9.16274
9.15466
9.14631
9.13769
9.12878
9.11959
9.11012
9.10037
9.09033
9.08
9.06938
9.05846
9.04724
9.03572
9.02389
9.01175
8.99929
8.98651
8.97341
8.95997
8.94621
8.9321
8.91764
8.90283
8.88767
8.87214
8.85624
8.83997
8.82332
8.80628
8.78884
8.77101
8.75276
8.73411
8.71503
8.69552
8.67558
8.65519
8.63435
8.61305
8.59129
8.56905
8.54633
8.52312
8.49941
8.47519
8.45045
8.42519
8.39939
8.37305
8.34616
8.31871
8.29068
8.26207
8.23287
8.20306
8.17265
8.14161
8.10995
8.07763
8.04467
8.01104
7.97673
7.94174
7.90605
7.86965
7.83253
7.79467
7.75608
7.71672
7.67659
9.24364
9.24018
9.23676
9.2325
9.22786
9.22281
9.2174
9.21165
9.20559
9.19922
9.19256
9.1856
9.17837
9.17085
9.16305
9.15498
9.14663
9.138
9.12909
9.1199
9.11043
9.10068
9.09064
9.0803
9.06968
9.05876
9.04754
9.03601
9.02418
9.01204
8.99958
8.9868
8.97369
8.96025
8.94648
8.93237
8.91791
8.9031
8.88793
8.8724
8.8565
8.84022
8.82357
8.80652
8.78908
8.77124
8.753
8.73434
8.71525
8.69574
8.67579
8.6554
8.63456
8.61326
8.59149
8.56925
8.54652
8.5233
8.49959
8.47536
8.45062
8.42535
8.39955
8.37321
8.34631
8.31885
8.29082
8.2622
8.233
8.20319
8.17277
8.14173
8.11006
8.07774
8.04477
8.01114
7.97683
7.94183
7.90614
7.86974
7.83261
7.79476
7.75615
7.71679
7.67667
9.24395
9.2405
9.23707
9.23282
9.22817
9.22312
9.21771
9.21196
9.2059
9.19953
9.19286
9.18591
9.17867
9.17116
9.16336
9.15528
9.14693
9.1383
9.12939
9.1202
9.11073
9.10097
9.09093
9.0806
9.06997
9.05905
9.04783
9.0363
9.02447
9.01232
8.99986
8.98707
8.97397
8.96053
8.94675
8.93264
8.91817
8.90336
8.88819
8.87265
8.85675
8.84047
8.82381
8.80676
8.78932
8.77148
8.75323
8.73456
8.71547
8.69596
8.67601
8.65561
8.63476
8.61346
8.59169
8.56944
8.54671
8.52349
8.49977
8.47554
8.45079
8.42552
8.39972
8.37337
8.34646
8.319
8.29096
8.26234
8.23313
8.20332
8.1729
8.14185
8.11018
8.07786
8.04489
8.01125
7.97693
7.94193
7.90624
7.86983
7.8327
7.79484
7.75624
7.71687
7.67674
9.24425
9.2408
9.23737
9.23312
9.22847
9.22342
9.21801
9.21226
9.2062
9.19983
9.19316
9.18621
9.17897
9.17145
9.16365
9.15558
9.14722
9.13859
9.12968
9.12049
9.11102
9.10126
9.09121
9.08088
9.07025
9.05933
9.0481
9.03658
9.02474
9.01259
9.00013
8.98734
8.97423
8.96079
8.94701
8.93289
8.91843
8.90361
8.88844
8.8729
8.857
8.84071
8.82405
8.807
8.78955
8.77171
8.75345
8.73479
8.71569
8.69618
8.67622
8.65582
8.63497
8.61366
8.59188
8.56963
8.5469
8.52367
8.49995
8.47572
8.45097
8.42569
8.39988
8.37353
8.34662
8.31915
8.29111
8.26249
8.23327
8.20346
8.17303
8.14198
8.1103
8.07798
8.045
8.01136
7.97704
7.94204
7.90634
7.86993
7.8328
7.79493
7.75633
7.71696
7.67683
9.24454
9.24109
9.23765
9.23341
9.22876
9.22371
9.21829
9.21255
9.20648
9.20011
9.19345
9.18649
9.17925
9.17173
9.16393
9.15586
9.1475
9.13887
9.12996
9.12077
9.11129
9.10153
9.09149
9.08115
9.07052
9.0596
9.04837
9.03684
9.025
9.01286
9.00039
8.9876
8.97449
8.96105
8.94727
8.93315
8.91868
8.90386
8.88868
8.87315
8.85724
8.84095
8.82429
8.80723
8.78978
8.77193
8.75368
8.73501
8.71591
8.69639
8.67643
8.65603
8.63517
8.61386
8.59208
8.56983
8.54709
8.52386
8.50013
8.47589
8.45114
8.42586
8.40005
8.37369
8.34678
8.31931
8.29126
8.26264
8.23342
8.2036
8.17317
8.14212
8.11043
8.0781
8.04512
8.01148
7.97716
7.94215
7.90645
7.87003
7.8329
7.79503
7.75642
7.71705
7.67692
9.24482
9.24137
9.23793
9.23368
9.22903
9.22398
9.21857
9.21282
9.20676
9.20039
9.19372
9.18676
9.17952
9.172
9.1642
9.15613
9.14777
9.13914
9.13023
9.12103
9.11156
9.1018
9.09175
9.08141
9.07078
9.05986
9.04863
9.0371
9.02526
9.01311
9.00064
8.98785
8.97474
8.96129
8.94751
8.93339
8.91892
8.9041
8.88892
8.87338
8.85747
8.84118
8.82452
8.80746
8.79001
8.77216
8.7539
8.73522
8.71613
8.6966
8.67664
8.65623
8.63537
8.61406
8.59228
8.57002
8.54728
8.52404
8.50031
8.47607
8.45132
8.42603
8.40022
8.37385
8.34694
8.31946
8.29141
8.26278
8.23356
8.20374
8.17331
8.14225
8.11056
8.07823
8.04525
8.0116
7.97728
7.94227
7.90656
7.87014
7.833
7.79514
7.75652
7.71715
7.67701
9.24509
9.24164
9.23819
9.23395
9.2293
9.22425
9.21884
9.21309
9.20702
9.20065
9.19398
9.18703
9.17979
9.17227
9.16447
9.15639
9.14803
9.1394
9.13048
9.12129
9.11181
9.10205
9.09201
9.08167
9.07104
9.06011
9.04888
9.03735
9.02551
9.01336
9.00089
8.9881
8.97498
8.96154
8.94775
8.93363
8.91916
8.90434
8.88916
8.87361
8.8577
8.84141
8.82474
8.80768
8.79023
8.77237
8.75411
8.73543
8.71633
8.69681
8.67684
8.65643
8.63557
8.61425
8.59247
8.57021
8.54746
8.52423
8.50049
8.47625
8.45149
8.4262
8.40038
8.37402
8.3471
8.31962
8.29157
8.26294
8.23371
8.20389
8.17345
8.14239
8.1107
8.07836
8.04538
8.01172
7.9774
7.94238
7.90667
7.87025
7.83311
7.79524
7.75662
7.71725
9.24534
9.2419
9.23845
9.23421
9.22956
9.2245
9.21909
9.21334
9.20728
9.2009
9.19424
9.18728
9.18004
9.17252
9.16472
9.15664
9.14828
9.13965
9.13073
9.12154
9.11206
9.1023
9.09225
9.08191
9.07128
9.06035
9.04912
9.03759
9.02575
9.0136
9.00113
8.98833
8.97522
8.96177
8.94798
8.93386
8.91939
8.90456
8.88938
8.87384
8.85792
8.84163
8.82496
8.8079
8.79044
8.77259
8.75432
8.73564
8.71654
8.69701
8.67704
8.65663
8.63577
8.61445
8.59266
8.5704
8.54765
8.52441
8.50067
8.47643
8.45166
8.42637
8.40055
8.37418
8.34726
8.31978
8.29172
8.26309
8.23386
8.20403
8.17359
8.14253
8.11083
8.0785
8.04551
8.01185
7.97752
7.9425
7.90679
7.87037
7.83322
7.79535
7.75673
7.71735
9.24559
9.24215
9.23869
9.23445
9.2298
9.22475
9.21934
9.21359
9.20752
9.20115
9.19448
9.18753
9.18028
9.17276
9.16496
9.15688
9.14852
9.13989
9.13097
9.12178
9.1123
9.10254
9.09249
9.08215
9.07152
9.06059
9.04936
9.03782
9.02598
9.01383
9.00136
8.98856
8.97544
8.96199
8.94821
8.93408
8.91961
8.90478
8.8896
8.87405
8.85814
8.84184
8.82517
8.80811
8.79065
8.77279
8.75453
8.73584
8.71674
8.69721
8.67724
8.65683
8.63596
8.61464
8.59285
8.57058
8.54783
8.52459
8.50085
8.4766
8.45183
8.42654
8.40072
8.37435
8.34742
8.31994
8.29188
8.26324
8.23401
8.20418
8.17373
8.14267
8.11097
8.07863
8.04564
8.01198
7.97765
7.94263
7.90691
7.87048
7.83334
7.79546
7.75683
7.71745
9.24583
9.24239
9.23893
9.23469
9.23004
9.22499
9.21957
9.21382
9.20776
9.20138
9.19472
9.18776
9.18052
9.173
9.16519
9.15711
9.14876
9.14012
9.13121
9.12201
9.11253
9.10277
9.09272
9.08238
9.07174
9.06081
9.04958
9.03805
9.0262
9.01405
9.00158
8.98878
8.97566
8.96221
8.94843
8.9343
8.91982
8.905
8.88981
8.87426
8.85835
8.84205
8.82538
8.80831
8.79085
8.77299
8.75472
8.73604
8.71694
8.6974
8.67743
8.65702
8.63615
8.61482
8.59303
8.57076
8.54801
8.52477
8.50102
8.47677
8.452
8.42671
8.40088
8.37451
8.34758
8.32009
8.29203
8.26339
8.23416
8.20432
8.17388
8.14281
8.11111
8.07876
8.04577
8.01211
7.97777
7.94275
7.90703
7.8706
7.83345
7.79557
7.75695
7.71756
9.24606
9.24263
9.23915
9.23492
9.23027
9.22521
9.2198
9.21405
9.20798
9.20161
9.19494
9.18799
9.18074
9.17322
9.16542
9.15734
9.14898
9.14034
9.13143
9.12223
9.11275
9.10299
9.09294
9.0826
9.07196
9.06103
9.0498
9.03826
9.02642
9.01426
9.00179
8.989
8.97587
8.96242
8.94864
8.93451
8.92003
8.9052
8.89002
8.87447
8.85855
8.84225
8.82558
8.80851
8.79105
8.77319
8.75492
8.73623
8.71713
8.69759
8.67762
8.6572
8.63633
8.615
8.59321
8.57094
8.54818
8.52494
8.50119
8.47694
8.45217
8.42687
8.40104
8.37467
8.34774
8.32025
8.29219
8.26354
8.2343
8.20447
8.17402
8.14295
8.11124
8.0789
8.0459
8.01224
7.9779
7.94287
7.90715
7.87072
7.83357
7.79569
7.75706
7.71767
9.24627
9.24285
9.23937
9.23514
9.23049
9.22543
9.22002
9.21427
9.2082
9.20183
9.19516
9.1882
9.18096
9.17344
9.16563
9.15755
9.14919
9.14056
9.13164
9.12244
9.11296
9.1032
9.09315
9.08281
9.07217
9.06124
9.05001
9.03847
9.02663
9.01447
9.00199
8.9892
8.97608
8.96263
8.94884
8.93471
8.92023
8.9054
8.89021
8.87466
8.85874
8.84245
8.82577
8.8087
8.79124
8.77338
8.7551
8.73642
8.71731
8.69777
8.6778
8.65738
8.63651
8.61518
8.59338
8.57111
8.54835
8.52511
8.50136
8.4771
8.45233
8.42703
8.4012
8.37482
8.34789
8.3204
8.29233
8.26369
8.23445
8.20461
8.17416
8.14309
8.11138
8.07903
8.04603
8.01237
7.97803
7.943
7.90727
7.87084
7.83369
7.7958
7.75717
7.71778
9.24648
9.24306
9.23958
9.23535
9.23069
9.22564
9.22022
9.21447
9.20841
9.20203
9.19536
9.18841
9.18116
9.17364
9.16584
9.15776
9.1494
9.14076
9.13184
9.12265
9.11317
9.1034
9.09335
9.08301
9.07237
9.06144
9.05021
9.03867
9.02682
9.01467
9.00219
8.98939
8.97627
8.96282
8.94903
8.9349
8.92042
8.90559
8.8904
8.87485
8.85893
8.84263
8.82595
8.80888
8.79142
8.77356
8.75528
8.7366
8.71749
8.69795
8.67797
8.65755
8.63668
8.61535
8.59355
8.57128
8.54852
8.52527
8.50152
8.47726
8.45249
8.42719
8.40135
8.37498
8.34804
8.32055
8.29248
8.26383
8.23459
8.20475
8.1743
8.14322
8.11151
8.07916
8.04616
8.01249
7.97815
7.94312
7.9074
7.87096
7.8338
7.79592
7.75728
7.71789
9.24668
9.24326
9.23977
9.23554
9.23089
9.22584
9.22042
9.21467
9.2086
9.20223
9.19556
9.1886
9.18136
9.17384
9.16603
9.15795
9.14959
9.14095
9.13204
9.12284
9.11336
9.10359
9.09354
9.0832
9.07256
9.06163
9.05039
9.03886
9.02701
9.01485
9.00238
8.98958
8.97646