/*--------------------------------*- C++ -*----------------------------------*\
  =========                 |
  \\      /  F ield         | OpenFOAM: The Open Source CFD Toolbox
   \\    /   O peration     | Website:  https://openfoam.org
    \\  /    A nd           | Version:  10
     \\/     M anipulation  |
\*---------------------------------------------------------------------------*/
FoamFile
{
    format      ascii;
    class       volVectorField;
    location    "62000";
    object      U;
}
// * * * * * * * * * * * * * * * * * * * * * * * * * * * * * * * * * * * * * //

dimensions      [0 1 -1 0 0 0 0];

internalField   nonuniform List<vector> 
17808
(
(-1.23098 1.33544 -4.84269e-18)
(-1.52654 1.66489 -5.47797e-19)
(-1.65887 1.81067 3.54085e-18)
(-1.75024 1.90684 3.84748e-18)
(-1.81779 1.98071 -9.08877e-19)
(-1.87201 2.03947 -6.46945e-18)
(-1.91687 2.08844 3.27161e-18)
(-1.95517 2.13032 -3.49663e-18)
(-1.98854 2.16691 5.91573e-18)
(-2.01809 2.19939 -6.10382e-22)
(-2.04461 2.22858 -2.69512e-18)
(-2.06866 2.25507 1.93383e-18)
(-2.09064 2.27933 -2.78268e-18)
(-2.11088 2.30169 2.96852e-19)
(-2.12963 2.32242 0)
(-2.14709 2.34174 2.75005e-19)
(-2.16341 2.35981 -5.30519e-19)
(-2.17874 2.3768 -5.12281e-19)
(-2.19317 2.39281 -2.22773e-18)
(-2.20681 2.40793 1.65418e-21)
(-2.21972 2.42227 1.85779e-18)
(-2.23197 2.43588 0)
(-2.24363 2.44884 1.74619e-18)
(-2.25473 2.46118 -1.69749e-18)
(-2.26532 2.47297 1.64791e-18)
(-2.27545 2.48424 -2.00521e-18)
(-2.28513 2.49502 -3.90031e-19)
(-2.29441 2.50535 0)
(-2.3033 2.51526 -3.69988e-19)
(-2.31183 2.52477 -3.60549e-19)
(-2.32002 2.53391 1.40536e-18)
(-2.32789 2.54269 -1.02983e-18)
(-2.33546 2.55113 0)
(-2.34273 2.55925 0)
(-2.34973 2.56706 3.19035e-19)
(-2.35646 2.57458 1.55733e-18)
(-2.36294 2.58181 -9.14531e-19)
(-2.36918 2.58878 0)
(-2.37518 2.59549 -1.16271e-18)
(-2.38096 2.60195 1.97721e-21)
(-2.38652 2.60816 1.66999e-18)
(-2.39187 2.61414 1.63134e-18)
(-2.39701 2.61989 -1.06556e-18)
(-2.40196 2.62542 5.20697e-19)
(-2.40671 2.63074 0)
(-2.41127 2.63584 -4.98508e-19)
(-2.41565 2.64074 1.46252e-18)
(-2.41985 2.64544 -1.91066e-18)
(-2.42388 2.64995 4.67233e-19)
(-2.42773 2.65426 0)
(-2.43141 2.65838 0)
(-2.43493 2.66231 1.31288e-18)
(-2.43828 2.66607 -4.29675e-19)
(-2.44147 2.66964 0)
(-2.4445 2.67303 4.10472e-19)
(-2.44737 2.67625 4.01678e-19)
(-2.45009 2.6793 -3.93029e-19)
(-2.45265 2.68217 -3.84521e-19)
(-2.45506 2.68487 -3.76179e-19)
(-2.45732 2.68741 7.34913e-19)
(-2.45943 2.68978 -1.05063e-21)
(-2.46139 2.69198 7.02943e-19)
(-2.4632 2.69401 -6.89489e-19)
(-2.46487 2.69588 -6.73097e-19)
(-2.46638 2.69759 -1.31494e-18)
(-2.46775 2.69913 6.4314e-19)
(-2.46898 2.70051 -1.25814e-18)
(-2.47005 2.70172 1.22831e-18)
(-2.47098 2.70278 0)
(-2.47177 2.70367 5.86059e-19)
(-2.47241 2.7044 1.14357e-18)
(-2.4729 2.70497 -5.60961e-19)
(-2.47325 2.70537 -5.46583e-19)
(-2.47345 2.70562 5.32416e-19)
(-2.4735 2.7057 -1.07365e-21)
(-2.47341 2.70561 -1.52047e-18)
(-2.47317 2.70536 9.89737e-19)
(-2.47278 2.70495 0)
(-2.47224 2.70438 -4.71014e-19)
(-2.47155 2.70364 -1.37519e-18)
(-2.47071 2.70273 0)
(-2.46973 2.70166 0)
(-2.46859 2.70041 8.47013e-19)
(-2.46729 2.69901 0)
(-2.46585 2.69743 8.02899e-19)
(-2.46425 2.69568 0)
(-2.4625 2.69376 -1.22449e-23)
(-2.46059 2.69167 0)
(-2.45853 2.6894 0)
(-2.45631 2.68696 6.99326e-19)
(-2.45393 2.68435 1.35954e-18)
(-2.45139 2.68156 1.32117e-18)
(-1.23093 1.34834 -5.43813e-19)
(-1.52164 1.67761 5.37399e-19)
(-1.65456 1.82008 0)
(-1.74425 1.91625 0)
(-1.81112 1.98954 9.09206e-19)
(-1.86504 2.04768 -4.29466e-19)
(-1.90978 2.09613 3.25444e-18)
(-1.94805 2.13758 -2.70207e-18)
(-1.98144 2.17381 -3.67148e-19)
(-2.01105 2.20599 2.79668e-18)
(-2.03763 2.23494 -3.00502e-18)
(-2.06173 2.26125 6.38784e-19)
(-2.08377 2.28535 3.06083e-19)
(-2.10407 2.30759 -2.93849e-19)
(-2.12286 2.32823 0)
(-2.14036 2.34748 -2.72085e-19)
(-2.15673 2.3655 2.62363e-19)
(-2.17209 2.38244 2.53308e-19)
(-2.18655 2.39841 0)
(-2.20021 2.41352 0)
(-2.21314 2.42783 0)
(-2.22541 2.44143 -4.44953e-19)
(-2.23708 2.45438 0)
(-2.2482 2.46672 -4.19307e-19)
(-2.25881 2.47851 0)
(-2.26894 2.48977 3.96316e-19)
(-2.27863 2.50056 3.8573e-19)
(-2.28792 2.5109 0)
(-2.29682 2.52081 -1.46267e-18)
(-2.30535 2.53033 3.58525e-19)
(-2.31355 2.53947 1.04435e-18)
(-2.32142 2.54826 -3.39328e-19)
(-2.32899 2.55671 1.3239e-18)
(-2.33627 2.56484 -2.91046e-18)
(-2.34327 2.57266 9.48495e-19)
(-2.35 2.58019 -3.08583e-19)
(-2.35648 2.58744 -6.03185e-19)
(-2.36272 2.59442 0)
(-2.36872 2.60114 0)
(-2.3745 2.60761 1.40859e-18)
(-2.38006 2.61383 -1.10402e-18)
(-2.38541 2.61982 -4.71943e-23)
(-2.39055 2.62558 -5.27982e-19)
(-2.39549 2.63113 -1.03332e-18)
(-2.40024 2.63645 -5.04673e-19)
(-2.40481 2.64157 1.48585e-18)
(-2.40918 2.64648 -9.67964e-19)
(-2.41338 2.65119 1.42389e-18)
(-2.4174 2.6557 -1.39192e-18)
(-2.42125 2.66002 9.1017e-19)
(-2.42493 2.66415 -8.89056e-19)
(-2.42845 2.6681 8.72454e-19)
(-2.4318 2.67186 -4.26586e-19)
(-2.43498 2.67544 0)
(-2.43801 2.67885 -4.08844e-19)
(-2.44088 2.68207 0)
(-2.4436 2.68513 0)
(-2.44616 2.68801 3.83457e-19)
(-2.44857 2.69072 1.05937e-21)
(-2.45083 2.69326 7.35587e-19)
(-2.45294 2.69563 -7.18745e-19)
(-2.45489 2.69784 7.03232e-19)
(-2.4567 2.69988 0)
(-2.45837 2.70175 0)
(-2.45988 2.70347 1.31528e-18)
(-2.46125 2.70501 -6.43632e-19)
(-2.46247 2.7064 1.25968e-18)
(-2.46355 2.70762 -1.08527e-21)
(-2.46448 2.70868 -6.02376e-19)
(-2.46526 2.70957 0)
(-2.4659 2.7103 -1.1472e-18)
(-2.4664 2.71087 2.24344e-18)
(-2.46674 2.71128 -2.16098e-21)
(-2.46695 2.71153 -2.16161e-21)
(-2.467 2.71161 -1.07525e-21)
(-2.46691 2.71153 5.08638e-19)
(-2.46667 2.71128 -9.95903e-19)
(-2.46628 2.71087 4.85293e-19)
(-2.46575 2.71029 9.45654e-19)
(-2.46506 2.70955 -4.62698e-19)
(-2.46423 2.70864 4.48984e-19)
(-2.46324 2.70757 -1.31713e-18)
(-2.46211 2.70633 1.28141e-18)
(-2.46082 2.70491 -2.14501e-21)
(-2.45938 2.70333 -8.11325e-19)
(-2.45779 2.70158 3.9609e-19)
(-2.45604 2.69966 -1.53825e-18)
(-2.45414 2.69756 0)
(-2.45208 2.6953 0)
(-2.44986 2.69285 -1.41713e-18)
(-2.44749 2.69023 -1.03261e-18)
(-2.44496 2.68744 -6.67919e-19)
(-1.22955 1.3557 1.08812e-18)
(-1.52007 1.68478 8.59248e-18)
(-1.65307 1.82657 -1.62577e-17)
(-1.74116 1.92368 7.68386e-18)
(-1.80742 1.99676 -4.52522e-19)
(-1.86071 2.05481 0)
(-1.9049 2.10316 0)
(-1.94274 2.14448 0)
(-1.9758 2.18057 -5.46069e-18)
(-2.00515 2.21262 5.54797e-18)
(-2.03154 2.24144 3.30645e-19)
(-2.05549 2.26763 1.36668e-22)
(-2.07743 2.29163 4.84467e-18)
(-2.09764 2.31377 -9.59139e-18)
(-2.11638 2.33433 4.47137e-18)
(-2.13384 2.35351 4.03239e-18)
(-2.15017 2.37147 -3.89037e-18)
(-2.1655 2.38837 0)
(-2.17995 2.4043 0)
(-2.1936 2.41937 0)
(-2.20652 2.43366 0)
(-2.21879 2.44724 8.78872e-19)
(-2.23046 2.46017 0)
(-2.24157 2.4725 4.14085e-19)
(-2.25217 2.48428 0)
(-2.26231 2.49554 -3.91381e-19)
(-2.272 2.50633 0)
(-2.28128 2.51666 1.48259e-18)
(-2.29018 2.52658 -1.44629e-18)
(-2.29871 2.5361 3.52242e-19)
(-2.30691 2.54524 -3.4354e-19)
(-2.31478 2.55404 1.67516e-18)
(-2.32235 2.56249 -1.85035e-21)
(-2.32962 2.57063 -9.59484e-19)
(-2.33662 2.57846 9.35448e-19)
(-2.34335 2.586 -9.15914e-19)
(-2.34983 2.59325 2.98132e-19)
(-2.35607 2.60024 0)
(-2.36207 2.60697 0)
(-2.36785 2.61345 -1.67195e-18)
(-2.3734 2.61968 1.94024e-21)
(-2.37875 2.62568 1.91285e-21)
(-2.38389 2.63145 1.56839e-18)
(-2.38883 2.63701 -1.02179e-18)
(-2.39358 2.64234 5.01606e-19)
(-2.39814 2.64747 0)
(-2.40251 2.65239 0)
(-2.40671 2.65711 0)
(-2.41073 2.66163 1.0147e-21)
(-2.41457 2.66596 4.51653e-19)
(-2.41825 2.6701 0)
(-2.42176 2.67405 4.32166e-19)
(-2.42511 2.67782 -8.4544e-19)
(-2.42829 2.68141 1.24443e-18)
(-2.43132 2.68482 8.10721e-19)
(-2.43419 2.68806 -7.95932e-19)
(-2.4369 2.69112 -7.77299e-19)
(-2.43946 2.69401 3.82093e-19)
(-2.44187 2.69673 -3.73064e-19)
(-2.44413 2.69927 3.65201e-19)
(-2.44623 2.70165 7.14987e-19)
(-2.44819 2.70387 -6.998e-19)
(-2.45 2.70591 0)
(-2.45166 2.70779 0)
(-2.45317 2.70951 -1.72933e-23)
(-2.45454 2.71106 -1.28175e-18)
(-2.45576 2.71245 6.28434e-19)
(-2.45684 2.71367 -6.12462e-19)
(-2.45777 2.71473 1.79973e-18)
(-2.45855 2.71563 -1.08e-21)
(-2.45919 2.71637 5.73262e-19)
(-2.45968 2.71694 -5.60242e-19)
(-2.46003 2.71735 0)
(-2.46024 2.7176 0)
(-2.46029 2.71768 0)
(-2.4602 2.7176 5.08907e-19)
(-2.45996 2.71735 -4.98958e-19)
(-2.45958 2.71694 -4.85966e-19)
(-2.45904 2.71637 0)
(-2.45836 2.71562 0)
(-2.45753 2.71471 -1.35268e-18)
(-2.45655 2.71364 2.20128e-18)
(-2.45542 2.71239 -1.10895e-23)
(-2.45414 2.71098 0)
(-2.4527 2.7094 -4.06369e-19)
(-2.45111 2.70764 2.14699e-21)
(-2.44937 2.70572 3.87668e-19)
(-2.44747 2.70362 -7.52839e-19)
(-2.44542 2.70134 -7.32856e-19)
(-2.44321 2.6989 1.06878e-18)
(-2.44085 2.69627 -2.12452e-21)
(-2.43832 2.69347 3.36443e-19)
(-1.22581 1.36008 7.62202e-18)
(-1.5167 1.68926 8.03999e-18)
(-1.64939 1.8317 -8.61102e-18)
(-1.73675 1.92951 4.78128e-19)
(-1.80298 2.00254 0)
(-1.85597 2.06079 0)
(-1.89991 2.10925 0)
(-1.93751 2.15063 6.08381e-18)
(-1.97035 2.18677 -1.15525e-17)
(-1.9995 2.21884 1.09911e-17)
(-2.02571 2.24767 -5.24192e-18)
(-2.04951 2.27385 4.69287e-18)
(-2.07131 2.29784 -4.79602e-18)
(-2.09141 2.31996 2.87385e-19)
(-2.11005 2.3405 4.69342e-18)
(-2.12743 2.35965 -3.98844e-18)
(-2.14369 2.37759 4.09689e-18)
(-2.15897 2.39446 -2.50533e-19)
(-2.17337 2.41037 -3.82358e-18)
(-2.18698 2.42542 -2.31089e-19)
(-2.19987 2.43969 0)
(-2.21211 2.45326 -8.67705e-19)
(-2.22375 2.46618 0)
(-2.23485 2.4785 0)
(-2.24543 2.49026 -3.5735e-18)
(-2.25555 2.50152 3.09246e-18)
(-2.26523 2.5123 0)
(-2.2745 2.52263 0)
(-2.28339 2.53255 0)
(-2.29192 2.54207 -6.95583e-19)
(-2.30011 2.55122 3.39235e-19)
(-2.30797 2.56001 0)
(-2.31553 2.56847 0)
(-2.3228 2.57661 0)
(-2.3298 2.58445 -1.84811e-18)
(-2.33652 2.59199 2.71379e-18)
(-2.343 2.59926 0)
(-2.34923 2.60625 0)
(-2.35522 2.61299 0)
(-2.36099 2.61947 2.47889e-18)
(-2.36655 2.62571 -3.83389e-21)
(-2.37189 2.63172 -5.27976e-18)
(-2.37702 2.6375 3.61777e-18)
(-2.38196 2.64306 -1.5199e-18)
(-2.38671 2.64841 0)
(-2.39126 2.65354 4.85157e-19)
(-2.39563 2.65847 1.89863e-18)
(-2.39982 2.6632 -1.8635e-18)
(-2.40384 2.66773 -4.55847e-19)
(-2.40768 2.67207 2.23054e-18)
(-2.41136 2.67621 -8.77792e-19)
(-2.41487 2.68018 -8.5894e-19)
(-2.41821 2.68395 -8.40438e-19)
(-2.42139 2.68755 -1.02519e-21)
(-2.42442 2.69097 -1.20923e-18)
(-2.42728 2.69421 0)
(-2.42999 2.69728 3.85371e-19)
(-2.43255 2.70018 -7.57926e-19)
(-2.43495 2.7029 -1.11087e-18)
(-2.43721 2.70545 3.64e-19)
(-2.43931 2.70784 7.10813e-19)
(-2.44127 2.71006 1.04488e-21)
(-2.44307 2.71211 2.11064e-21)
(-2.44473 2.71399 6.68007e-19)
(-2.44625 2.71572 -6.52788e-19)
(-2.44761 2.71727 6.38815e-19)
(-2.44883 2.71866 0)
(-2.44991 2.71989 -6.10457e-19)
(-2.45084 2.72096 -5.96044e-19)
(-2.45162 2.72186 1.06485e-21)
(-2.45226 2.7226 -1.14305e-18)
(-2.45276 2.72317 1.11963e-18)
(-2.45311 2.72358 0)
(-2.45331 2.72383 -1.07661e-21)
(-2.45337 2.72391 -1.04511e-18)
(-2.45328 2.72383 5.09947e-19)
(-2.45304 2.72359 4.9806e-19)
(-2.45266 2.72318 4.86329e-19)
(-2.45213 2.7226 0)
(-2.45145 2.72186 0)
(-2.45062 2.72095 9.04365e-19)
(-2.44964 2.71987 -1.76452e-18)
(-2.44852 2.71862 -8.60504e-19)
(-2.44724 2.71721 8.39063e-19)
(-2.44581 2.71562 1.22587e-18)
(-2.44422 2.71386 3.97523e-19)
(-2.44249 2.71193 7.76784e-19)
(-2.4406 2.70983 3.77274e-19)
(-2.43855 2.70755 7.34777e-19)
(-2.43635 2.7051 -3.59815e-19)
(-2.43399 2.70247 3.48128e-19)
(-2.43147 2.69967 -2.14178e-21)
(-1.22201 1.36426 9.24828e-18)
(-1.51278 1.69345 -8.56044e-18)
(-1.6448 1.83678 -7.56683e-18)
(-1.73172 1.93493 1.42708e-17)
(-1.79787 2.00803 -6.72115e-18)
(-1.85061 2.0665 7.17444e-18)
(-1.89439 2.11507 -1.27519e-17)
(-1.93186 2.15656 3.33349e-21)
(-1.96457 2.19278 5.72457e-18)
(-1.9936 2.22491 0)
(-2.0197 2.25378 0)
(-2.04339 2.28 -3.09642e-19)
(-2.06509 2.304 -2.96349e-19)
(-2.0851 2.32615 2.84162e-19)
(-2.10366 2.34669 5.51618e-23)
(-2.12096 2.36584 -2.62608e-19)
(-2.13716 2.38378 -5.06026e-19)
(-2.15238 2.40065 -3.25166e-23)
(-2.16672 2.41656 0)
(-2.18028 2.4316 2.28117e-19)
(-2.19313 2.44587 3.53261e-18)
(-2.20534 2.45943 -2.99922e-18)
(-2.21695 2.47234 0)
(-2.22801 2.48466 3.62899e-18)
(-2.23857 2.49643 -2.74599e-18)
(-2.24867 2.50768 -3.0484e-18)
(-2.25833 2.51846 2.97015e-18)
(-2.26758 2.52879 3.6134e-19)
(-2.27645 2.53871 0)
(-2.28496 2.54823 3.43275e-19)
(-2.29314 2.55738 0)
(-2.30099 2.56617 0)
(-2.30854 2.57464 -2.55044e-18)
(-2.3158 2.58278 2.18305e-18)
(-2.32278 2.59062 -6.08932e-19)
(-2.3295 2.59817 -2.37888e-18)
(-2.33597 2.60544 2.03858e-18)
(-2.34219 2.61244 -2.84557e-19)
(-2.34818 2.61918 -2.22515e-18)
(-2.35394 2.62567 2.18103e-18)
(-2.35949 2.63192 -2.13087e-18)
(-2.36482 2.63794 2.61164e-18)
(-2.36995 2.64373 -2.04218e-18)
(-2.37488 2.6493 3.85151e-21)
(-2.37962 2.65465 3.43061e-18)
(-2.38417 2.65979 -2.40211e-18)
(-2.38854 2.66473 0)
(-2.39273 2.66946 1.8407e-18)
(-2.39674 2.674 -1.80731e-18)
(-2.40058 2.67835 0)
(-2.40425 2.6825 -4.33282e-19)
(-2.40775 2.68647 8.49123e-19)
(-2.41109 2.69026 -1.66203e-18)
(-2.41427 2.69386 3.66871e-18)
(-2.41729 2.69729 -1.20028e-18)
(-2.42015 2.70054 -3.91355e-19)
(-2.42286 2.70361 1.9152e-18)
(-2.42542 2.70651 7.4724e-19)
(-2.42782 2.70924 3.63914e-19)
(-2.43007 2.7118 -4.15139e-21)
(-2.43217 2.7142 -4.23785e-18)
(-2.43412 2.71642 -6.8761e-19)
(-2.43593 2.71848 4.19576e-21)
(-2.43759 2.72037 1.32891e-18)
(-2.4391 2.72209 -1.9465e-18)
(-2.44046 2.72365 -1.26754e-18)
(-2.44168 2.72505 3.18944e-21)
(-2.44276 2.72628 6.10234e-19)
(-2.44369 2.72735 -5.95033e-19)
(-2.44447 2.72825 1.1675e-18)
(-2.44511 2.72899 0)
(-2.44561 2.72957 -1.11491e-18)
(-2.44596 2.72998 5.46712e-19)
(-2.44616 2.73023 1.08365e-21)
(-2.44622 2.73032 1.04398e-18)
(-2.44613 2.73024 -5.09607e-19)
(-2.4459 2.72999 0)
(-2.44552 2.72958 -9.72816e-19)
(-2.44499 2.729 0)
(-2.44432 2.72826 -9.27714e-19)
(-2.44349 2.72735 0)
(-2.44252 2.72627 4.43043e-19)
(-2.44139 2.72502 4.32319e-19)
(-2.44012 2.7236 -1.26096e-18)
(-2.43869 2.72201 -4.09207e-19)
(-2.43712 2.72025 -1.19905e-18)
(-2.43539 2.71832 -3.88879e-19)
(-2.4335 2.71621 7.60085e-19)
(-2.43146 2.71393 -3.69197e-19)
(-2.42926 2.71147 7.23498e-19)
(-2.42691 2.70884 -3.50153e-19)
(-2.4244 2.70602 -1.02692e-18)
(-1.21841 1.36858 0)
(-1.5089 1.69785 0)
(-1.64017 1.84201 7.53932e-18)
(-1.72681 1.94033 -3.50202e-21)
(-1.79276 2.01358 -7.57063e-18)
(-1.84522 2.07225 6.28484e-18)
(-1.88883 2.12093 -5.93102e-18)
(-1.92613 2.16251 0)
(-1.9587 2.19881 -3.54345e-19)
(-1.9876 2.231 -5.72172e-18)
(-2.01358 2.25992 5.13293e-18)
(-2.03717 2.28618 6.12354e-19)
(-2.05877 2.31022 2.92883e-19)
(-2.0787 2.33238 -5.05229e-18)
(-2.09718 2.35295 4.04605e-18)
(-2.1144 2.37212 2.59316e-19)
(-2.13053 2.39007 2.49809e-19)
(-2.14569 2.40695 4.33642e-18)
(-2.15998 2.42286 -3.39378e-21)
(-2.17348 2.43792 -7.20456e-18)
(-2.18628 2.45219 3.4894e-18)
(-2.19844 2.46575 0)
(-2.21001 2.47867 -3.27752e-18)
(-2.22104 2.49098 3.45496e-21)
(-2.23157 2.50275 3.09592e-18)
(-2.24163 2.51401 3.76155e-19)
(-2.25127 2.52479 2.9268e-18)
(-2.26049 2.53512 -6.41689e-18)
(-2.26934 2.54504 5.5581e-18)
(-2.27783 2.55456 -3.52474e-21)
(-2.28599 2.56372 -2.97533e-18)
(-2.29383 2.57252 0)
(-2.30136 2.58098 0)
(-2.3086 2.58913 3.07559e-19)
(-2.31557 2.59698 3.00546e-19)
(-2.32228 2.60453 -5.87582e-19)
(-2.32873 2.61181 9.38865e-24)
(-2.33495 2.61881 2.81014e-19)
(-2.34093 2.62556 0)
(-2.34668 2.63206 -2.41981e-18)
(-2.35222 2.63832 1.58224e-18)
(-2.35754 2.64434 -2.06119e-18)
(-2.36267 2.65014 2.52726e-18)
(-2.36759 2.65571 1.97683e-18)
(-2.37232 2.66107 -1.9402e-18)
(-2.37687 2.66622 0)
(-2.38123 2.67116 0)
(-2.38541 2.67591 0)
(-2.38942 2.68045 0)
(-2.39325 2.6848 -4.37744e-19)
(-2.39691 2.68897 -1.2851e-18)
(-2.40041 2.69294 1.26347e-18)
(-2.40375 2.69674 0)
(-2.40692 2.70035 -4.0395e-19)
(-2.40994 2.70378 -1.5817e-18)
(-2.4128 2.70704 1.9423e-18)
(-2.4155 2.71012 3.80319e-19)
(-2.41806 2.71303 -1.1137e-23)
(-2.42045 2.71576 3.65267e-19)
(-2.4227 2.71833 0)
(-2.4248 2.72072 7.01456e-19)
(-2.42675 2.72295 0)
(-2.42856 2.72501 0)
(-2.43021 2.72691 -1.97643e-18)
(-2.43172 2.72864 3.22979e-18)
(-2.43309 2.7302 -6.347e-19)
(-2.43431 2.7316 6.19453e-19)
(-2.43538 2.73284 0)
(-2.43631 2.73391 5.93681e-19)
(-2.43709 2.73482 5.78936e-19)
(-2.43773 2.73556 -2.27455e-18)
(-2.43823 2.73614 1.11488e-18)
(-2.43858 2.73655 0)
(-2.43879 2.7368 0)
(-2.43885 2.73689 5.2056e-19)
(-2.43876 2.73681 0)
(-2.43853 2.73657 4.97487e-19)
(-2.43815 2.73615 -4.84017e-19)
(-2.43763 2.73558 9.52238e-19)
(-2.43695 2.73483 -4.62945e-19)
(-2.43613 2.73392 1.36067e-18)
(-2.43516 2.73284 0)
(-2.43404 2.73159 -4.30877e-19)
(-2.43277 2.73016 4.22656e-19)
(-2.43135 2.72857 0)
(-2.42978 2.72681 -4.02325e-19)
(-2.42805 2.72487 1.17283e-18)
(-2.42618 2.72276 0)
(-2.42414 2.72047 0)
(-2.42195 2.71801 -1.0861e-18)
(-2.41961 2.71537 1.76639e-18)
(-2.41711 2.71255 6.87767e-19)
(-1.21469 1.37278 0)
(-1.50481 1.7023 -5.32824e-19)
(-1.63536 1.84721 5.00658e-19)
(-1.72182 1.94566 4.7077e-19)
(-1.78752 2.01913 6.63378e-18)
(-1.83975 2.07797 -6.65748e-18)
(-1.8832 2.12676 1.40736e-22)
(-1.92033 2.16845 -5.92357e-18)
(-1.95275 2.20484 5.96545e-18)
(-1.98152 2.2371 -5.32905e-18)
(-2.00738 2.26609 1.01505e-17)
(-2.03086 2.2924 -3.06161e-19)
(-2.05236 2.31648 -3.4841e-21)
(-2.07219 2.33869 -4.43987e-18)
(-2.09059 2.35928 0)
(-2.10773 2.37848 0)
(-2.12379 2.39646 3.94404e-18)
(-2.13888 2.41335 -7.8492e-18)
(-2.1531 2.42928 3.67718e-18)
(-2.16655 2.44435 -3.5524e-18)
(-2.1793 2.45863 3.44236e-18)
(-2.19141 2.47221 0)
(-2.20294 2.48513 -3.23278e-18)
(-2.21392 2.49746 2.35705e-18)
(-2.22442 2.50923 3.05001e-18)
(-2.23444 2.52049 -3.34051e-18)
(-2.24404 2.53128 0)
(-2.25324 2.54162 3.51598e-19)
(-2.26206 2.55154 0)
(-2.27053 2.56107 0)
(-2.27866 2.57023 3.25906e-19)
(-2.28648 2.57904 -2.54302e-18)
(-2.29399 2.58751 2.48673e-18)
(-2.30122 2.59567 -2.12236e-18)
(-2.30817 2.60352 2.37426e-18)
(-2.31486 2.61108 5.79868e-19)
(-2.3213 2.61836 -1.98302e-18)
(-2.3275 2.62537 4.16086e-18)
(-2.33346 2.63213 -2.17338e-18)
(-2.33921 2.63863 2.65698e-19)
(-2.34473 2.64489 1.04051e-18)
(-2.35005 2.65092 -2.03598e-18)
(-2.35516 2.65673 1.49883e-18)
(-2.36008 2.66231 0)
(-2.3648 2.66767 9.57859e-19)
(-2.36934 2.67283 0)
(-2.37369 2.67778 1.37786e-18)
(-2.37787 2.68253 -4.5462e-19)
(-2.38186 2.68708 -1.76934e-18)
(-2.38569 2.69144 4.33144e-19)
(-2.38935 2.69561 0)
(-2.39285 2.6996 0)
(-2.39618 2.7034 0)
(-2.39935 2.70702 4.00122e-19)
(-2.40236 2.71045 -1.5671e-18)
(-2.40521 2.71372 3.07666e-18)
(-2.40791 2.7168 -3.3933e-18)
(-2.41046 2.71972 -3.65574e-19)
(-2.41286 2.72246 7.26693e-19)
(-2.4151 2.72503 -1.41862e-18)
(-2.4172 2.72743 4.1045e-21)
(-2.41915 2.72967 1.36681e-18)
(-2.42095 2.73173 6.68717e-19)
(-2.4226 2.73363 6.55288e-19)
(-2.42411 2.73536 0)
(-2.42547 2.73693 1.88486e-18)
(-2.42669 2.73834 -4.20142e-21)
(-2.42776 2.73957 -1.20899e-18)
(-2.42869 2.74065 -5.90945e-19)
(-2.42948 2.74156 0)
(-2.43012 2.7423 0)
(-2.43061 2.74288 -5.54431e-19)
(-2.43096 2.7433 0)
(-2.43117 2.74355 -5.309e-19)
(-2.43123 2.74364 -1.55596e-18)
(-2.43115 2.74356 5.1229e-19)
(-2.43092 2.74331 -4.92446e-19)
(-2.43054 2.7429 9.73499e-19)
(-2.43002 2.74232 -4.7473e-19)
(-2.42935 2.74158 9.27885e-19)
(-2.42854 2.74066 -9.06588e-19)
(-2.42757 2.73958 0)
(-2.42645 2.73833 0)
(-2.42519 2.7369 8.44408e-19)
(-2.42377 2.73531 0)
(-2.42221 2.73354 8.04399e-19)
(-2.42049 2.7316 -1.56963e-18)
(-2.41862 2.72948 0)
(-2.41659 2.72719 7.46514e-19)
(-2.41441 2.72472 0)
(-2.41207 2.72207 -7.09378e-19)
(-2.40958 2.71925 0)
(-1.21077 1.37685 9.23435e-18)
(-1.50041 1.70674 9.56367e-18)
(-1.63027 1.85234 -1.59579e-17)
(-1.71656 1.95094 3.44206e-21)
(-1.782 2.02466 7.91053e-18)
(-1.83404 2.08365 -7.01452e-18)
(-1.87733 2.13258 -3.8487e-19)
(-1.91432 2.17439 5.87089e-18)
(-1.94661 2.21087 5.90128e-18)
(-1.97526 2.24322 -1.02172e-17)
(-2.00101 2.27228 3.17221e-19)
(-2.02439 2.29865 4.48903e-18)
(-2.04579 2.32279 0)
(-2.06553 2.34505 2.73904e-19)
(-2.08384 2.36568 2.62915e-19)
(-2.10091 2.38492 0)
(-2.1169 2.40293 3.89197e-18)
(-2.13192 2.41985 -3.42488e-21)
(-2.14608 2.43581 -3.40078e-18)
(-2.15947 2.4509 2.19107e-19)
(-2.17216 2.46521 0)
(-2.18422 2.4788 -2.87533e-18)
(-2.1957 2.49174 2.79238e-18)
(-2.20664 2.50408 -3.15466e-23)
(-2.21709 2.51586 -3.00719e-18)
(-2.22708 2.52714 3.2936e-18)
(-2.23665 2.53793 0)
(-2.24581 2.54828 0)
(-2.2546 2.55822 -2.36303e-18)
(-2.26304 2.56775 3.46516e-21)
(-2.27114 2.57692 2.57268e-18)
(-2.27893 2.58574 0)
(-2.28642 2.59422 -2.44896e-18)
(-2.29363 2.60238 2.09681e-18)
(-2.30056 2.61024 -2.04592e-18)
(-2.30723 2.6178 2.00393e-18)
(-2.31365 2.62509 -2.79759e-19)
(-2.31984 2.63211 -1.91423e-18)
(-2.32579 2.63887 2.14492e-18)
(-2.33152 2.64538 0)
(-2.33703 2.65165 2.05255e-18)
(-2.34233 2.65769 -2.01395e-18)
(-2.34743 2.6635 0)
(-2.35234 2.66909 0)
(-2.35705 2.67446 -2.36386e-18)
(-2.36158 2.67963 1.39307e-18)
(-2.36592 2.68458 2.2709e-18)
(-2.37009 2.68934 -3.11931e-18)
(-2.37408 2.6939 1.74948e-18)
(-2.3779 2.69827 0)
(-2.38155 2.70244 0)
(-2.38504 2.70643 2.05756e-18)
(-2.38836 2.71024 -1.61767e-18)
(-2.39153 2.71386 -3.96116e-19)
(-2.39453 2.71731 0)
(-2.39738 2.72058 -1.90278e-18)
(-2.40008 2.72367 3.99277e-21)
(-2.40262 2.72659 1.10104e-18)
(-2.40502 2.72934 2.15336e-18)
(-2.40726 2.73191 -1.7632e-18)
(-2.40935 2.73432 6.90708e-19)
(-2.4113 2.73656 0)
(-2.4131 2.73863 -1.40544e-23)
(-2.41475 2.74053 0)
(-2.41625 2.74227 6.37781e-19)
(-2.41762 2.74384 6.22951e-19)
(-2.41883 2.74525 -1.22704e-18)
(-2.4199 2.74649 6.00083e-19)
(-2.42083 2.74757 5.87863e-19)
(-2.42162 2.74848 5.75809e-19)
(-2.42226 2.74923 -1.12572e-18)
(-2.42275 2.74981 1.65867e-18)
(-2.4231 2.75023 0)
(-2.42331 2.75048 5.29163e-19)
(-2.42338 2.75057 -5.17866e-19)
(-2.42329 2.75049 -1.01345e-18)
(-2.42307 2.75024 -4.9572e-19)
(-2.42269 2.74983 0)
(-2.42217 2.74925 4.74141e-19)
(-2.42151 2.7485 0)
(-2.42069 2.74759 9.06208e-19)
(-2.41973 2.7465 0)
(-2.41862 2.74525 0)
(-2.41736 2.74382 -8.4299e-19)
(-2.41595 2.74222 2.17835e-21)
(-2.41439 2.74045 8.05809e-19)
(-2.41268 2.7385 7.52359e-24)
(-2.41081 2.73638 -7.67548e-19)
(-2.40879 2.73408 -7.48832e-19)
(-2.40662 2.73161 -1.45857e-18)
(-2.40429 2.72896 7.14383e-19)
(-2.4018 2.72613 0)
(-1.20672 1.38089 -9.22464e-18)
(-1.49577 1.71125 7.9514e-18)
(-1.62494 1.8575 0)
(-1.71106 1.95627 7.44617e-18)
(-1.77624 2.03024 -7.8546e-18)
(-1.8281 2.08938 -8.9603e-23)
(-1.87122 2.13845 5.77402e-18)
(-1.90807 2.18037 -3.61823e-21)
(-1.94024 2.21695 -6.18646e-18)
(-1.96878 2.24939 0)
(-1.99442 2.27853 -3.09962e-19)
(-2.01771 2.30497 -4.72714e-18)
(-2.03902 2.32917 4.52052e-18)
(-2.05868 2.35148 0)
(-2.07691 2.37217 -2.59441e-19)
(-2.09391 2.39145 -2.49392e-19)
(-2.10982 2.4095 0)
(-2.12477 2.42646 -3.47013e-18)
(-2.13887 2.44245 6.92745e-18)
(-2.15221 2.45757 -7.12889e-18)
(-2.16484 2.4719 6.69071e-18)
(-2.17685 2.48552 -4.08545e-19)
(-2.18828 2.49848 -2.7526e-18)
(-2.19918 2.51084 3.81505e-19)
(-2.20958 2.52264 0)
(-2.21953 2.53393 -3.60498e-19)
(-2.22906 2.54474 0)
(-2.23819 2.55511 3.07348e-18)
(-2.24694 2.56505 -2.99852e-18)
(-2.25535 2.5746 2.59582e-18)
(-2.26342 2.58378 -5.06861e-18)
(-2.27118 2.5926 2.78488e-18)
(-2.27865 2.60109 0)
(-2.28583 2.60927 2.359e-18)
(-2.29274 2.61713 -5.19209e-18)
(-2.29939 2.62471 2.25827e-18)
(-2.30579 2.632 -1.23491e-24)
(-2.31195 2.63903 0)
(-2.31789 2.6458 -2.37674e-18)
(-2.3236 2.65232 3.59328e-21)
(-2.3291 2.6586 1.52229e-18)
(-2.33439 2.66464 0)
(-2.33947 2.67046 -1.94395e-18)
(-2.34437 2.67606 2.38535e-18)
(-2.34907 2.68144 0)
(-2.35358 2.68661 7.88498e-24)
(-2.35792 2.69157 -1.79438e-18)
(-2.36207 2.69634 3.08226e-18)
(-2.36606 2.7009 -2.16088e-18)
(-2.36987 2.70528 0)
(-2.37351 2.70946 4.15339e-19)
(-2.37699 2.71346 -4.07394e-19)
(-2.38031 2.71727 0)
(-2.38347 2.7209 -1.56596e-18)
(-2.38647 2.72435 1.53997e-18)
(-2.38931 2.72763 3.77179e-19)
(-2.392 2.73072 0)
(-2.39454 2.73365 7.25833e-19)
(-2.39693 2.7364 -3.55978e-19)
(-2.39916 2.73898 7.13339e-24)
(-2.40125 2.74139 6.82844e-19)
(-2.4032 2.74364 -1.34535e-18)
(-2.40499 2.74571 -6.5866e-19)
(-2.40664 2.74762 -6.45837e-19)
(-2.40815 2.74936 -6.33225e-19)
(-2.4095 2.75094 0)
(-2.41072 2.75235 6.08507e-19)
(-2.41179 2.75359 -5.9642e-19)
(-2.41272 2.75467 -1.16896e-18)
(-2.4135 2.75558 -5.7271e-19)
(-2.41414 2.75633 -1.12006e-18)
(-2.41464 2.75692 1.65095e-18)
(-2.41499 2.75734 -1.07445e-18)
(-2.4152 2.75759 5.29235e-19)
(-2.41526 2.75768 1.54606e-18)
(-2.41518 2.7576 -5.07295e-19)
(-2.41496 2.75735 4.94397e-19)
(-2.41459 2.75694 -9.65364e-19)
(-2.41407 2.75636 9.48668e-19)
(-2.41341 2.75561 0)
(-2.4126 2.75469 -1.81058e-18)
(-2.41164 2.7536 -8.85061e-19)
(-2.41054 2.75235 8.65094e-19)
(-2.40928 2.75092 -1.69078e-18)
(-2.40788 2.74931 8.25937e-19)
(-2.40632 2.74754 -1.61129e-18)
(-2.40462 2.74559 1.57777e-18)
(-2.40276 2.74346 6.79702e-24)
(-2.40074 2.74116 7.48493e-19)
(-2.39858 2.73868 -2.18099e-21)
(-2.39626 2.73602 -7.14606e-19)
(-2.39378 2.73318 6.94773e-19)
(-1.20256 1.38496 -8.67506e-18)
(-1.49091 1.71588 -8.45464e-18)
(-1.61943 1.86272 3.30655e-21)
(-1.70535 1.96168 1.48055e-17)
(-1.77026 2.0359 -6.49807e-18)
(-1.82194 2.0952 6.89912e-18)
(-1.8649 2.1444 -5.72401e-18)
(-1.90161 2.18645 0)
(-1.93366 2.22313 3.39856e-19)
(-1.96208 2.25566 4.83159e-18)
(-1.98762 2.28487 -4.59637e-18)
(-2.01081 2.31139 5.83815e-19)
(-2.03204 2.33566 2.78853e-19)
(-2.05161 2.35803 -4.00188e-18)
(-2.06977 2.37877 4.35374e-18)
(-2.08669 2.3981 4.17996e-18)
(-2.10254 2.41619 -3.78971e-18)
(-2.11743 2.43319 3.64978e-18)
(-2.13146 2.44922 -3.5265e-18)
(-2.14474 2.46437 -2.12951e-19)
(-2.15732 2.47873 -3.29547e-18)
(-2.16928 2.49237 3.19609e-18)
(-2.18065 2.50536 3.87278e-19)
(-2.1915 2.51774 -3.75958e-19)
(-2.20186 2.52957 0)
(-2.21177 2.54088 -2.84005e-18)
(-2.22126 2.55171 2.76725e-18)
(-2.23035 2.56209 -3.36661e-19)
(-2.23907 2.57205 0)
(-2.24744 2.58161 2.8778e-18)
(-2.25549 2.59081 -2.81124e-18)
(-2.26322 2.59964 -3.04576e-18)
(-2.27065 2.60815 2.38291e-18)
(-2.27781 2.61633 -2.32508e-18)
(-2.28469 2.62421 2.56068e-18)
(-2.29132 2.63179 0)
(-2.2977 2.6391 2.72034e-19)
(-2.30384 2.64614 2.66229e-19)
(-2.30976 2.65292 -1.56198e-18)
(-2.31545 2.65944 4.08341e-18)
(-2.32093 2.66573 -5.03533e-19)
(-2.3262 2.67178 -3.4288e-18)
(-2.33128 2.67761 1.92183e-18)
(-2.33615 2.68321 9.3913e-19)
(-2.34084 2.6886 -1.84669e-18)
(-2.34534 2.69378 4.52216e-19)
(-2.34966 2.69875 1.77194e-18)
(-2.35381 2.70352 -8.71667e-19)
(-2.35778 2.7081 2.13103e-18)
(-2.36158 2.71248 -1.25723e-18)
(-2.36522 2.71667 -6.53573e-24)
(-2.36869 2.72067 0)
(-2.372 2.72449 -1.57865e-18)
(-2.37515 2.72813 1.94042e-18)
(-2.37814 2.73158 0)
(-2.38098 2.73486 0)
(-2.38366 2.73797 1.46298e-18)
(-2.3862 2.7409 -7.22621e-19)
(-2.38858 2.74365 -1.76483e-18)
(-2.39081 2.74624 -1.03574e-18)
(-2.3929 2.74866 1.35946e-18)
(-2.39484 2.7509 -6.6584e-19)
(-2.39663 2.75298 6.51137e-19)
(-2.39827 2.7549 -6.42679e-19)
(-2.39978 2.75664 -1.25465e-18)
(-2.40113 2.75822 1.23446e-18)
(-2.40235 2.75963 -1.20848e-18)
(-2.40342 2.76088 0)
(-2.40434 2.76196 2.32106e-18)
(-2.40513 2.76288 -1.14067e-18)
(-2.40577 2.76363 -1.11379e-18)
(-2.40626 2.76421 5.48838e-19)
(-2.40662 2.76463 0)
(-2.40683 2.76489 5.24759e-19)
(-2.40689 2.76498 0)
(-2.40681 2.7649 5.03301e-19)
(-2.40659 2.76465 4.90633e-19)
(-2.40622 2.76424 -9.66881e-19)
(-2.40571 2.76366 0)
(-2.40505 2.76291 4.61935e-19)
(-2.40425 2.76198 1.80763e-18)
(-2.40329 2.76089 8.84002e-19)
(-2.40219 2.75963 -8.64428e-19)
(-2.40094 2.7582 7.67414e-24)
(-2.39954 2.75659 0)
(-2.39799 2.75481 -8.07154e-19)
(-2.39629 2.75286 -2.18525e-21)
(-2.39444 2.75072 -2.1817e-21)
(-2.39244 2.74842 0)
(-2.39028 2.74593 -7.342e-19)
(-2.38797 2.74327 1.43096e-18)
(-2.3855 2.74042 -2.19468e-21)
(-1.19827 1.38906 -8.66612e-18)
(-1.48583 1.72061 -8.43002e-18)
(-1.61373 1.86801 1.57378e-17)
(-1.69942 1.96719 -7.35813e-18)
(-1.76407 2.04165 0)
(-1.81556 2.10111 0)
(-1.85836 2.15046 0)
(-1.89493 2.19262 5.69131e-18)
(-1.92685 2.22941 -5.37984e-18)
(-1.95516 2.26203 3.18444e-19)
(-1.9806 2.29133 4.83956e-18)
(-2.00369 2.31792 -2.91692e-19)
(-2.02484 2.34225 -9.08167e-18)
(-2.04433 2.36468 3.95193e-18)
(-2.0624 2.38548 -5.05015e-19)
(-2.07926 2.40486 4.1219e-18)
(-2.09503 2.423 2.30039e-19)
(-2.10986 2.44004 -3.82584e-18)
(-2.12384 2.45611 0)
(-2.13705 2.4713 3.77526e-18)
(-2.14958 2.48569 -3.25031e-18)
(-2.16148 2.49937 3.93409e-19)
(-2.17281 2.51238 -3.81481e-19)
(-2.18361 2.52479 3.70313e-19)
(-2.19393 2.53665 0)
(-2.20379 2.54798 2.79746e-18)
(-2.21324 2.55883 -2.72575e-18)
(-2.22229 2.56923 3.31633e-19)
(-2.23098 2.57921 3.23195e-19)
(-2.23931 2.58879 -6.30324e-19)
(-2.24732 2.598 2.76596e-18)
(-2.25502 2.60685 -4.50333e-18)
(-2.26243 2.61537 2.34768e-18)
(-2.26955 2.62357 2.00429e-18)
(-2.27641 2.63146 -4.4827e-18)
(-2.28301 2.63906 2.19389e-18)
(-2.28937 2.64638 2.68112e-19)
(-2.29549 2.65342 -2.62414e-19)
(-2.30138 2.66021 2.05366e-18)
(-2.30706 2.66675 -1.76312e-18)
(-2.31252 2.67305 -9.84232e-19)
(-2.31777 2.67911 1.45101e-18)
(-2.32283 2.68495 -4.73471e-19)
(-2.32769 2.69056 1.85479e-18)
(-2.33236 2.69595 -1.82216e-18)
(-2.33685 2.70114 2.22962e-18)
(-2.34116 2.70612 -3.64841e-21)
(-2.34529 2.7109 -4.33051e-19)
(-2.34925 2.71548 -1.68681e-18)
(-2.35304 2.71987 -4.13306e-19)
(-2.35667 2.72407 1.21477e-18)
(-2.36013 2.72808 -1.59375e-18)
(-2.36343 2.7319 -3.90549e-19)
(-2.36657 2.73554 0)
(-2.36955 2.73901 -3.76172e-19)
(-2.37238 2.74229 -1.47486e-18)
(-2.37506 2.7454 1.81369e-18)
(-2.37759 2.74834 2.13183e-18)
(-2.37997 2.7511 -7.00009e-19)
(-2.38219 2.75369 0)
(-2.38427 2.75611 6.723e-19)
(-2.38621 2.75837 1.97723e-18)
(-2.388 2.76045 -1.29672e-18)
(-2.38964 2.76236 6.35179e-19)
(-2.39114 2.76411 -1.24433e-18)
(-2.39249 2.76569 4.06659e-21)
(-2.39371 2.76711 2.40071e-18)
(-2.39477 2.76836 0)
(-2.3957 2.76944 -7.54958e-24)
(-2.39648 2.77036 1.12908e-18)
(-2.39712 2.77112 -1.11109e-18)
(-2.39762 2.7717 0)
(-2.39797 2.77212 1.59623e-18)
(-2.39818 2.77238 -4.21429e-21)
(-2.39825 2.77247 -1.02525e-18)
(-2.39817 2.77239 4.99027e-19)
(-2.39795 2.77214 -4.92989e-19)
(-2.39759 2.77173 0)
(-2.39708 2.77114 0)
(-2.39642 2.77039 -4.3685e-24)
(-2.39562 2.76947 -8.2969e-24)
(-2.39467 2.76837 8.82386e-19)
(-2.39358 2.76711 -8.63215e-19)
(-2.39233 2.76567 2.18e-21)
(-2.39094 2.76406 4.35556e-21)
(-2.3894 2.76228 2.42342e-18)
(-2.3877 2.76032 7.88828e-19)