/*--------------------------------*- C++ -*----------------------------------*\
  =========                 |
  \\      /  F ield         | OpenFOAM: The Open Source CFD Toolbox
   \\    /   O peration     | Website:  https://openfoam.org
    \\  /    A nd           | Version:  10
     \\/     M anipulation  |
\*---------------------------------------------------------------------------*/
FoamFile
{
    format      ascii;
    class       volScalarField;
    location    "3400";
    object      k;
}
// * * * * * * * * * * * * * * * * * * * * * * * * * * * * * * * * * * * * * //

dimensions      [0 2 -2 0 0 0 0];

internalField   nonuniform List<scalar> 
420
(
2.22045e-16
2.22045e-16
2.22045e-16
2.22045e-16
2.22045e-16
2.22045e-16
2.22045e-16
2.22045e-16
2.22045e-16
2.22045e-16
2.22045e-16
2.22045e-16
2.22045e-16
2.22045e-16
2.22045e-16
2.22045e-16
2.22045e-16
2.22045e-16
2.22045e-16
2.22045e-16
2.22045e-16
2.22045e-16
2.22045e-16
2.22045e-16
2.22045e-16
2.22045e-16
2.22045e-16
2.22045e-16
2.22045e-16
2.22045e-16
2.22045e-16
2.22045e-16
2.22045e-16
2.22045e-16
2.22045e-16
2.22045e-16
2.22045e-16
2.22045e-16
2.22045e-16
2.22045e-16
2.22045e-16
2.22045e-16
2.22045e-16
2.22045e-16
2.22045e-16
2.22045e-16
2.22045e-16
2.22045e-16
2.22045e-16
2.22045e-16
2.22045e-16
2.22045e-16
2.22045e-16
2.22045e-16
2.22045e-16
2.22045e-16
2.22045e-16
2.22045e-16
2.22045e-16
2.22045e-16
2.22045e-16
2.22045e-16
2.22045e-16
2.22045e-16
2.22045e-16
2.22045e-16
2.22045e-16
2.22045e-16
2.22045e-16
2.22045e-16
2.22045e-16
2.22045e-16
2.22045e-16
2.22045e-16
2.22045e-16
2.22045e-16
2.22045e-16
2.22045e-16
2.22045e-16
2.22045e-16
2.22045e-16
2.22045e-16
2.22045e-16
2.22045e-16
2.22045e-16
2.22045e-16
2.22045e-16
2.22045e-16
2.22045e-16
2.22045e-16
2.22045e-16
2.22045e-16
2.22045e-16
2.22045e-16
2.22045e-16
2.22045e-16
2.22045e-16
2.22045e-16
2.22045e-16
2.22045e-16
2.22045e-16
2.22045e-16
2.2249e-16
2.80302e-16
3.40003e-16
2.92633e-16
2.63138e-16
2.22045e-16
2.37218e-16
2.22045e-16
2.22045e-16
2.22045e-16
2.22045e-16
2.81071e-16
3.39697e-16
2.90412e-16
2.59785e-16
2.22045e-16
2.34798e-16
2.22045e-16
2.22045e-16
2.22045e-16
2.22045e-16
2.82361e-16
3.37877e-16
2.88149e-16
2.55988e-16
2.22045e-16
2.28977e-16
2.22045e-16
2.22045e-16
2.22045e-16
2.22045e-16
2.84229e-16
3.34967e-16
2.86102e-16
2.52384e-16
2.22045e-16
2.23337e-16
2.22045e-16
2.22045e-16
2.22045e-16
2.22045e-16
2.86807e-16
3.3104e-16
2.84372e-16
2.49274e-16
2.22045e-16
2.22045e-16
2.22045e-16
2.22045e-16
2.22045e-16
2.22045e-16
2.90234e-16
3.29098e-16
2.83167e-16
2.47011e-16
2.22045e-16
2.22045e-16
2.22045e-16
2.22045e-16
2.22045e-16
2.22045e-16
2.94297e-16
3.27999e-16
2.82591e-16
2.45529e-16
2.22045e-16
2.22045e-16
2.22045e-16
2.22045e-16
2.22045e-16
2.22045e-16
2.98732e-16
3.27306e-16
2.82403e-16
2.44748e-16
2.22045e-16
2.22045e-16
2.22045e-16
2.22045e-16
2.22045e-16
2.28555e-16
3.03674e-16
3.26934e-16
2.82497e-16
2.4478e-16
2.22045e-16
2.22045e-16
2.22045e-16
2.22045e-16
2.22045e-16
2.41969e-16
3.08524e-16
3.2671e-16
2.82667e-16
2.4548e-16
2.22045e-16
2.22045e-16
2.22045e-16
2.22045e-16
2.22045e-16
2.61191e-16
3.11753e-16
3.26838e-16
2.83418e-16
2.47082e-16
2.22045e-16
2.22045e-16
2.22045e-16
2.22045e-16
2.22045e-16
2.72376e-16
3.12333e-16
3.26429e-16
2.83559e-16
2.47992e-16
2.22045e-16
2.22045e-16
2.22045e-16
2.22045e-16
2.24949e-16
2.79933e-16
3.10855e-16
3.24381e-16
2.81989e-16
2.48107e-16
2.22045e-16
2.22045e-16
2.22045e-16
2.22045e-16
2.5461e-16
2.76283e-16
3.05406e-16
3.22423e-16
2.80814e-16
2.49392e-16
2.22045e-16
2.22045e-16
2.22045e-16
2.37781e-16
2.51348e-16
2.67203e-16
2.99874e-16
3.22081e-16
2.81119e-16
2.51905e-16
2.22045e-16
2.22045e-16
2.22045e-16
2.34798e-16
2.41254e-16
2.57111e-16
2.94319e-16
3.22555e-16
2.81816e-16
2.54969e-16
2.22045e-16
2.22045e-16
2.22045e-16
2.27486e-16
2.31857e-16
2.47669e-16
2.89206e-16
3.23896e-16
2.83152e-16
2.58493e-16
2.22045e-16
2.22045e-16
2.22045e-16
2.22045e-16
2.24846e-16
2.39549e-16
2.84877e-16
3.25943e-16
2.85277e-16
2.62331e-16
2.22045e-16
2.24943e-16
2.22045e-16
2.22045e-16
2.22045e-16
2.33021e-16
2.81349e-16
3.27942e-16
2.88248e-16
2.66435e-16
2.22045e-16
2.28171e-16
2.22045e-16
2.22045e-16
2.22045e-16
2.2868e-16
2.7904e-16
3.30016e-16
2.91741e-16
2.70734e-16
2.24285e-16
2.2774e-16
2.22045e-16
2.22045e-16
2.22045e-16
2.26024e-16
2.78688e-16
3.32896e-16
2.94665e-16
2.74806e-16
2.24752e-16
2.23659e-16
2.22045e-16
2.22045e-16
2.22045e-16
2.24218e-16
2.79395e-16
3.35163e-16
2.94816e-16
2.77198e-16
2.22428e-16
2.28199e-16
2.22045e-16
2.22045e-16
2.22045e-16
2.22045e-16
2.25868e-16
2.23664e-16
2.22045e-16
2.22045e-16
2.22045e-16
2.22045e-16
2.22045e-16
2.22045e-16
2.22045e-16
2.22045e-16
2.22045e-16
2.22045e-16
2.22045e-16
2.22045e-16
2.22045e-16
2.22045e-16
2.22045e-16
2.22045e-16
2.22045e-16
2.22045e-16
2.22045e-16
2.22045e-16
2.22045e-16
2.22045e-16
2.22045e-16
2.22045e-16
2.22045e-16
2.22045e-16
2.22045e-16
2.22045e-16
2.22045e-16
2.22045e-16
2.22045e-16
2.22045e-16
2.22045e-16
2.22045e-16
2.22045e-16
2.22045e-16
2.22045e-16
2.22045e-16
2.22045e-16
2.22045e-16
2.22045e-16
2.22045e-16
2.22045e-16
2.22045e-16
2.22045e-16
2.22045e-16
2.22045e-16
2.22045e-16
2.22045e-16
2.22045e-16
2.22045e-16
2.22045e-16
2.22045e-16
2.22045e-16
2.22045e-16
2.22045e-16
2.22045e-16
2.22045e-16
2.22045e-16
2.22045e-16
2.22045e-16
2.22045e-16
2.22045e-16
2.22045e-16
2.22045e-16
2.22045e-16
2.22045e-16
2.22045e-16
2.22045e-16
2.22045e-16
2.22045e-16
2.22045e-16
2.22045e-16
2.22045e-16
2.22045e-16
2.22045e-16
2.22045e-16
2.22045e-16
2.22045e-16
2.22045e-16
2.22045e-16
2.22045e-16
2.22045e-16
2.22045e-16
2.22045e-16
2.22045e-16
2.22045e-16
2.22045e-16
2.22045e-16
2.22045e-16
2.22045e-16
2.22045e-16
2.22045e-16
2.22045e-16
2.22045e-16
)
;

boundaryField
{
    right
    {
        type            cyclic;
    }
    left
    {
        type            cyclic;
    }
    outerWall
    {
        type            kqRWallFunction;
        value           uniform 2.22045e-16;
    }
    stirrerWall
    {
        type            kqRWallFunction;
        value           uniform 2.22045e-16;
    }
    top
    {
        type            empty;
    }
    bottom
    {
        type            empty;
    }
}


// ************************************************************************* //
