/*--------------------------------*- C++ -*----------------------------------*\
  =========                 |
  \\      /  F ield         | OpenFOAM: The Open Source CFD Toolbox
   \\    /   O peration     | Website:  https://openfoam.org
    \\  /    A nd           | Version:  10
     \\/     M anipulation  |
\*---------------------------------------------------------------------------*/
FoamFile
{
    format      ascii;
    class       volScalarField;
    location    "3400";
    object      nut;
}
// * * * * * * * * * * * * * * * * * * * * * * * * * * * * * * * * * * * * * //

dimensions      [0 2 -1 0 0 0 0];

internalField   nonuniform List<scalar> 
420
(
1.04478e-20
6.24178e-20
1.746e-19
3.35457e-19
5.16266e-19
6.90264e-19
8.19504e-19
8.58002e-19
7.87168e-19
6.50202e-19
1.04473e-20
6.31942e-20
1.72467e-19
3.24788e-19
4.96858e-19
6.61867e-19
7.82091e-19
8.12712e-19
7.32901e-19
5.90766e-19
1.04471e-20
6.26969e-20
1.68997e-19
3.13164e-19
4.7456e-19
6.2928e-19
7.40885e-19
7.61449e-19
6.68809e-19
5.23314e-19
1.04472e-20
6.23247e-20
1.66829e-19
3.04188e-19
4.54056e-19
5.95566e-19
6.9403e-19
6.98733e-19
5.93152e-19
4.50208e-19
1.04476e-20
6.26158e-20
1.66091e-19
2.94597e-19
4.26992e-19
5.46563e-19
6.23779e-19
6.12088e-19
5.03589e-19
3.72982e-19
1.04483e-20
6.28207e-20
1.60992e-19
2.6782e-19
3.6687e-19
4.51166e-19
5.03262e-19
4.89755e-19
4.00193e-19
2.93218e-19
1.04493e-20
5.99706e-20
1.35414e-19
1.98968e-19
2.52958e-19
3.00083e-19
3.34337e-19
3.37999e-19
2.87768e-19
2.12871e-19
1.04506e-20
4.77076e-20
7.99818e-20
1.035e-19
1.2568e-19
1.47902e-19
1.68859e-19
1.83922e-19
1.74172e-19
1.34717e-19
1.04522e-20
2.15238e-20
2.79926e-20
3.45526e-20
4.16385e-20
4.93049e-20
5.74544e-20
6.56796e-20
7.25709e-20
6.41972e-20
2.82342e-21
3.6643e-21
4.61494e-21
5.67535e-21
6.84552e-21
8.12545e-21
9.51514e-21
1.10146e-20
1.26238e-20
1.43428e-20
5.2363e-19
4.57452e-19
4.85627e-19
7.68969e-19
1.18073e-18
1.1775e-18
8.33526e-19
5.49528e-19
2.18911e-19
6.20016e-20
4.69063e-19
4.16089e-19
4.6198e-19
7.67908e-19
1.18974e-18
1.17982e-18
8.07574e-19
5.39802e-19
2.01674e-19
6.20034e-20
4.1069e-19
3.74143e-19
4.41222e-19
7.73655e-19
1.19858e-18
1.17353e-18
8.07544e-19
5.32109e-19
1.96405e-19
6.2004e-20
3.50496e-19
3.3232e-19
4.22397e-19
7.8576e-19
1.12618e-18
1.17409e-18
8.17703e-19
5.24645e-19
1.94098e-19
6.20033e-20
2.89383e-19
2.90798e-19
4.05373e-19
8.03914e-19
9.60333e-19
1.1869e-18
8.43937e-19
5.19711e-19
1.97119e-19
6.20012e-20
2.28243e-19
2.49791e-19
3.90153e-19
7.94765e-19
9.17203e-19
1.20323e-18
8.74667e-19
5.20661e-19
1.99733e-19
6.19978e-20
1.68715e-19
2.09743e-19
3.7701e-19
8.13906e-19
9.27382e-19
1.2004e-18
8.97963e-19
5.24501e-19
2.0328e-19
6.19932e-20
1.13158e-19
1.7138e-19
3.67338e-19
8.50339e-19
9.51215e-19
1.19915e-18
8.97212e-19
5.31064e-19
2.07516e-19
6.19873e-20
6.52125e-20
1.36021e-19
3.75682e-19
8.83636e-19
9.76423e-19
1.19903e-18
8.98882e-19
5.38471e-19
2.12083e-19
6.19801e-20
3.0107e-20
1.06402e-19
4.12211e-19
8.92913e-19
1.009e-18
1.19943e-18
9.02606e-19
5.44817e-19
2.16921e-19
6.19718e-20
1.03958e-20
8.91406e-20
5.043e-19
8.61029e-19
9.94485e-19
1.20129e-18
9.08753e-19
5.51721e-19
2.23089e-19
6.20994e-20
1.03958e-20
1.10898e-19
6.20261e-19
7.97368e-19
9.22534e-19
1.10343e-18
9.11541e-19
5.4753e-19
2.20995e-19
6.20994e-20
6.50695e-20
2.95989e-19
6.347e-19
7.86956e-19
9.27131e-19
1.14402e-18
8.9671e-19
5.41586e-19
2.1683e-19
6.19718e-20
2.89726e-19
5.3123e-19
6.52509e-19
8.13769e-19
9.85686e-19
1.19602e-18
9.21998e-19
5.51952e-19
2.20231e-19
6.19801e-20
5.40523e-19
5.80508e-19
6.65888e-19
8.27702e-19
1.01677e-18
1.19917e-18
9.37598e-19
5.61504e-19
2.2674e-19
6.19873e-20
6.17099e-19
6.15417e-19
6.81152e-19
8.50358e-19
1.06366e-18
1.20294e-18
9.56433e-19
5.72554e-19
2.34436e-19
6.19932e-20
6.57022e-19
6.367e-19
6.9123e-19
8.7372e-19
1.12167e-18
1.20687e-18
9.75762e-19
5.82084e-19
2.42346e-19
6.19978e-20
6.7928e-19
6.33804e-19
6.60642e-19
8.68513e-19
1.17688e-18
1.21044e-18
9.93725e-19
5.87407e-19
2.51976e-19
6.20012e-20
6.7652e-19
5.99239e-19
6.15152e-19
8.32863e-19
1.1641e-18
1.21279e-18
1.00739e-18
5.85037e-19
2.57837e-19
6.20033e-20
6.50172e-19
5.6861e-19
5.7596e-19
8.025e-19
1.1528e-18
1.21628e-18
1.01607e-18
5.83061e-19
2.42415e-19
6.2004e-20
6.15426e-19
5.33615e-19
5.41073e-19
7.8065e-19
1.14926e-18
1.22068e-18
1.0224e-18
5.1317e-19
2.39877e-19
6.20034e-20
5.72661e-19
4.95409e-19
5.09445e-19
7.66784e-19
1.15166e-18
1.19157e-18
9.50866e-19
5.62005e-19
2.14896e-19
6.20016e-20
1.43428e-20
1.16307e-19
4.1723e-19
6.69937e-19
7.38384e-19
7.80023e-19
7.81942e-19
7.66804e-19
7.39688e-19
7.01248e-19
1.26238e-20
8.54055e-20
2.99189e-19
5.85942e-19
7.6002e-19
8.3862e-19
8.73793e-19
8.77243e-19
8.61784e-19
8.3256e-19
1.10146e-20
6.43701e-20
2.0275e-19
4.36775e-19
6.52823e-19
7.93356e-19
8.75135e-19
9.08644e-19
9.08949e-19
8.92883e-19
9.51514e-21
5.15435e-20
1.4164e-19
2.86516e-19
4.59859e-19
6.17776e-19
7.36047e-19
8.09368e-19
8.3652e-19
8.3909e-19
8.12545e-21
4.37332e-20
1.11772e-19
2.09215e-19
3.27271e-19
4.48652e-19
5.55391e-19
6.36198e-19
6.79821e-19
6.96663e-19
6.84552e-21
3.76144e-20
9.45728e-20
1.69107e-19
2.53829e-19
3.39856e-19
4.16864e-19
4.75856e-19
5.08068e-19
5.20143e-19
5.67535e-21
3.20009e-20
8.16087e-20
1.42927e-19
2.05866e-19
2.6254e-19
3.06427e-19
3.3339e-19
3.4164e-19
3.40917e-19
4.61494e-21
2.64626e-20
6.79022e-20
1.13184e-19
1.4872e-19
1.71023e-19
1.81868e-19
1.84114e-19
1.80014e-19
1.76681e-19
3.6643e-21
2.06795e-20
4.45329e-20
5.83902e-20
6.32415e-20
6.44942e-20
6.43394e-20
6.32352e-20
6.20713e-20
6.20241e-20
2.82342e-21
1.04522e-20
1.04506e-20
1.04493e-20
1.04483e-20
1.04476e-20
1.04472e-20
1.04471e-20
1.04473e-20
1.04478e-20
)
;

boundaryField
{
    right
    {
        type            cyclic;
    }
    left
    {
        type            cyclic;
    }
    outerWall
    {
        type            nutkWallFunction;
        Cmu             0.09;
        kappa           0.41;
        E               9.8;
        value           uniform 0;
    }
    stirrerWall
    {
        type            nutkWallFunction;
        Cmu             0.09;
        kappa           0.41;
        E               9.8;
        value           uniform 0;
    }
    top
    {
        type            empty;
    }
    bottom
    {
        type            empty;
    }
}


// ************************************************************************* //
