/*--------------------------------*- C++ -*----------------------------------*\
  =========                 |
  \\      /  F ield         | OpenFOAM: The Open Source CFD Toolbox
   \\    /   O peration     | Website:  https://openfoam.org
    \\  /    A nd           | Version:  10
     \\/     M anipulation  |
\*---------------------------------------------------------------------------*/
FoamFile
{
    format      ascii;
    class       volScalarField;
    location    "3400";
    object      omega;
}
// * * * * * * * * * * * * * * * * * * * * * * * * * * * * * * * * * * * * * //

dimensions      [0 0 -1 0 0 0 0];

internalField   nonuniform List<scalar> 
420
(
21252.7
3557.39
1271.73
661.916
430.097
321.681
270.95
258.792
282.08
341.501
21253.7
3513.68
1287.46
683.661
446.897
335.482
283.912
273.214
302.967
375.859
21254.2
3541.56
1313.9
709.036
467.895
352.855
299.702
291.608
332
424.305
21254
3562.7
1330.97
729.958
489.024
372.83
319.935
317.782
374.347
493.205
21253.2
3546.14
1336.89
753.722
520.021
406.256
355.967
362.766
440.924
595.323
21251.7
3534.58
1379.23
829.083
605.241
492.157
441.211
453.379
554.844
757.267
21249.7
3702.56
1639.75
1115.98
877.792
739.945
664.134
656.938
771.61
1043.1
21247.1
4654.28
2776.19
2145.36
1766.75
1501.29
1314.97
1207.28
1274.86
1648.23
21243.8
10316.2
7932.27
6426.28
5332.68
4503.5
3864.71
3380.73
3059.69
3458.79
78643.9
60596.7
48114.3
39124.4
32436.5
27327.1
23335.9
20159.1
17589.3
15481.3
424.049
485.394
458.151
364.517
287.959
239.628
272.275
404.064
1034.71
3581.27
473.379
533.647
480.637
366.022
285.523
238.249
273.016
411.345
1073.52
3581.17
540.662
593.476
503.249
364.97
281.897
236.949
273.372
417.292
1105.16
3581.13
633.515
668.165
525.678
361.725
277.798
235.968
273.585
423.228
1127.34
3581.18
767.303
763.57
547.753
356.763
273.754
235.414
273.784
427.246
1126.45
3581.3
972.843
888.922
569.122
350.546
270.142
235.338
273.794
426.467
1111.71
3581.49
1316.09
1058.65
588.961
343.494
267.258
235.415
273.429
423.345
1092.31
3581.76
1962.25
1295.63
604.47
335.818
264.99
235.502
272.787
418.113
1070.01
3582.1
3404.94
1632.43
608.375
326.822
263.385
235.605
272.317
412.362
1046.97
3582.51
7375.17
2086.85
587.003
316.929
262.593
235.668
271.968
407.558
1023.62
3582.99
21359.1
2490.95
517.927
307.259
262.799
235.928
271.892
402.458
995.318
3575.63
21359.1
2002.25
439.132
302.642
263.039
235.96
272.058
405.539
1004.75
3575.63
3412.42
759.993
362.034
299.429
262.689
235.709
272.477
409.99
1024.05
3582.99
766.396
402.777
331.877
300.21
263.528
234.789
270.491
402.29
1008.24
3582.51
382.586
341.936
330.827
304.583
265.67
234.428
268.671
395.446
979.293
3582.1
324.073
336.468
337.866
310.896
268.648
234.272
266.583
387.814
947.142
3581.76
316.639
343.091
348.769
318.83
272.475
234.617
264.914
381.465
916.229
3581.49
319.865
354.756
362.601
328.005
276.955
235.681
263.987
378.008
892.715
3581.3
328.216
370.545
378.802
337.809
281.713
237.674
264.48
379.539
884.941
3581.18
341.517
390.504
397.04
347.714
286.273
239.864
266.453
384.668
902.364
3581.13
360.798
416.114
417.732
356.995
289.66
241.394
268.784
390.83
932.39
3581.17
387.742
448.205
440.123
364.372
291.026
241.538
270.671
395.775
993.377
3581.27
15481.3
1909.12
532.188
330.947
293.614
284.664
283.966
289.571
300.187
316.642
17589.3
2599.89
742.154
378.953
292.156
264.774
254.116
253.116
257.657
266.701
20159.1
3449.5
1095.16
508.373
340.13
279.88
253.726
244.369
244.287
248.683
23335.9
4307.91
1567.67
774.981
482.853
359.426
301.672
274.343
265.438
264.625
27327.1
5077.26
1986.59
1061.32
678.473
494.915
399.799
349.018
326.622
318.726
32436.5
5903.19
2347.87
1313.04
874.78
653.348
532.655
466.621
437.037
426.891
39124.4
6938.69
2720.85
1553.55
1078.59
845.756
724.624
666.02
649.937
651.315
48114.3
8390.89
3270.07
1961.8
1493.04
1298.33
1220.91
1206.02
1233.49
1256.75
60596.7
10737.4
4986.08
3802.77
3511.06
3442.86
3451.15
3511.41
3577.25
3579.97
78643.9
21243.8
21247.1
21249.7
21251.7
21253.2
21254
21254.2
21253.7
21252.7
)
;

boundaryField
{
    right
    {
        type            cyclic;
    }
    left
    {
        type            cyclic;
    }
    outerWall
    {
        beta1           0.075;
        blended         0;
        type            omegaWallFunction;
        value           nonuniform List<scalar> 
22
(
3581.27
3581.17
3581.13
3581.18
3581.3
3581.49
3581.76
3582.1
3582.51
3582.99
3575.63
3575.63
3582.99
3582.51
3582.1
3581.76
3581.49
3581.3
3581.18
3581.13
3581.17
3581.27
)
;
    }
    stirrerWall
    {
        beta1           0.075;
        blended         0;
        type            omegaWallFunction;
        value           nonuniform List<scalar> 
42
(
21252.7
21253.7
21254.2
21254
21253.2
21251.7
21249.7
21247.1
21243.8
78643.9
78643.9
60596.7
48114.3
39124.4
32436.5
27327.1
23335.9
20159.1
17589.3
15481.3
21359.1
21359.1
15481.3
17589.3
20159.1
23335.9
27327.1
32436.5
39124.4
48114.3
60596.7
78643.9
78643.9
21243.8
21247.1
21249.7
21251.7
21253.2
21254
21254.2
21253.7
21252.7
)
;
    }
    top
    {
        type            empty;
    }
    bottom
    {
        type            empty;
    }
}


// ************************************************************************* //
