/*--------------------------------*- C++ -*----------------------------------*\
  =========                 |
  \\      /  F ield         | OpenFOAM: The Open Source CFD Toolbox
   \\    /   O peration     | Website:  https://openfoam.org
    \\  /    A nd           | Version:  10
     \\/     M anipulation  |
\*---------------------------------------------------------------------------*/
FoamFile
{
    format      ascii;
    class       volScalarField;
    location    "3400";
    object      p;
}
// * * * * * * * * * * * * * * * * * * * * * * * * * * * * * * * * * * * * * //

dimensions      [0 2 -2 0 0 0 0];

internalField   nonuniform List<scalar> 
420
(
0.254082
17.3495
33.9804
52.768
72.9314
93.9158
115.299
136.551
157.239
176.883
1.77677
17.4248
33.5204
51.9014
71.7952
92.6811
114.157
135.655
156.626
176.573
2.1954
17.3495
33.0379
51.0117
70.6062
91.3751
112.929
134.646
155.918
176.21
2.12377
17.1313
32.5287
50.127
69.4101
90.0137
111.584
133.506
155.126
175.819
1.98839
16.9002
32.0409
49.2678
68.2058
88.5796
110.105
132.214
154.215
175.38
1.87885
16.7412
31.6382
48.4806
67.0251
87.0969
108.493
130.754
153.16
174.877
1.79979
16.6954
31.3701
47.8097
65.9101
85.5946
106.755
129.092
151.932
174.349
1.7423
16.7796
31.267
47.2891
64.9047
84.1174
104.912
127.149
150.371
173.619
1.65742
17.0202
31.3435
46.9526
64.0943
82.793
103.071
124.892
148.036
171.728
1.46538
17.3723
31.4056
46.6526
63.4323
81.7168
101.489
122.677
145.021
168.115
195.064
212.191
228.325
243.049
256.133
268.05
275.823
284.253
289.128
309.136
195.015
212.309
228.508
243.262
256.408
268.495
276.716
285.844
293.383
315.736
194.962
212.465
228.771
243.645
257.006
269.449
278.274
288.332
298.14
321.425
194.925
212.657
229.088
244.144
257.804
270.683
280.206
291.393
303.152
325.385
194.893
212.855
229.414
244.697
258.695
272.05
282.321
294.576
307.66
329.157
194.868
213.04
229.725
245.269
259.599
273.419
284.38
297.41
311.226
332.816
194.962
213.199
229.944
245.798
260.457
274.697
286.169
299.668
314.123
335.999
195.163
213.298
229.984
246.224
261.253
275.847
287.622
301.606
317.258
339.285
194.88
213.558
230.136
246.666
262.025
276.862
288.839
303.787
321.645
342.585
193.584
214.611
231.024
247.38
262.827
277.732
289.805
306.242
325.715
345.806
193.527
215.537
232.108
248.279
263.56
278.511
289.787
307.056
324.612
346.846
194.903
215.844
232.733
248.705
263.809
278.608
289.71
306.59
322.267
345.7
199.502
216.518
233.26
249.204
264.246
278.745
290.439
305.99
322.195
345.533
199.066
216.21
233.04
249.114
264.203
278.635
290.363
305.687
322.782
345.422
197.878
215.437
232.449
248.638
263.791
278.233
290.062
305.591
322.558
344.142
196.927
214.578
231.684
247.919
263.081
277.495
289.318
304.728
320.914
341.232
196.276
213.84
230.889
247.051
262.119
276.474
288.337
303.454
318.149
336.644
195.834
213.223
230.09
246.05
260.905
275.178
287.101
301.712
315.019
333.391
195.512
212.698
229.313
244.965
259.471
273.484
285.021
298.603
312.201
335.491
195.268
212.29
228.671
243.992
258.04
271.397
281.414
292.691
307.237
337.741
195.117
212.085
228.327
243.385
256.982
269.493
277.283
285.611
297.149
316.43
195.114
212.141
228.298
243.143
256.394
268.432
275.751
283.759
289.82
297.216
182.742
180.39
179.047
178.339
177.943
177.716
177.567
177.432
177.275
177.121
157.024
157.536
157.939
158.148
158.266
158.341
158.358
158.278
158.052
157.706
130.196
133.043
135.337
136.718
137.527
137.984
138.178
138.127
137.808
137.266
105.881
109.136
112.381
114.64
116.086
116.929
117.31
117.3
116.929
116.243
84.284
86.9403
90.0963
92.6561
94.4331
95.525
96.0492
96.0841
95.6982
94.9532
64.9351
66.8021
69.2759
71.5336
73.2439
74.3518
74.906
74.9651
74.6028
73.8993
47.6084
48.7625
50.3263
51.8941
53.1691
54.0189
54.4357
54.4527
54.1234
53.5353
32.2019
32.7516
33.4275
34.1378
34.7455
35.1452
35.2911
35.1867
34.8761
34.4521
18.7159
18.6342
18.5632
18.5474
18.5482
18.4966
18.3513
18.1122
17.8076
17.5193
6.33698
5.20826
4.22479
3.58237
3.1288
2.73619
2.34674
1.97085
1.64721
1.23438
)
;

boundaryField
{
    right
    {
        type            cyclic;
    }
    left
    {
        type            cyclic;
    }
    outerWall
    {
        type            zeroGradient;
    }
    stirrerWall
    {
        type            zeroGradient;
    }
    top
    {
        type            empty;
    }
    bottom
    {
        type            empty;
    }
}


// ************************************************************************* //
