/*--------------------------------*- C++ -*----------------------------------*\
  =========                 |
  \\      /  F ield         | OpenFOAM: The Open Source CFD Toolbox
   \\    /   O peration     | Website:  https://openfoam.org
    \\  /    A nd           | Version:  10
     \\/     M anipulation  |
\*---------------------------------------------------------------------------*/
FoamFile
{
    format      ascii;
    class       surfaceScalarField;
    location    "3400";
    object      phi;
}
// * * * * * * * * * * * * * * * * * * * * * * * * * * * * * * * * * * * * * //

dimensions      [0 3 -1 0 0 0 0];

internalField   nonuniform List<scalar> 
788
(
2.4654e-07
-5.52776e-06
1.60267e-06
1.21748e-05
3.41052e-06
1.70963e-05
5.40857e-06
1.79897e-05
7.24414e-06
1.57282e-05
8.68123e-06
1.07519e-05
9.65256e-06
3.19953e-06
1.02622e-05
-6.54476e-06
1.0377e-05
-1.84741e-05
-3.28865e-05
9.8891e-06
-7.86057e-08
-5.44708e-06
1.58132e-06
1.05365e-05
3.75397e-06
1.49811e-05
5.99459e-06
1.58224e-05
7.98077e-06
1.38121e-05
9.51884e-06
9.28796e-06
1.04567e-05
2.34341e-06
1.0666e-05
-6.67936e-06
1.01216e-05
-1.78699e-05
-3.18316e-05
9.10872e-06
1.8846e-07
-5.62352e-06
1.99128e-06
8.77973e-06
4.40002e-06
1.26339e-05
6.84338e-06
1.34439e-05
8.88997e-06
1.18305e-05
1.02431e-05
8.00671e-06
1.06571e-05
2.00915e-06
1.01164e-05
-6.06597e-06
8.88572e-06
-1.65938e-05
-3.03864e-05
7.46198e-06
2.87846e-07
-5.89746e-06
2.05027e-06
7.06542e-06
4.46392e-06
1.02763e-05
6.92387e-06
1.10412e-05
8.91557e-06
9.90173e-06
1.00465e-05
6.94581e-06
1.00542e-05
2.06855e-06
9.03308e-06
-5.00151e-06
7.36842e-06
-1.49252e-05
-2.86731e-05
5.62971e-06
1.95023e-07
-6.07852e-06
1.7548e-06
5.55016e-06
4.04491e-06
8.03766e-06
6.43092e-06
8.70693e-06
8.3717e-06
8.01818e-06
9.42078e-06
5.95642e-06
9.2865e-06
2.25065e-06
8.05726e-06
-3.75653e-06
6.04943e-06
-1.29419e-05
-2.65383e-05
3.86421e-06
-1.03821e-07
-5.9608e-06
1.18055e-06
4.30461e-06
3.31552e-06
5.94797e-06
5.62308e-06
6.4448e-06
7.57456e-06
6.11697e-06
8.71276e-06
4.86777e-06
8.67972e-06
2.31854e-06
7.36542e-06
-2.44036e-06
4.90556e-06
-1.05176e-05
-2.36949e-05
2.00244e-06
-5.87825e-07
-5.3599e-06
4.13853e-07
3.33486e-06
2.38906e-06
4.01058e-06
4.61129e-06
4.26161e-06
6.60449e-06
4.16716e-06
7.9209e-06
3.59317e-06
8.09491e-06
2.17404e-06
6.67886e-06
-1.02132e-06
3.56167e-06
-7.42695e-06
-1.98927e-05
-2.88404e-07
-1.25629e-06
-4.09243e-06
-4.28331e-07
2.53257e-06
1.38144e-06
2.23257e-06
3.41749e-06
2.26032e-06
5.34756e-06
2.27529e-06
6.81977e-06
2.15729e-06
7.30841e-06
1.71406e-06
6.01824e-06
2.83186e-07
2.22704e-06
-3.63678e-06
-1.47437e-05
-2.92866e-06
-2.08399e-06
-1.99931e-06
-1.03693e-06
1.50671e-06
4.9855e-07
7.25085e-07
2.11724e-06
6.69716e-07
3.75408e-06
6.63568e-07
5.24601e-06
6.89545e-07
6.23321e-06
7.57794e-07
5.83783e-06
7.17687e-07
2.33891e-06
-9.80396e-08
-7.3008e-06
-5.06825e-06
-1.99277e-06
-4.75939e-07
2.57614e-07
9.34258e-07
1.60653e-06
2.31203e-06
3.09584e-06
3.84774e-06
3.78856e-06
-3.48211e-06
9.1199e-06
-5.1275e-05
8.693e-06
-8.29716e-05
8.94776e-06
-0.000127327
9.60148e-06
-0.000182918
1.07713e-05
-0.000251866
1.39462e-05
-0.000344535
1.74572e-05
-0.000419612
1.78583e-05
-0.000578305
2.23628e-05
-0.000739805
-0.000209609
8.12426e-06
-5.02693e-05
7.80649e-06
-8.2661e-05
8.14449e-06
-0.000127718
8.55058e-06
-0.000183463
8.8697e-06
-0.000252391
1.00818e-05
-0.00034585
1.1476e-05
-0.000421002
1.06278e-05
-0.000577152
7.14863e-06
-0.000736546
-0.000202507
6.38187e-06
-4.91785e-05
6.23565e-06
-8.24943e-05
6.63035e-06
-0.000128078
6.80063e-06
-0.000183662
6.50283e-06
-0.000252231
6.45592e-06
-0.00034578
6.53281e-06
-0.000421221
4.11703e-06
-0.000574695
-2.97926e-06
-0.000729436
-0.000205529
4.43602e-06
-4.80146e-05
4.40726e-06
-8.24712e-05
4.73059e-06
-0.000128382
4.61275e-06
-0.000183574
3.8913e-06
-0.00025161
2.92285e-06
-0.00034478
2.2764e-06
-0.000420641
-1.74299e-06
-0.000570686
-1.04636e-05
-0.000720628
-0.000216039
2.48566e-06
-4.66809e-05
2.58257e-06
-8.25761e-05
2.81083e-06
-0.000128596
2.44061e-06
-0.000183246
1.47539e-06
-0.000250703
-1.33303e-07
-0.00034313
-1.16981e-06
-0.000419654
-6.37025e-06
-0.000565476
-1.50263e-05
-0.000711891
-0.000231107
5.43183e-07
-4.52737e-05
8.78851e-07
-8.29243e-05
1.01953e-06
-0.000128727
4.49809e-07
-0.000182719
-6.16184e-07
-0.000249654
-2.59722e-06
-0.00034108
-3.74139e-06
-0.000418579
-8.91821e-06
-0.000560277
-1.62772e-05
-0.000704463
-0.000247429
-1.31566e-06
-4.42916e-05
-6.22375e-07
-8.36368e-05
-5.8809e-07
-0.000128766
-1.30348e-06
-0.000182056
-2.38382e-06
-0.000248568
-4.58388e-06
-0.000338784
-5.72827e-06
-0.000417523
-1.106e-05
-0.00055493
-1.67403e-05
-0.000698729
-0.000264222
-2.78853e-06
-4.44334e-05
-1.82053e-06
-8.46016e-05
-1.92758e-06
-0.000128661
-2.71928e-06
-0.000181323
-3.77636e-06
-0.0002475
-6.09547e-06
-0.000336362
-6.77942e-06
-0.000416948
-1.15521e-05
-0.000550171
-1.63888e-05
-0.00069384
-0.000280674
-3.2824e-06
-4.61902e-05
-2.28714e-06
-8.55737e-05
-2.72494e-06
-0.000128219
-3.64904e-06
-0.000180454
-4.65194e-06
-0.000246492
-7.2114e-06
-0.000333716
-7.8695e-06
-0.000416394
-1.05748e-05
-0.000547516
-1.58473e-05
-0.000688513
-0.000296548
-1.92621e-08
-4.96454e-05
-1.05753e-06
-8.44665e-05
-3.02334e-06
-0.000126234
-4.33169e-06
-0.000179196
-5.16658e-06
-0.000245673
-7.66783e-06
-0.000331198
-8.61751e-06
-0.000415471
-1.12481e-05
-0.000544874
-1.58897e-05
-0.000683914
-0.000312469
-2.14099e-08
-4.95858e-05
-1.73092e-06
-8.27101e-05
-3.19617e-06
-0.00012477
-4.03603e-06
-0.000178422
-3.97858e-06
-0.000245714
-4.06175e-06
-0.000331083
-4.88782e-06
-0.000414703
-1.65632e-06
-0.000548113
-2.68494e-06
-0.000682881
-0.000315162
1.096e-06
-5.06555e-05
2.29922e-08
-8.15761e-05
-1.09549e-06
-0.000123653
-1.63068e-06
-0.000177959
-1.63683e-06
-0.000245669
-1.8706e-06
-0.000330802
-2.47033e-06
-0.000414176
-3.75838e-07
-0.000550222
-1.65845e-06
-0.000681605
-0.000316804
-3.57443e-06
-4.4074e-05
-2.96448e-06
-5.79091e-06
-7.91902e-05
-7.34427e-06
-0.000122093
-8.64747e-06
-0.000176752
-9.80026e-06
-0.000244522
-1.17358e-05
-0.000328854
-1.13818e-05
-0.000414576
-1.32716e-05
-0.000548279
-1.47137e-05
-0.000680215
-0.000331527
-8.65641e-06
-4.60507e-05
1.07551e-05
-8.48743e-06
-7.92315e-05
-8.7788e-06
-0.000121852
-9.3209e-06
-0.000176349
-9.85508e-06
-0.000244004
-1.12953e-05
-0.000327356
-1.2562e-05
-0.000413379
-1.19202e-05
-0.000548872
-1.64561e-05
-0.000675671
-0.000347991
-1.05983e-05
-4.85133e-05
1.31559e-05
-9.48394e-06
-8.02865e-05
-9.14995e-06
-0.000122262
-9.28983e-06
-0.000176359
-9.57392e-06
-0.00024375
-1.07678e-05
-0.000326101
-1.31063e-05
-0.00041106
-1.24423e-05
-0.00054954
-1.59328e-05
-0.000672173
-0.000363944
-9.73712e-06
-5.03561e-05
1.16308e-05
-8.61859e-06
-8.13739e-05
-8.10485e-06
-0.000122866
-8.04486e-06
-0.000176577
-8.16315e-06
-0.000243663
-8.98187e-06
-0.000325232
-1.15381e-05
-0.000408537
-1.10721e-05
-0.000550017
-1.42057e-05
-0.000669042
-0.000378182
-7.24529e-06
-5.16383e-05
8.55448e-06
-6.35171e-06
-8.22253e-05
-5.86065e-06
-0.000123464
-5.68154e-06
-0.000176917
-5.57713e-06
-0.000243783
-5.95064e-06
-0.000324788
-8.73116e-06
-0.000405802
-7.98443e-06
-0.000550783
-1.10113e-05
-0.000666029
-0.000389211
-3.70041e-06
-5.24399e-05
4.54182e-06
-3.0589e-06
-8.28091e-05
-2.60998e-06
-0.000124041
-2.24496e-06
-0.000177443
-1.7199e-06
-0.000244299
-1.29776e-06
-0.000325112
-3.69815e-06
-0.000403456
-2.69701e-06
-0.000551809
-5.95934e-06
-0.000662773
-0.000395146
2.71202e-07
-5.28064e-05
1.53926e-07
7.19758e-07
-8.3204e-05
1.22152e-06
-0.000124693
1.94613e-06
-0.000178326
3.14955e-06
-0.00024546
4.98614e-06
-0.000326817
4.85822e-06
-0.000403377
7.73117e-06
-0.000554702
4.17024e-06
-0.000659205
-0.000390891
4.05359e-06
-5.283e-05
-3.96549e-06
4.42528e-06
-8.35404e-05
5.11375e-06
-0.000125541
6.3072e-06
-0.000179653
8.27048e-06
-0.000247322
1.21512e-05
-0.000330513
1.62867e-05
-0.000407534
2.59346e-05
-0.000564332
3.04606e-05
-0.000663748
-0.000360421
7.1924e-06
-5.27225e-05
-7.24023e-06
7.51041e-06
-8.38362e-05
8.44632e-06
-0.000126604
9.95066e-06
-0.00018121
1.19018e-05
-0.000249049
1.73355e-05
-0.000335671
2.48936e-05
-0.000415181
3.93114e-05
-0.000578784
6.60221e-05
-0.000690272
-0.00029469
9.28959e-06
-9.66313e-06
9.01817e-06
9.39652e-06
1.0267e-05
1.18576e-05
1.75041e-05
1.82411e-05
1.73897e-05
6.27757e-05
-1.56911e-05
1.28575e-05
-2.41071e-05
1.92762e-05
-2.82295e-05
1.73299e-05
-3.06192e-05
1.40521e-05
-3.21288e-05
1.01047e-05
-3.3079e-05
5.55792e-06
-3.358e-05
7.4035e-07
-3.37027e-05
-3.74586e-06
-3.37007e-05
-7.12701e-06
-9.62526e-06
-3.36312e-06
1.62455e-05
-8.26233e-06
2.41738e-05
-1.20604e-05
2.10874e-05
-1.4428e-05
1.64048e-05
-1.58925e-05
1.15822e-05
-1.686e-05
6.57515e-06
-1.75267e-05
1.48669e-06
-1.79589e-05
-3.2177e-06
-1.82494e-05
-6.73657e-06
-9.19227e-06
1.90538e-06
1.43342e-05
1.72706e-06
2.4282e-05
1.62152e-07
2.25244e-05
-1.35803e-06
1.78364e-05
-2.49053e-06
1.2665e-05
-3.38851e-06
7.46454e-06
-4.23501e-06
2.35949e-06
-5.05712e-06
-2.34193e-06
-5.65248e-06
-6.0687e-06
-8.50944e-06
3.68508e-06
1.06161e-05
7.10829e-06
2.0723e-05
8.3076e-06
2.1143e-05
8.42253e-06
1.75875e-05
8.11153e-06
1.28834e-05
7.57227e-06
7.9522e-06
6.78034e-06
3.1408e-06
5.77253e-06
-1.30436e-06
4.78637e-06
-5.02572e-06
-7.4723e-06
3.56496e-06
7.00332e-06
8.80247e-06
1.53285e-05
1.24776e-05
1.72842e-05
1.4496e-05
1.54371e-05
1.54352e-05
1.18496e-05
1.56644e-05
7.6638e-06
1.53069e-05
3.47818e-06
1.4459e-05
-4.37148e-07
1.32535e-05
-3.77209e-06
-6.01838e-06
2.90621e-06
4.04956e-06
8.27168e-06
9.81945e-06
1.32543e-05
1.21534e-05
1.6924e-05
1.167e-05
1.92048e-05
9.50092e-06
2.03236e-05
6.50292e-06
2.05487e-05
3.24099e-06
2.00297e-05
1.00363e-07
1.88668e-05
-2.56349e-06
-4.3665e-06
2.15839e-06
1.85439e-06
6.83859e-06
5.03417e-06
1.19377e-05
6.96225e-06
1.62761e-05
7.27859e-06
1.94525e-05
6.29004e-06
2.14344e-05
4.50283e-06
2.23167e-05
2.36133e-06
2.22209e-05
2.19955e-07
2.12873e-05
-1.58489e-06
-2.76681e-06
1.62696e-06
2.04649e-07
5.27608e-06
1.32614e-06
9.64422e-06
2.55962e-06
1.3743e-05
3.16381e-06
1.703e-05
2.99456e-06
1.92922e-05
2.24065e-06
2.04896e-05
1.17598e-06
2.06849e-05
4.79722e-08
2.00109e-05
-8.80992e-07
-1.40836e-06
1.02717e-06
-8.32396e-07
3.34848e-06
-1.0124e-06
6.35086e-06
-4.39976e-07
9.3329e-06
1.83494e-07
1.18624e-05
4.68903e-07
1.36842e-05
4.28443e-07
1.46905e-05
1.8714e-07
1.48911e-05
-1.30234e-07
1.44095e-05
-3.82479e-07
-3.3692e-07
-8.3347e-07
-1.8431e-06
-2.28166e-06
-2.09712e-06
-1.62569e-06
-1.19234e-06
-9.98493e-07
-1.1215e-06
-1.49548e-06
)
;

boundaryField
{
    right
    {
        type            cyclic;
        value           nonuniform List<scalar> 
20
(
0.000232156
0.000735087
0.00057782
0.000416356
0.000341939
0.000250949
0.000182297
0.000127117
8.35171e-05
5.22131e-05
3.35469e-05
1.85369e-05
6.14375e-06
-3.95292e-06
-1.19923e-05
-1.74002e-05
-1.98587e-05
-1.87948e-05
-1.34404e-05
1.82168e-06
)
;
    }
    left
    {
        type            cyclic;
        value           nonuniform List<scalar> 
20
(
-0.000232156
-0.000735087
-0.00057782
-0.000416356
-0.000341939
-0.000250949
-0.000182297
-0.000127117
-8.35171e-05
-5.22131e-05
-3.35469e-05
-1.85369e-05
-6.14375e-06
3.95292e-06
1.19923e-05
1.74002e-05
1.98587e-05
1.87948e-05
1.34404e-05
-1.82168e-06
)
;
    }
    outerWall
    {
        type            calculated;
        value           uniform 0;
    }
    stirrerWall
    {
        type            calculated;
        value           uniform 0;
    }
    top
    {
        type            empty;
        value           nonuniform List<scalar> 0();
    }
    bottom
    {
        type            empty;
        value           nonuniform List<scalar> 0();
    }
}


// ************************************************************************* //
