/*--------------------------------*- C++ -*----------------------------------*\
  =========                 |
  \\      /  F ield         | OpenFOAM: The Open Source CFD Toolbox
   \\    /   O peration     | Website:  https://openfoam.org
    \\  /    A nd           | Version:  10
     \\/     M anipulation  |
\*---------------------------------------------------------------------------*/
FoamFile
{
    format      ascii;
    class       volVectorField;
    location    "3400";
    object      U;
}
// * * * * * * * * * * * * * * * * * * * * * * * * * * * * * * * * * * * * * //

dimensions      [0 1 -1 0 0 0 0];

internalField   nonuniform List<vector> 
420
(
(0.358896 8.74091 5.45217e-18)
(-0.367652 11.3525 -4.00022e-17)
(-0.138673 13.0391 -2.19491e-16)
(-0.0221197 14.3764 6.14942e-17)
(0.0835026 15.4335 -4.41319e-16)
(0.162893 16.2517 0)
(0.19342 16.8513 0)
(0.182308 17.27 4.72216e-16)
(0.148883 17.5033 -5.05989e-16)
(0.0826936 17.5318 0)
(-0.283412 8.57675 2.62085e-17)
(-1.26245 11.1471 -9.24538e-17)
(-1.0592 12.8282 6.55437e-16)
(-1.00991 14.1639 -9.8954e-16)
(-0.973586 15.2479 3.14767e-16)
(-0.960389 16.1113 7.24042e-18)
(-0.978905 16.7564 2.69515e-15)
(-1.04055 17.2139 -6.9013e-16)
(-1.14367 17.4924 1.06184e-15)
(-1.25539 17.5609 0)
(-0.838744 8.51758 6.46337e-17)
(-2.02937 10.8752 -4.12741e-16)
(-1.91216 12.5319 6.50021e-16)
(-1.93537 13.875 1.12893e-15)
(-1.97782 14.9875 -7.54921e-16)
(-2.05174 15.8907 3.56964e-15)
(-2.16843 16.59 1.57697e-15)
(-2.33176 17.1074 4.21983e-15)
(-2.51629 17.4328 -1.66303e-15)
(-2.66784 17.5123 -3.71286e-15)
(-1.42469 8.44761 -9.9172e-18)
(-2.79182 10.5572 3.87024e-16)
(-2.78406 12.1623 -8.1904e-16)
(-2.89764 13.4978 7.62553e-16)
(-3.03255 14.6404 -1.50053e-15)
(-3.20591 15.598 1.55524e-15)
(-3.4248 16.3688 -9.2422e-15)
(-3.67546 16.9482 0)
(-3.92124 17.3034 -3.90393e-15)
(-4.09935 17.3704 3.62289e-15)
(-2.0318 8.30571 0)
(-3.55453 10.1853 3.12599e-16)
(-3.66432 11.7257 -2.98967e-16)
(-3.87643 13.0429 0)
(-4.10901 14.2101 -2.43805e-16)
(-4.38069 15.2251 -3.03413e-16)
(-4.6925 16.0711 3.16903e-15)
(-5.01466 16.7124 -3.9844e-15)
(-5.31258 17.0908 0)
(-5.52021 17.1343 -1.54152e-14)
(-2.65205 8.1199 2.12016e-18)
(-4.31749 9.76156 0)
(-4.53363 11.2226 0)
(-4.84113 12.5102 1.31643e-15)
(-5.16839 13.692 -2.10604e-15)
(-5.53242 14.756 2.42364e-15)
(-5.92828 15.6744 6.15579e-16)
(-6.32065 16.3798 9.14097e-15)
(-6.68173 16.7919 -1.17028e-14)
(-6.93594 16.8196 7.74837e-15)
(-3.2884 7.90891 0)
(-5.07154 9.28875 -3.21392e-16)
(-5.3755 10.6541 -2.00781e-15)
(-5.77011 11.8987 -8.34335e-16)
(-6.18737 13.0789 -3.71068e-15)
(-6.63901 14.1784 2.43911e-15)
(-7.12223 15.1585 -6.03132e-15)
(-7.60695 15.9438 7.59278e-16)
(-8.06022 16.4241 -3.54768e-15)
(-8.382 16.4616 -1.215e-14)
(-3.95662 7.67843 -5.14507e-18)
(-5.80091 8.77014 3.26469e-16)
(-6.17243 10.0301 2.70677e-15)
(-6.64933 11.2167 5.47749e-16)
(-7.15798 12.3702 2.26945e-15)
(-7.70007 13.4782 0)
(-8.27797 14.5115 6.15025e-15)
(-8.87913 15.3979 7.71734e-15)
(-9.45319 16.0174 9.4316e-15)
(-9.87776 16.0984 9.33264e-15)
(-4.67992 7.41259 -5.37122e-18)
(-6.46577 8.22592 3.30849e-16)
(-6.91413 9.39342 -3.52793e-16)
(-7.48838 10.5136 -1.79684e-15)
(-8.09738 11.608 5.81846e-15)
(-8.7278 12.6782 8.04872e-15)
(-9.38261 13.7184 -2.82365e-15)
(-10.066 14.69 0)
(-10.7452 15.4858 0)
(-11.324 15.6104 -9.70384e-15)
(-5.51021 7.04325 5.25348e-17)
(-6.91627 7.75085 8.19715e-16)
(-7.495 8.76595 0)
(-8.22278 9.77638 0)
(-8.98871 10.7732 -3.5261e-15)
(-9.76511 11.7692 -3.00133e-17)
(-10.5403 12.7678 6.28251e-15)
(-11.2994 13.7654 -1.37421e-14)
(-12.0373 14.6938 1.63431e-14)
(-12.7005 15.0103 1.33116e-15)
(-0.00487631 17.2982 0)
(-0.0968317 16.7079 0)
(-0.103064 15.8309 0)
(-0.0491472 14.9301 -8.02634e-16)
(-0.176701 14.0321 0)
(0.248749 12.8398 0)
(0.757055 13.3683 8.49751e-16)
(-1.30711 11.1366 0)
(1.70394 10.4469 0)
(-0.460864 32.8655 0)
(-1.35122 17.3313 1.55321e-15)
(-1.40437 16.6853 2.62007e-15)
(-1.32314 15.7571 1.1347e-16)
(-1.19644 14.8483 8.65877e-16)
(-1.28073 13.939 3.37338e-17)
(-0.856419 12.7087 1.03457e-15)
(-0.421444 13.2832 -5.79321e-17)
(-2.41189 10.9703 -8.02568e-17)
(0.542568 10.3821 -1.96913e-15)
(-3.25998 33.5794 -1.75605e-15)
(-2.75786 17.2516 1.42366e-15)
(-2.75139 16.5323 0)
(-2.56941 15.572 -2.0757e-15)
(-2.3712 14.6793 -1.70081e-15)
(-2.40181 13.7787 5.05899e-15)
(-1.96011 12.5493 -1.0087e-15)
(-1.57539 13.1464 1.7749e-15)
(-3.43847 10.7828 0)
(-0.541698 10.5717 2.09917e-15)
(-6.01094 33.0238 -1.15557e-16)
(-4.17754 17.0584 3.22676e-15)
(-4.09609 16.2577 7.89999e-15)
(-3.81236 15.2904 -8.10273e-15)
(-3.55604 14.4331 3.15765e-15)
(-3.52776 13.5568 2.22576e-17)
(-3.06292 12.3512 0)
(-2.71698 12.9575 -1.78509e-15)
(-4.40476 10.5834 -2.4909e-15)
(-1.55615 10.7237 -2.09602e-15)
(-8.89997 32.1677 7.01143e-15)
(-5.59017 16.7527 2.95813e-15)
(-5.41175 15.8646 -2.5935e-15)
(-5.02663 14.9154 8.28669e-15)
(-4.72425 14.1056 -3.23461e-15)
(-4.63262 13.2647 2.65216e-15)
(-4.14027 12.1014 -4.09395e-15)
(-3.83266 12.7029 3.67149e-15)
(-5.31878 10.3841 2.51926e-15)
(-2.59511 10.8615 0)
(-11.4698 30.907 -1.3953e-14)
(-6.99693 16.3371 3.65491e-15)
(-6.68076 15.3575 -1.55495e-14)
(-6.19856 14.4558 -4.35926e-15)
(-5.86331 13.6995 9.97441e-15)
(-5.70553 12.8989 8.21492e-15)
(-5.17938 11.795 2.23582e-16)
(-4.90916 12.3711 1.63014e-16)
(-6.19938 10.1414 -2.67365e-15)
(-3.50621 10.9054 -2.98581e-15)
(-13.7599 29.3379 1.40873e-14)
(-8.39954 15.7993 3.72822e-15)
(-7.88366 14.7322 5.43212e-15)
(-7.31496 13.9129 0)
(-6.96262 13.2138 -3.32256e-15)
(-6.73901 12.4566 -5.26039e-15)
(-6.17511 11.4294 2.50202e-16)
(-5.95066 11.9531 -1.16321e-14)
(-7.03221 9.81791 -2.75406e-15)
(-4.41355 10.8193 5.66529e-15)
(-15.8316 27.6681 -6.75743e-15)
(-9.74778 15.1033 1.43112e-14)
(-8.99787 13.9866 -4.94021e-15)
(-8.3645 13.2943 0)
(-8.00827 12.6529 -1.62427e-16)
(-7.72289 11.9418 2.18531e-14)
(-7.126 11.0021 -8.73871e-15)
(-6.95079 11.4458 -8.17991e-15)
(-7.79935 9.50286 5.78006e-15)
(-5.27027 10.6358 -5.66871e-15)
(-17.6864 25.8423 0)
(-10.8087 14.2191 3.22889e-16)
(-10.0213 13.1643 -4.88515e-15)
(-9.35376 12.6317 0)
(-8.98953 12.0316 7.02899e-15)
(-8.64618 11.3638 -1.64623e-14)
(-8.02701 10.5147 8.98527e-15)
(-7.89281 10.828 4.05212e-15)
(-8.50089 9.0929 0)
(-6.05619 10.4118 -2.41255e-16)
(-19.4496 23.9125 7.55519e-15)
(-11.1592 13.431 4.36164e-16)
(-10.9532 12.3902 4.60254e-17)
(-10.3237 11.954 0)
(-9.91525 11.3493 -1.37448e-14)
(-9.50011 10.7045 5.19277e-15)
(-8.87265 9.97727 -4.82119e-15)
(-8.74937 10.1417 4.04137e-15)
(-9.13944 8.57062 5.51434e-16)
(-6.93486 10.0835 2.70234e-16)
(-20.9402 21.818 -7.64015e-15)
(-11.0654 13.6149 3.05793e-15)
(-11.6593 11.9083 -5.33363e-15)
(-11.1275 11.4243 0)
(-10.637 10.8175 0)
(-10.1318 10.1898 0)
(-9.43559 9.59687 -2.40621e-15)
(-9.34899 9.77801 1.033e-14)
(-9.4443 8.18644 0)
(-7.28234 10.1641 0)
(-22.1005 20.2 0)
(-11.8136 12.9132 -3.0091e-15)
(-12.2699 11.5163 -5.34273e-15)
(-11.7712 10.9582 0)
(-11.197 10.3449 3.63562e-15)
(-10.6233 9.72115 -2.77031e-15)
(-9.92192 9.13337 2.432e-15)
(-9.82671 9.35392 4.33027e-15)
(-9.70813 7.74675 -1.70455e-16)
(-7.72459 9.80975 1.51342e-15)
(-22.9465 19.3634 0)
(-13.6194 11.3514 3.06911e-16)
(-13.1253 10.7041 -1.93914e-17)
(-12.5446 10.1145 0)
(-11.8966 9.51527 2.17371e-16)
(-11.2624 8.92144 6.16667e-15)
(-10.5884 8.33037 -4.39143e-15)
(-10.5253 8.41412 -1.2603e-14)
(-10.2119 6.97942 -7.23162e-15)
(-8.6081 8.89676 1.29008e-14)
(-23.822 17.793 7.9263e-15)
(-14.8005 10.0261 -1.35032e-14)
(-14.0918 9.58911 5.05472e-15)
(-13.3902 9.1212 0)
(-12.664 8.60553 -7.33623e-15)
(-11.9624 8.09628 -6.0134e-15)
(-11.2459 7.63352 9.54344e-15)
(-11.2334 7.55574 4.3294e-15)
(-10.7002 6.29156 0)
(-9.3627 8.42142 -7.1194e-15)
(-24.7287 15.4739 -4.41914e-16)
(-15.3909 8.6976 -2.8543e-16)
(-14.7476 8.40925 4.91203e-15)
(-14.0312 8.06539 0)
(-13.2751 7.63871 1.42551e-14)
(-12.5415 7.19824 -1.2396e-17)
(-11.8096 6.86008 -1.72094e-16)
(-11.8598 6.70542 8.90996e-15)
(-11.1262 5.42693 -6.7731e-15)
(-10.0033 7.88845 -6.9728e-15)
(-25.4434 13.1629 0)
(-15.7993 7.5174 -2.99243e-15)
(-15.2298 7.30301 1.01206e-14)
(-14.53 7.03708 8.73077e-15)
(-13.7686 6.68474 -1.01516e-14)
(-13.0217 6.30459 -1.74894e-14)
(-12.2811 6.08503 -3.53777e-16)
(-12.4011 5.88448 -4.40496e-15)
(-11.4651 4.62524 -3.47406e-15)
(-10.5749 7.32975 -7.53874e-15)
(-25.956 10.8673 -8.12521e-15)
(-16.1237 6.43566 -9.16743e-15)
(-15.6023 6.25964 4.97946e-15)
(-14.9205 6.04496 -3.84956e-15)
(-14.1604 5.75304 -1.0405e-14)
(-13.4091 5.42235 8.16082e-15)
(-12.6616 5.3267 -3.35436e-16)
(-12.8721 5.09706 8.27099e-15)
(-11.7272 3.81799 3.87398e-15)
(-11.0868 6.79303 4.24705e-15)
(-26.315 8.62057 4.85097e-16)
(-16.3955 5.42047 2.69007e-15)
(-15.9022 5.26727 -2.5064e-15)
(-15.2264 5.08768 -1.27571e-16)
(-14.4617 4.84868 1.02296e-14)
(-13.7019 4.56278 -1.41442e-14)
(-12.9484 4.59806 4.51302e-15)
(-13.2628 4.37967 -4.18337e-15)
(-11.9154 3.04924 9.84944e-15)
(-11.5683 6.29378 0)
(-26.6168 6.51406 2.19043e-16)
(-16.6355 4.43099 3.04191e-15)
(-16.15 4.29604 2.535e-15)
(-15.462 4.14548 4.27611e-15)
(-14.6796 3.96043 -6.73299e-15)
(-13.8963 3.72452 2.73693e-15)
(-13.1221 3.8963 0)
(-13.5281 3.72406 -1.91369e-15)
(-11.961 2.40164 -6.54286e-15)
(-11.9986 5.97191 -7.10397e-17)
(-27.1186 4.74522 6.86404e-15)
(-16.8534 3.4236 1.4193e-15)
(-16.3506 3.3108 0)
(-15.6345 3.19389 2.13542e-15)
(-14.8231 3.07072 1.79819e-15)
(-14.0092 2.8895 9.64459e-17)
(-13.1696 3.21161 -1.08583e-15)
(-13.5426 3.04888 1.89111e-15)
(-11.7567 1.93737 0)
(-12.2866 6.08315 2.95023e-15)
(-27.6964 3.42381 5.50958e-15)
(-17.0565 2.37149 1.61978e-15)
(-16.5137 2.27854 -2.69925e-15)
(-15.7563 2.20597 -1.24962e-16)
(-14.9123 2.15025 7.51419e-16)
(-14.071 1.99065 -5.12186e-17)
(-13.1876 2.47702 1.05015e-15)
(-13.4203 2.32473 -1.64328e-15)
(-11.0788 1.29874 1.59546e-17)
(-11.9024 6.19971 2.06024e-15)
(-26.8906 1.46058 -3.8137e-15)
(-17.1874 1.26551 2.22209e-29)
(-16.6277 1.15873 0)
(-15.8037 1.09678 0)
(-14.9323 1.08571 -8.14726e-16)
(-14.0825 0.90108 0)
(-12.9315 1.37075 0)
(-13.4377 1.83338 8.58926e-16)
(-11.2727 -0.540563 0)
(-10.8577 3.24851 0)
(-33.8816 2.90785 -1.69325e-29)
(-14.7128 12.3321 9.96293e-16)
(-15.5478 10.167 -7.56559e-15)
(-15.9165 8.69956 7.15497e-15)
(-16.2139 7.50157 -9.69604e-15)
(-16.4841 6.43047 6.45644e-15)
(-16.7232 5.43517 -1.35027e-14)
(-16.9379 4.47305 3.39422e-15)
(-17.1389 3.49434 -3.734e-15)
(-17.3405 2.44626 0)
(-17.4456 1.33405 -4.20134e-16)
(-15.1828 11.7098 1.47065e-14)
(-15.8711 9.67331 0)
(-16.1644 8.42502 7.37135e-15)
(-16.394 7.33926 -2.85704e-15)
(-16.6273 6.33543 -9.81791e-15)
(-16.8443 5.38735 0)
(-17.0367 4.46471 -3.77124e-15)
(-17.2089 3.51957 -1.74449e-15)
(-17.3824 2.48749 1.20154e-15)
(-17.4656 1.3731 -4.69521e-16)
(-14.7604 10.9095 -1.21497e-14)
(-15.6689 9.01853 0)
(-16.088 7.95778 6.67148e-15)
(-16.3317 7.02751 6.6929e-16)
(-16.5514 6.12738 8.1279e-15)
(-16.7513 5.24551 -3.78851e-15)
(-16.9208 4.36919 0)
(-17.055 3.46456 4.84318e-15)
(-17.1808 2.47475 -8.05752e-16)
(-17.2661 1.37911 5.93064e-16)
(-13.6559 10.1658 5.53547e-15)
(-14.9581 8.4736 -2.14805e-15)
(-15.6095 7.4813 5.02405e-15)
(-15.9738 6.65056 -5.24255e-15)
(-16.2381 5.84794 6.05677e-16)
(-16.45 5.03617 3.15997e-15)
(-16.6164 4.20592 -9.83691e-15)
(-16.7324 3.33912 1.81814e-15)
(-16.8153 2.40336 3.10594e-15)
(-16.8715 1.35304 8.44278e-17)
(-12.4132 9.4747 -8.24493e-15)
(-13.8043 7.97676 5.99604e-15)
(-14.7439 7.02651 0)
(-15.2761 6.23806 1.98161e-15)
(-15.6426 5.50485 2.10861e-15)
(-15.9062 4.75782 -2.98325e-16)
(-16.0998 3.97706 1.57681e-15)
(-16.2265 3.15067 3.79193e-15)
(-16.2937 2.25948 5.26003e-18)
(-16.3089 1.25968 3.50715e-16)
(-11.1925 8.79178 -3.29168e-15)
(-12.4754 7.52095 4.24231e-15)
(-13.5154 6.62335 1.74808e-15)
(-14.2223 5.85944 -2.82546e-15)
(-14.7258 5.15427 -1.74291e-15)
(-15.0667 4.44301 -2.31776e-16)
(-15.3078 3.69969 -3.05895e-15)
(-15.4586 2.90984 9.97261e-16)
(-15.5284 2.05771 3.18595e-16)
(-15.5214 1.10959 -3.49224e-16)
(-10.0295 8.10223 0)
(-11.0923 7.07274 -1.37976e-15)
(-12.108 6.26412 4.627e-16)
(-12.8881 5.5295 -6.53483e-16)
(-13.474 4.83924 1.02745e-15)
(-13.9084 4.14948 0)
(-14.2115 3.43323 6.82188e-16)
(-14.4008 2.67247 1.07227e-15)
(-14.4847 1.84871 -9.70942e-16)
(-14.4788 0.942925 -3.06606e-17)
(-8.91073 7.40571 0)
(-9.73949 6.62373 -2.44325e-16)
(-10.6297 5.92876 2.05974e-15)
(-11.3839 5.24312 -1.49548e-15)
(-11.9969 4.57208 0)
(-12.4687 3.8946 -2.30734e-16)
(-12.8088 3.19132 -6.95271e-16)
(-13.0253 2.44717 5.76681e-16)
(-13.1293 1.64575 6.11485e-16)
(-13.1318 0.775448 -2.45438e-16)
(-7.81645 6.65343 -8.69718e-16)
(-8.45675 6.07959 2.50034e-16)
(-9.17557 5.45842 2.47282e-16)
(-9.82733 4.80344 -2.45766e-16)
(-10.3754 4.14347 0)
(-10.8086 3.47129 2.48836e-16)
(-11.1268 2.77282 2.97673e-16)
(-11.3305 2.04185 -3.17543e-16)
(-11.4289 1.27392 -7.9338e-17)
(-11.4335 0.461013 3.58499e-18)
(-6.37263 6.25153 -2.448e-16)
(-6.57261 6.02954 2.98394e-17)
(-6.96401 5.52818 1.71445e-17)
(-7.38001 4.94196 0)
(-7.77353 4.35093 -2.82777e-18)
(-8.11606 3.76273 0)
(-8.39428 3.16573 3.21863e-18)
(-8.60562 2.54712 5.35963e-17)
(-8.76933 1.88935 2.80201e-17)
(-8.84872 1.16333 -6.70227e-18)
)
;

boundaryField
{
    right
    {
        type            cyclic;
    }
    left
    {
        type            cyclic;
    }
    outerWall
    {
        type            calculated;
        value           nonuniform List<vector> 
22
(
(-1.55201 41.8305 0)
(-4.64749 41.6006 0)
(-7.71741 41.1419 0)
(-10.7449 40.4569 0)
(-13.7132 39.5492 0)
(-16.6061 38.424 0)
(-19.4075 37.0874 0)
(-22.1022 35.5467 0)
(-24.6752 33.8104 0)
(-27.1124 31.8882 0)
(-28.9573 30.2506 0)
(-30.2506 28.9573 0)
(-31.8882 27.1124 0)
(-33.8104 24.6752 0)
(-35.5467 22.1022 0)
(-37.0874 19.4075 0)
(-38.424 16.6061 0)
(-39.5492 13.7132 0)
(-40.4569 10.7449 0)
(-41.1419 7.71741 0)
(-41.6006 4.64749 0)
(-41.8305 1.55201 0)
)
;
    }
    stirrerWall
    {
        type            calculated;
        value           nonuniform List<vector> 
42
(
(-0.310178 8.3662 0)
(-0.928834 8.32046 0)
(-1.54239 8.22894 0)
(-2.14746 8.09214 0)
(-2.74072 7.91082 0)
(-3.31888 7.68598 0)
(-3.87877 7.41885 0)
(-4.41729 7.11092 0)
(-4.93148 6.76387 0)
(-5.4185 6.37963 0)
(-6.07951 6.64185 0)
(-6.92878 7.56862 0)
(-7.77806 8.49539 0)
(-8.62734 9.42216 0)
(-9.47661 10.3489 0)
(-10.3259 11.2757 0)
(-11.1752 12.2025 0)
(-12.0244 13.1292 0)
(-12.8737 14.056 0)
(-13.723 14.9828 0)
(-14.4723 15.1215 0)
(-15.1215 14.4723 0)
(-14.9828 13.723 0)
(-14.056 12.8737 0)
(-13.1292 12.0244 0)
(-12.2025 11.1752 0)
(-11.2757 10.3259 0)
(-10.3489 9.47661 0)
(-9.42216 8.62734 0)
(-8.49539 7.77806 0)
(-7.56862 6.92878 0)
(-6.64185 6.07951 0)
(-6.37963 5.4185 0)
(-6.76387 4.93148 0)
(-7.11092 4.41729 0)
(-7.41885 3.87877 0)
(-7.68598 3.31888 0)
(-7.91082 2.74072 0)
(-8.09214 2.14746 0)
(-8.22894 1.54239 0)
(-8.32046 0.928834 0)
(-8.3662 0.310178 0)
)
;
    }
    top
    {
        type            empty;
    }
    bottom
    {
        type            empty;
    }
}


// ************************************************************************* //
