/*--------------------------------*- C++ -*----------------------------------*\
  =========                 |
  \\      /  F ield         | OpenFOAM: The Open Source CFD Toolbox
   \\    /   O peration     | Website:  https://openfoam.org
    \\  /    A nd           | Version:  10
     \\/     M anipulation  |
\*---------------------------------------------------------------------------*/
FoamFile
{
    format      ascii;
    class       volVectorField;
    location    "3400";
    object      Urel;
}
// * * * * * * * * * * * * * * * * * * * * * * * * * * * * * * * * * * * * * //

dimensions      [0 1 -1 0 0 0 0];

internalField   nonuniform List<vector> 
420
(
(0.692896 -0.267335 5.45217e-18)
(0.0128491 1.09112 -4.00022e-17)
(0.288342 1.52422 -2.19491e-16)
(0.451421 1.60784 6.14942e-17)
(0.603576 1.41093 -4.41319e-16)
(0.729505 0.974994 0)
(0.806575 0.320378 0)
(0.842009 -0.515245 4.72216e-16)
(0.855133 -1.53631 -5.05989e-16)
(0.835495 -2.76236 0)
(0.716765 -0.38221 2.62085e-17)
(-0.123026 0.941965 -9.24538e-17)
(0.219507 1.3765 6.55437e-16)
(0.408121 1.46531 -9.8954e-16)
(0.583787 1.30232 3.14767e-16)
(0.736342 0.918534 7.24042e-18)
(0.857198 0.316302 2.69515e-15)
(0.934934 -0.473561 -6.9013e-16)
(0.971201 -1.44259 1.06184e-15)
(0.998883 -2.62155 0)
(0.822118 -0.342811 6.46337e-17)
(-0.137283 0.782384 -4.12741e-16)
(0.211221 1.20627 6.50021e-16)
(0.41936 1.31637 1.12893e-15)
(0.608294 1.19551 -7.54921e-16)
(0.765792 0.865298 3.56964e-15)
(0.880531 0.331158 1.57697e-15)
(0.948651 -0.385133 4.21983e-15)
(0.995593 -1.2934 -1.66303e-15)
(1.07551 -2.44763 -3.71286e-15)
(0.887719 -0.265464 -9.9172e-18)
(-0.157475 0.632213 3.87024e-16)
(0.172328 1.02502 -8.1904e-16)
(0.380847 1.14802 7.62553e-16)
(0.568103 1.07787 -1.50053e-15)
(0.716936 0.822604 1.55524e-15)
(0.820269 0.380449 -9.2422e-15)
(0.891862 -0.253211 0)
(0.968354 -1.11122 -3.90393e-15)
(1.11253 -2.25746 3.62289e-15)
(0.919444 -0.212122 0)
(-0.192409 0.482775 3.12599e-16)
(0.108814 0.83806 -2.98967e-16)
(0.307801 0.969906 0)
(0.486383 0.951575 -2.43805e-16)
(0.625921 0.780865 -3.03413e-16)
(0.725365 0.44112 3.16903e-15)
(0.814488 -0.103515 -3.9844e-15)
(0.927876 -0.911063 0)
(1.13158 -2.05351 -1.54152e-14)
(0.921772 -0.155832 2.12016e-18)
(-0.246088 0.334778 0)
(0.0355024 0.644404 0)
(0.225832 0.780353 1.31643e-15)
(0.396491 0.810286 -2.10604e-15)
(0.530444 0.722328 2.42364e-15)
(0.632606 0.488654 6.15579e-16)
(0.738304 0.0418574 9.14097e-15)
(0.875312 -0.698333 -1.17028e-14)
(1.11922 -1.82292 7.74837e-15)
(0.888337 -0.0792103 0)
(-0.313265 0.189571 -3.21392e-16)
(-0.0355004 0.443528 -2.00781e-15)
(0.151736 0.57646 -8.34335e-16)
(0.316421 0.64484 -3.71068e-15)
(0.446799 0.632351 2.43911e-15)
(0.545645 0.500435 -6.03132e-15)
(0.643037 0.173511 7.59278e-16)
(0.771906 -0.458326 -3.54768e-15)
(1.03231 -1.53313 -1.215e-14)
(0.800027 0.0218546 -5.14507e-18)
(-0.381938 0.0485903 3.26469e-16)
(-0.0909346 0.243269 2.70677e-15)
(0.0948381 0.364286 5.47749e-16)
(0.248975 0.45209 2.26945e-15)
(0.369741 0.494228 0)
(0.454767 0.461654 6.15025e-15)
(0.516575 0.282048 7.71734e-15)
(0.605524 -0.164599 9.4316e-15)
(0.844001 -1.14975 9.33264e-15)
(0.630446 0.129668 -5.37122e-18)
(-0.415924 -0.0700416 3.30849e-16)
(-0.124578 0.0841018 -3.52793e-16)
(0.041039 0.190678 -1.79684e-15)
(0.172022 0.271352 5.81846e-15)
(0.281675 0.327737 8.04872e-15)
(0.367011 0.353927 -2.82365e-15)
(0.423787 0.311475 0)
(0.484885 0.0932208 0)
(0.646395 -0.796345 -9.70384e-15)
(0.324628 0.174033 5.25348e-17)
(-0.268852 -0.0739155 8.19715e-16)
(-0.0347447 -0.014665 0)
(0.0504791 0.0397134 0)
(0.0976877 0.0802895 -3.5261e-15)
(0.134526 0.119983 -3.00133e-17)
(0.172701 0.162223 6.28251e-15)
(0.226955 0.203346 -1.37421e-14)
(0.302485 0.175147 1.63431e-14)
(0.452729 -0.464925 1.33116e-15)
(0.794731 -4.2571 0)
(0.752384 -6.18416 0)
(0.801077 -8.54122 0)
(0.915808 -11.0808 -8.02634e-16)
(0.855585 -13.7932 0)
(1.35558 -16.9945 0)
(1.94643 -18.6902 8.49751e-16)
(-0.0263485 -23.3845 0)
(3.08588 -26.8007 0)
(1.0331 -7.4009 0)
(1.0432 -4.10533 1.55321e-15)
(1.1386 -6.0808 2.62007e-15)
(1.3843 -8.48101 1.1347e-16)
(1.69311 -11.0196 8.65877e-16)
(1.81044 -13.7333 3.37338e-17)
(2.45799 -16.9615 1.03457e-15)
(3.14013 -18.599 -5.79321e-17)
(1.42334 -23.361 -8.02568e-17)
(4.68079 -26.6608 -1.96913e-15)
(1.2137 -6.46571 -1.75605e-15)
(1.21821 -3.94875 1.42366e-15)
(1.47136 -5.98286 0)
(1.92646 -8.39887 -2.0757e-15)
(2.42706 -10.9033 -1.70081e-15)
(2.73127 -13.5886 5.05899e-15)
(3.54366 -16.7938 -1.0087e-15)
(4.3388 -18.3843 1.7749e-15)
(2.93015 -23.17 0)
(6.33005 -26.0628 2.09917e-15)
(1.41786 -6.57984 -1.15557e-16)
(1.35834 -3.78909 3.22676e-15)
(1.78323 -5.88268 7.89999e-15)
(2.44722 -8.28152 -8.10273e-15)
(3.12457 -10.7238 3.15765e-15)
(3.61899 -13.3548 2.22576e-17)
(4.59994 -16.5034 0)
(5.51731 -18.0482 -1.78509e-15)
(4.46221 -22.8041 -2.4909e-15)
(8.01131 -25.3008 -2.09602e-15)
(1.44307 -6.77652 7.01143e-15)
(1.47512 -3.62745 2.95813e-15)
(2.09186 -5.77944 -2.5935e-15)
(2.96227 -8.12801 8.28669e-15)
(3.80198 -10.4871 -3.23461e-15)
(4.48852 -13.0434 2.65216e-15)
(5.63955 -16.1061 -4.09395e-15)
(6.67645 -17.6074 3.67149e-15)
(5.99777 -22.2545 2.51926e-15)
(9.61544 -24.3549 0)
(1.73055 -7.16353 -1.3953e-14)
(1.55896 -3.46378 3.65491e-15)
(2.40591 -5.67126 -1.55495e-14)
(3.47578 -7.93249 -4.35926e-15)
(4.46168 -10.194 9.97441e-15)
(5.33986 -12.6611 8.21492e-15)
(6.66363 -15.6102 2.23582e-16)
(7.81697 -17.0771 1.63014e-16)
(7.50451 -21.5688 -2.67365e-15)
(11.2802 -23.3091 -2.98581e-15)
(2.22519 -7.64944 1.40873e-14)
(1.59999 -3.31358 3.72822e-15)
(2.73616 -5.56576 5.43212e-15)
(3.99165 -7.69716 0)
(5.10439 -9.84912 -3.32256e-15)
(6.16992 -12.2148 -5.26039e-15)
(7.66597 -15.023 2.50202e-16)
(8.92249 -16.4711 -1.16321e-14)
(8.98363 -20.7894 -2.75406e-15)
(12.8675 -22.2053 5.66529e-15)
(2.85015 -8.03267 -6.75743e-15)
(1.64047 -3.21647 1.43112e-14)
(3.09677 -5.46902 -4.94021e-15)
(4.51227 -7.41892 0)
(5.73445 -9.45266 -1.62427e-16)
(6.97861 -11.7054 2.18531e-14)
(8.63705 -14.3519 -8.73871e-15)
(9.98759 -15.7981 -8.17991e-15)
(10.4403 -19.8333 5.78006e-15)
(14.4102 -21.017 -5.66871e-15)
(3.58931 -8.37548 0)
(1.90577 -3.20694 3.22889e-16)
(3.48178 -5.34208 -4.88515e-15)
(5.02242 -7.07068 0)
(6.35338 -8.99514 7.02899e-15)
(7.76709 -11.1292 -1.64623e-14)
(9.57133 -13.6016 8.98527e-15)
(11.0176 -15.0856 4.05212e-15)
(11.8623 -18.8108 0)
(15.9155 -19.6952 -2.41255e-16)
(4.30292 -8.63399 7.55519e-15)
(2.8116 -3.00561 4.36164e-16)
(3.8841 -5.06518 4.60254e-17)
(5.47292 -6.62941 0)
(6.94353 -8.48299 -1.37448e-14)
(8.53468 -10.5105 5.19277e-15)
(10.4642 -12.7687 -4.82119e-15)
(12.0291 -14.2993 4.04137e-15)
(13.2352 -17.7471 5.51434e-16)
(17.2071 -18.3122 2.70234e-16)
(5.15841 -8.87828 -7.64015e-15)
(3.85034 -1.96952 3.05793e-15)
(4.18217 -4.64315 -5.33363e-15)
(5.73902 -6.19772 0)
(7.36447 -7.9899 0)
(9.1262 -9.93008 0)
(11.2137 -11.9761 -2.40621e-15)
(12.8407 -13.4038 1.033e-14)
(14.4509 -16.7767 0)
(18.5011 -16.7713 0)
(5.77362 -8.91901 0)
(3.77085 -2.00248 -3.0091e-15)
(4.28151 -4.3252 -5.34273e-15)
(5.85087 -5.90835 0)
(7.6104 -7.65654 3.63562e-15)
(9.49659 -9.53689 -2.77031e-15)
(11.6511 -11.5159 2.432e-15)
(13.3551 -12.8358 4.33027e-15)
(15.255 -16.1484 -1.70455e-16)
(19.2108 -15.9737 1.51342e-15)
(6.17252 -8.51075 0)
(2.81723 -2.61939 3.06911e-16)
(4.33011 -4.13313 -1.93914e-17)
(6.03874 -5.68213 0)
(7.93565 -7.3435 2.17371e-16)
(9.95263 -9.11336 6.16667e-15)
(12.1576 -11.0065 -4.39143e-15)
(13.9157 -12.3644 -1.2603e-14)
(16.1059 -15.3953 -7.23162e-15)
(19.7875 -15.2452 1.29008e-14)
(6.87421 -8.30564 7.9263e-15)
(2.62554 -2.68837 -1.35032e-14)
(4.41453 -3.91393 5.05472e-15)
(6.31223 -5.25497 0)
(8.36267 -6.73737 -7.33623e-15)
(10.5305 -8.31698 -6.0134e-15)
(12.8704 -9.96483 9.54344e-15)
(14.6803 -11.3547 4.3294e-15)
(17.2035 -14.0716 0)
(20.7443 -13.5502 -7.1194e-15)
(7.81787 -8.27855 -4.41914e-16)
(2.92893 -2.69064 -2.8543e-16)
(4.70798 -3.68539 4.91203e-15)
(6.68201 -4.81137 0)
(8.83044 -6.10401 1.42551e-14)
(11.1057 -7.50326 -1.2396e-17)
(13.5445 -8.90297 -1.72094e-16)
(15.3841 -10.233 8.90996e-15)
(18.21 -12.8128 -6.7731e-15)
(21.6496 -11.792 -6.9728e-15)
(8.7744 -8.11277 0)
(3.31355 -2.48213 -2.99243e-15)
(5.06818 -3.31681 1.01206e-14)
(7.08007 -4.26953 8.73077e-15)
(9.29431 -5.38228 -1.01516e-14)
(11.6498 -6.60434 -1.74894e-14)
(14.1713 -7.75605 -3.53777e-16)
(16.023 -8.98867 -4.40496e-15)
(19.1423 -11.3906 -3.47406e-15)
(22.4496 -9.95126 -7.53874e-15)
(9.74478 -7.81448 -8.12521e-15)
(3.67722 -2.12023 -9.16743e-15)
(5.42651 -2.82703 4.97946e-15)
(7.46776 -3.62938 -3.84956e-15)
(9.73308 -4.57196 -1.0405e-14)
(12.1509 -5.62304 8.16082e-15)
(14.7436 -6.51631 -3.35436e-16)
(16.5761 -7.62906 8.27099e-15)
(19.983 -9.8859 3.87398e-15)
(23.1278 -7.99343 4.24705e-15)
(10.6723 -7.36449 4.85097e-16)
(3.98464 -1.64482 2.69007e-15)
(5.74183 -2.23633 -2.5064e-15)
(7.81698 -2.90123 -1.27571e-16)
(10.131 -3.67755 1.02296e-14)
(12.6063 -4.55836 -1.41442e-14)
(15.259 -5.18176 4.51302e-15)
(17.0475 -6.12944 -4.18337e-15)
(20.7232 -8.26732 9.84944e-15)
(23.6481 -5.91677 0)
(11.4537 -6.68631 2.19043e-16)
(4.21198 -1.10489 3.04191e-15)
(5.99047 -1.58329 2.535e-15)
(8.10993 -2.11411 4.27611e-15)
(10.4773 -2.72018 -6.73299e-15)
(13.0154 -3.42223 2.73693e-15)
(15.7325 -3.76656 0)
(17.4777 -4.51023 -1.91369e-15)
(21.4265 -6.46533 -6.54286e-15)
(24.0259 -3.59556 -7.10397e-17)
(11.8255 -5.59782 6.86404e-15)
(4.34688 -0.55247 1.4193e-15)
(6.16458 -0.911949 0)
(8.33642 -1.30197 2.13542e-15)
(10.7596 -1.72754 1.79819e-15)
(13.358 -2.24357 9.64459e-17)
(16.1735 -2.29216 -1.08583e-15)
(17.9881 -2.86531 1.89111e-15)
(22.1961 -4.43125 0)
(24.3479 -0.78859 2.95023e-15)
(11.9072 -4.00499 5.50958e-15)
(4.38014 -0.0229248 1.61978e-15)
(6.2524 -0.264429 -2.69925e-15)
(8.48181 -0.501474 -1.24962e-16)
(10.9556 -0.739299 7.51419e-16)
(13.6014 -1.10053 -5.12186e-17)
(16.4826 -0.837394 1.05015e-15)
(18.4619 -1.23684 -1.64328e-15)
(23.2525 -2.53649 1.59546e-17)
(25.1406 2.06149 2.06024e-15)
(13.1545 -3.0131 -3.8137e-15)
(4.36781 0.4659 2.22209e-29)
(6.26435 0.309513 0)
(8.56849 0.192643 0)
(11.0786 0.12075 -8.14726e-16)
(13.7429 -0.131207 0)
(16.9027 0.263916 0)
(18.6207 0.644003 8.58926e-16)
(23.2484 -1.82132 0)
(26.3899 1.86657 0)
(6.38478 1.41389 -1.69325e-29)
(0.762416 -0.821091 9.96293e-16)
(0.858908 -1.80331 -7.56559e-15)
(1.3316 -2.0222 7.15497e-15)
(1.78085 -1.91273 -9.69604e-15)
(2.15841 -1.62469 6.45644e-15)
(2.46464 -1.21661 -1.35027e-14)
(2.68994 -0.738834 3.39422e-15)
(2.82111 -0.249022 -3.734e-15)
(2.842 0.191985 0)
(2.84855 0.581249 -4.20134e-16)
(-0.664171 -0.629987 1.47065e-14)
(-0.478488 -1.55676 0)
(0.0176221 -1.6337 7.37135e-15)
(0.488491 -1.49287 -2.85704e-15)
(0.862927 -1.22161 -9.81791e-15)
(1.15752 -0.853108 0)
(1.37788 -0.424882 -3.77124e-15)
(1.51733 0.00768791 -1.74449e-15)
(1.55258 0.372618 1.20154e-15)
(1.57404 0.666848 -4.69521e-16)
(-1.19832 -0.616875 -1.21497e-14)
(-1.29035 -1.47129 0)
(-0.972137 -1.43792 6.67148e-15)
(-0.561451 -1.22247 6.6929e-16)
(-0.213405 -0.93157 8.1279e-15)
(0.0646228 -0.583641 -3.78851e-15)
(0.280663 -0.198132 0)
(0.437506 0.184145 4.84318e-15)
(0.506669 0.499268 -8.05752e-16)
(0.519179 0.719406 5.93064e-16)
(-1.05032 -0.547138 5.53547e-15)
(-1.59361 -1.27603 -2.14805e-15)
(-1.55958 -1.25143 5.02405e-15)
(-1.31574 -1.01731 -5.24255e-15)
(-1.05233 -0.712954 6.05677e-16)
(-0.819954 -0.381694 3.15997e-15)
(-0.628031 -0.0391513 -9.83691e-15)
(-0.473537 0.290161 1.81814e-15)
(-0.37518 0.567259 3.10594e-15)
(-0.340575 0.739884 8.44278e-17)
(-0.763949 -0.424943 -8.24493e-15)
(-1.45376 -1.03272 5.99604e-15)
(-1.75997 -1.0433 0)
(-1.73012 -0.847749 1.98161e-15)
(-1.60887 -0.558016 2.10861e-15)
(-1.46196 -0.248786 -2.98325e-16)
(-1.32439 0.0542108 1.57681e-15)
(-1.20109 0.333138 3.79193e-15)
(-1.1009 0.56275 5.26003e-18)
(-1.03226 0.693063 3.50715e-16)
(-0.499624 -0.294625 -3.29168e-15)
(-1.13876 -0.74845 4.24231e-15)
(-1.59734 -0.783605 1.74808e-15)
(-1.78819 -0.644348 -2.82546e-15)
(-1.84411 -0.410617 -1.74291e-15)
(-1.80819 -0.152386 -2.31776e-16)
(-1.74529 0.099037 -3.05895e-15)
(-1.6667 0.323719 9.97261e-16)
(-1.58282 0.500342 3.18595e-16)
(-1.49879 0.589515 -3.49224e-16)
(-0.292821 -0.171033 0)
(-0.769416 -0.456676 -1.37976e-15)
(-1.25563 -0.480055 4.627e-16)
(-1.56582 -0.392346 -6.53483e-16)
(-1.74416 -0.227728 1.02745e-15)
(-1.83537 -0.0347512 0)
(-1.86175 0.154738 6.82188e-16)
(-1.84213 0.317739 1.07227e-15)
(-1.7862 0.430675 -9.70942e-16)
(-1.71018 0.469384 -3.06606e-17)
(-0.130113 -0.0545437 0)
(-0.430169 -0.16582 -2.44325e-16)
(-0.842838 -0.152742 2.05974e-15)
(-1.17332 -0.0968743 -1.49548e-15)
(-1.41868 0.00295516 0)
(-1.58109 0.12147 -2.30734e-16)
(-1.67161 0.234933 -6.95271e-16)
(-1.69975 0.32379 5.76681e-16)
(-1.67762 0.367034 6.11485e-16)
(-1.61697 0.348433 -2.45438e-16)
(0.00831783 0.00601643 -8.69718e-16)
(-0.160784 0.02975 2.50034e-16)
(-0.454019 0.039455 2.47282e-16)
(-0.728153 0.0451591 -2.45766e-16)
(-0.948582 0.0720741 0)
(-1.10609 0.109166 2.48836e-16)
(-1.20184 0.138469 2.97673e-16)
(-1.23775 0.149764 -3.17543e-16)
(-1.22379 0.134496 -7.9338e-17)
(-1.17211 0.0805128 3.58499e-18)
(0.496593 0.416693 -2.448e-16)
(0.710309 0.719172 2.98394e-17)
(0.692562 0.771533 1.71445e-17)
(0.60811 0.765224 0)
(0.502208 0.777104 -2.82777e-18)
(0.401774 0.811492 0)
(0.318795 0.853316 3.21863e-18)
(0.254764 0.886259 5.35963e-17)
(0.189626 0.889173 2.80201e-17)
(0.159527 0.829333 -6.70227e-18)
)
;

boundaryField
{
    right
    {
        type            cyclic;
    }
    left
    {
        type            cyclic;
    }
    outerWall
    {
        type            noSlip;
    }
    stirrerWall
    {
        type            noSlip;
    }
    top
    {
        type            empty;
    }
    bottom
    {
        type            empty;
    }
}


// ************************************************************************* //
