/*--------------------------------*- C++ -*----------------------------------*\
  =========                 |
  \\      /  F ield         | OpenFOAM: The Open Source CFD Toolbox
   \\    /   O peration     | Website:  https://openfoam.org
    \\  /    A nd           | Version:  10
     \\/     M anipulation  |
\*---------------------------------------------------------------------------*/
FoamFile
{
    format      ascii;
    class       volScalarField;
    location    "1500";
    object      k;
}
// * * * * * * * * * * * * * * * * * * * * * * * * * * * * * * * * * * * * * //

dimensions      [0 2 -2 0 0 0 0];

internalField   nonuniform List<scalar> 
420
(
2.22045e-16
2.22045e-16
2.22045e-16
2.22045e-16
2.22045e-16
2.22045e-16
2.22045e-16
2.22045e-16
2.22045e-16
2.22045e-16
2.22045e-16
2.22045e-16
2.22045e-16
2.22045e-16
2.22045e-16
2.22045e-16
2.22045e-16
2.22045e-16
2.22045e-16
2.22045e-16
2.22045e-16
2.22045e-16
2.22045e-16
2.22045e-16
2.22045e-16
2.22045e-16
2.22045e-16
2.22045e-16
2.22045e-16
2.22045e-16
2.22045e-16
2.22045e-16
2.22045e-16
2.22045e-16
2.22045e-16
2.22045e-16
2.22045e-16
2.22045e-16
2.22045e-16
2.22045e-16
2.22045e-16
2.22045e-16
2.22045e-16
2.22045e-16
2.22045e-16
2.22045e-16
2.22045e-16
2.22045e-16
2.22045e-16
2.22045e-16
2.22045e-16
2.22045e-16
2.22045e-16
2.22045e-16
2.22045e-16
2.22045e-16
2.22045e-16
2.22045e-16
2.22045e-16
2.22045e-16
2.22045e-16
2.22045e-16
2.22045e-16
2.22045e-16
2.22045e-16
2.22045e-16
2.22045e-16
2.22045e-16
2.22045e-16
2.22045e-16
2.22045e-16
2.22045e-16
2.22045e-16
2.22045e-16
2.22045e-16
2.22045e-16
2.22045e-16
2.22045e-16
2.22045e-16
2.22045e-16
2.22045e-16
2.22045e-16
2.22045e-16
2.22045e-16
2.22045e-16
2.22045e-16
2.22045e-16
2.22045e-16
2.22045e-16
2.22045e-16
2.22045e-16
2.22045e-16
2.22045e-16
2.22045e-16
2.22045e-16
2.22045e-16
2.22045e-16
2.22045e-16
2.22045e-16
2.22045e-16
2.22045e-16
2.22045e-16
2.27101e-16
2.89022e-16
3.22526e-16
2.88053e-16
2.3565e-16
2.47817e-16
3.12079e-16
2.5145e-16
2.22045e-16
2.22045e-16
2.22045e-16
2.87767e-16
3.21743e-16
2.88945e-16
2.35688e-16
2.39819e-16
3.21401e-16
2.56603e-16
2.22045e-16
2.22045e-16
2.22045e-16
2.84051e-16
3.19689e-16
2.90274e-16
2.36677e-16
2.32787e-16
3.27114e-16
2.59711e-16
2.22045e-16
2.22045e-16
2.22045e-16
2.80515e-16
3.17375e-16
2.91963e-16
2.37812e-16
2.27754e-16
3.26909e-16
2.59747e-16
2.22045e-16
2.22045e-16
2.22045e-16
2.77542e-16
3.1468e-16
2.93423e-16
2.3884e-16
2.24794e-16
3.22774e-16
2.57715e-16
2.22045e-16
2.22045e-16
2.22045e-16
2.76652e-16
3.14268e-16
2.95122e-16
2.39725e-16
2.22186e-16
3.15263e-16
2.53102e-16
2.22045e-16
2.22045e-16
2.22045e-16
2.78572e-16
3.15322e-16
2.97107e-16
2.40337e-16
2.22045e-16
3.04032e-16
2.46139e-16
2.22045e-16
2.22045e-16
2.22045e-16
2.82947e-16
3.17424e-16
2.99542e-16
2.40728e-16
2.22045e-16
2.89621e-16
2.37645e-16
2.22045e-16
2.22045e-16
2.22045e-16
2.89736e-16
3.20601e-16
3.02399e-16
2.40955e-16
2.22045e-16
2.74172e-16
2.29753e-16
2.22045e-16
2.22045e-16
2.29312e-16
2.97741e-16
3.2413e-16
3.05019e-16
2.41059e-16
2.22045e-16
2.62484e-16
2.26333e-16
2.22045e-16
2.22045e-16
2.51235e-16
2.97754e-16
3.20731e-16
3.01456e-16
2.38132e-16
2.22045e-16
2.5725e-16
2.26976e-16
2.22045e-16
2.22045e-16
2.55567e-16
2.92447e-16
3.1696e-16
3.00084e-16
2.36374e-16
2.22045e-16
2.52121e-16
2.23902e-16
2.22045e-16
2.22045e-16
2.61067e-16
2.92914e-16
3.19917e-16
3.04922e-16
2.37192e-16
2.22045e-16
2.43342e-16
2.22045e-16
2.22045e-16
2.49199e-16
2.6872e-16
2.97431e-16
3.27793e-16
3.11883e-16
2.39448e-16
2.22045e-16
2.31567e-16
2.22045e-16
2.41351e-16
2.52344e-16
2.65109e-16
2.97451e-16
3.31954e-16
3.14432e-16
2.405e-16
2.22045e-16
2.22247e-16
2.22045e-16
2.3973e-16
2.45884e-16
2.60041e-16
2.9737e-16
3.35941e-16
3.1617e-16
2.42067e-16
2.22045e-16
2.22045e-16
2.22045e-16
2.3448e-16
2.40059e-16
2.56097e-16
2.97685e-16
3.39705e-16
3.16942e-16
2.44236e-16
2.22045e-16
2.22045e-16
2.22045e-16
2.30384e-16
2.35657e-16
2.52827e-16
2.97691e-16
3.41859e-16
3.16098e-16
2.46613e-16
2.22045e-16
2.22045e-16
2.22045e-16
2.27143e-16
2.31696e-16
2.49311e-16
2.97105e-16
3.40848e-16
3.13382e-16
2.48765e-16
2.22045e-16
2.22045e-16
2.22045e-16
2.23398e-16
2.27236e-16
2.44619e-16
2.94806e-16
3.37956e-16
3.0898e-16
2.50091e-16
2.27308e-16
2.27601e-16
2.22045e-16
2.22045e-16
2.22045e-16
2.37738e-16
2.89997e-16
3.32648e-16
3.0304e-16
2.49928e-16
2.37115e-16
2.51841e-16
2.28341e-16
2.22045e-16
2.22045e-16
2.31123e-16
2.87028e-16
3.32581e-16
3.03783e-16
2.52483e-16
2.41621e-16
2.92542e-16
2.35752e-16
2.22045e-16
2.22045e-16
2.22045e-16
2.31633e-16
2.29272e-16
2.26146e-16
2.24235e-16
2.22546e-16
2.22045e-16
2.22045e-16
2.22045e-16
2.22045e-16
2.22045e-16
2.22045e-16
2.22045e-16
2.22045e-16
2.22045e-16
2.22045e-16
2.22045e-16
2.22045e-16
2.22045e-16
2.22045e-16
2.22045e-16
2.22045e-16
2.22045e-16
2.22045e-16
2.22045e-16
2.22045e-16
2.22045e-16
2.22045e-16
2.22045e-16
2.22045e-16
2.22045e-16
2.22045e-16
2.22045e-16
2.22045e-16
2.22045e-16
2.22045e-16
2.22045e-16
2.22045e-16
2.22045e-16
2.22045e-16
2.22045e-16
2.22045e-16
2.22045e-16
2.22045e-16
2.22045e-16
2.22045e-16
2.22045e-16
2.22045e-16
2.22045e-16
2.22045e-16
2.22045e-16
2.22045e-16
2.22045e-16
2.22045e-16
2.22045e-16
2.22045e-16
2.22045e-16
2.22045e-16
2.22045e-16
2.22045e-16
2.22045e-16
2.22045e-16
2.22045e-16
2.22045e-16
2.22045e-16
2.22045e-16
2.22045e-16
2.22045e-16
2.22045e-16
2.22045e-16
2.22045e-16
2.22045e-16
2.22045e-16
2.22045e-16
2.22045e-16
2.22045e-16
2.22045e-16
2.22045e-16
2.22045e-16
2.22045e-16
2.22045e-16
2.22045e-16
2.22045e-16
2.22045e-16
2.22045e-16
2.22045e-16
2.22045e-16
2.22045e-16
2.22045e-16
2.22045e-16
2.22045e-16
2.22045e-16
2.22045e-16
2.22045e-16
2.22045e-16
2.22045e-16
2.22045e-16
2.22045e-16
)
;

boundaryField
{
    right
    {
        type            cyclic;
    }
    left
    {
        type            cyclic;
    }
    outerWall
    {
        type            kqRWallFunction;
        value           nonuniform List<scalar> 
22
(
2.5145e-16
2.56603e-16
2.59711e-16
2.59747e-16
2.57715e-16
2.53102e-16
2.46139e-16
2.37645e-16
2.29753e-16
2.26333e-16
2.26976e-16
2.23902e-16
2.22045e-16
2.22045e-16
2.22045e-16
2.22045e-16
2.22045e-16
2.22045e-16
2.22045e-16
2.22045e-16
2.28341e-16
2.35752e-16
)
;
    }
    stirrerWall
    {
        type            kqRWallFunction;
        value           uniform 2.22045e-16;
    }
    top
    {
        type            empty;
    }
    bottom
    {
        type            empty;
    }
}


// ************************************************************************* //
