/*--------------------------------*- C++ -*----------------------------------*\
  =========                 |
  \\      /  F ield         | OpenFOAM: The Open Source CFD Toolbox
   \\    /   O peration     | Website:  https://openfoam.org
    \\  /    A nd           | Version:  10
     \\/     M anipulation  |
\*---------------------------------------------------------------------------*/
FoamFile
{
    format      ascii;
    class       volScalarField;
    location    "1500";
    object      nut;
}
// * * * * * * * * * * * * * * * * * * * * * * * * * * * * * * * * * * * * * //

dimensions      [0 2 -1 0 0 0 0];

internalField   nonuniform List<scalar> 
420
(
1.04478e-20
5.09721e-20
1.36488e-19
2.59921e-19
4.04375e-19
5.52264e-19
6.81382e-19
7.5617e-19
7.32163e-19
6.24497e-19
1.04473e-20
5.37299e-20
1.39973e-19
2.60091e-19
4.00432e-19
5.45415e-19
6.70406e-19
7.32901e-19
6.88371e-19
5.65529e-19
1.04471e-20
5.77761e-20
1.50198e-19
2.7113e-19
4.07361e-19
5.46246e-19
6.62346e-19
7.06871e-19
6.37502e-19
5.00822e-19
1.04472e-20
6.08337e-20
1.61435e-19
2.86005e-19
4.18412e-19
5.48336e-19
6.50577e-19
6.734e-19
5.77153e-19
4.34825e-19
1.04476e-20
6.29768e-20
1.69906e-19
2.94941e-19
4.18591e-19
5.33799e-19
6.18539e-19
6.21918e-19
5.09165e-19
3.71787e-19
1.04483e-20
6.31022e-20
1.67149e-19
2.7566e-19
3.74579e-19
4.65009e-19
5.3427e-19
5.39856e-19
4.42665e-19
3.09319e-19
1.04493e-20
6.01657e-20
1.37639e-19
2.03376e-19
2.61747e-19
3.19943e-19
3.74505e-19
4.00857e-19
3.55969e-19
2.41812e-19
1.04506e-20
4.76719e-20
8.00381e-20
1.04465e-19
1.29089e-19
1.56614e-19
1.86749e-19
2.12417e-19
2.12902e-19
1.61924e-19
1.04522e-20
2.14891e-20
2.79929e-20
3.46529e-20
4.20517e-20
5.03778e-20
5.96611e-20
6.92828e-20
7.68229e-20
7.42965e-20
2.82342e-21
3.6643e-21
4.61494e-21
5.67535e-21
6.84552e-21
8.12545e-21
9.51514e-21
1.10146e-20
1.26238e-20
1.43428e-20
5.13175e-19
4.60562e-19
5.07642e-19
8.37246e-19
1.18708e-18
1.1355e-18
7.46018e-19
3.55929e-19
1.72249e-19
6.8544e-20
4.56422e-19
4.13242e-19
4.61072e-19
8.11935e-19
1.18144e-18
1.15495e-18
7.89947e-19
3.7372e-19
1.70288e-19
6.72906e-20
3.99363e-19
3.64826e-19
4.24573e-19
7.78742e-19
1.16748e-18
1.16638e-18
8.20124e-19
3.82327e-19
1.65077e-19
6.5909e-20
3.41225e-19
3.14688e-19
3.86818e-19
7.45135e-19
1.14943e-18
1.17051e-18
8.3558e-19
3.85339e-19
1.59331e-19
6.50165e-20
2.8216e-19
2.64498e-19
3.49623e-19
7.1371e-19
1.12857e-18
1.16817e-18
8.39303e-19
3.85169e-19
1.528e-19
6.38956e-20
2.22678e-19
2.16598e-19
3.15181e-19
6.8922e-19
1.11527e-18
1.16418e-18
8.36066e-19
3.86295e-19
1.46124e-19
6.27709e-20
1.64125e-19
1.73155e-19
2.83341e-19
6.77382e-19
1.11085e-18
1.16139e-18
8.30036e-19
3.96907e-19
1.40175e-19
6.18849e-20
1.09808e-19
1.34315e-19
2.58014e-19
6.84215e-19
1.11624e-18
1.16055e-18
8.21406e-19
4.15115e-19
1.36306e-19
6.17667e-20
6.3127e-20
1.01512e-19
2.44061e-19
7.19543e-19
1.13344e-18
1.16156e-18
8.10245e-19
4.32325e-19
1.38262e-19
6.31817e-20
2.85007e-20
7.73305e-20
2.62943e-19
7.59946e-19
8.72798e-19
8.57813e-19
7.96085e-19
4.4743e-19
1.49151e-19
6.31688e-20
1.03958e-20
7.26436e-20
3.87223e-19
7.14472e-19
8.24692e-19
8.26437e-19
7.73663e-19
4.33581e-19
1.47577e-19
6.25406e-20
1.03958e-20
9.339e-20
4.74929e-19
9.23694e-19
1.16457e-18
1.14241e-18
7.63352e-19
4.27063e-19
1.35761e-19
5.90297e-20
5.42735e-20
2.11068e-19
6.11671e-19
9.3634e-19
1.16425e-18
1.14574e-18
7.55403e-19
4.11963e-19
1.31308e-19
6.03771e-20
2.61821e-19
5.41471e-19
6.37423e-19
8.10353e-19
1.00185e-18
9.89682e-19
7.4041e-19
4.02604e-19
1.31641e-19
6.19801e-20
5.36193e-19
5.68748e-19
6.23654e-19
7.85177e-19
9.73299e-19
9.50128e-19
7.20958e-19
3.83231e-19
1.35558e-19
6.19873e-20
6.21059e-19
5.91815e-19
6.23436e-19
7.80494e-19
9.68095e-19
9.32682e-19
7.0138e-19
3.62166e-19
1.46182e-19
6.19932e-20
6.49943e-19
5.9325e-19
6.12432e-19
7.66251e-19
9.54217e-19
9.12722e-19
6.8227e-19
3.40138e-19
1.56693e-19
6.19978e-20
6.46895e-19
5.81818e-19
6.02828e-19
7.6862e-19
9.72034e-19
8.74239e-19
6.64187e-19
3.18567e-19
1.49032e-19
6.20012e-20
6.33705e-19
5.98124e-19
6.66655e-19
8.68401e-19
1.08002e-18
8.22918e-19
6.46737e-19
2.98826e-19
1.37013e-19
6.20033e-20
6.3882e-19
5.89524e-19
6.48648e-19
9.1264e-19
1.1005e-18
7.87042e-19
6.43385e-19
2.90911e-19
1.29098e-19
6.2004e-20
6.05025e-19
5.47439e-19
6.08623e-19
8.91245e-19
1.21709e-18
9.4698e-19
6.64596e-19
3.05589e-19
1.37446e-19
6.37616e-20
5.68185e-19
5.10782e-19
5.61702e-19
8.65233e-19
1.22746e-18
1.16741e-18
7.32058e-19
2.78431e-19
1.49837e-19
5.75431e-20
1.43428e-20
1.16238e-19
4.23516e-19
6.43575e-19
7.20775e-19
7.37822e-19
7.23098e-19
7.19619e-19
7.12732e-19
6.76693e-19
1.26238e-20
8.69118e-20
3.1127e-19
6.00011e-19
7.5607e-19
8.06801e-19
8.05368e-19
7.95391e-19
7.88519e-19
7.66868e-19
1.10146e-20
6.64318e-20
2.20938e-19
4.50864e-19
6.38526e-19
7.39814e-19
7.76094e-19
7.85142e-19
7.8191e-19
7.72844e-19
9.51514e-21
5.18246e-20
1.46191e-19
2.93127e-19
4.53193e-19
5.79987e-19
6.53176e-19
6.8318e-19
6.90608e-19
6.88876e-19
8.12545e-21
4.38074e-20
1.1238e-19
2.07413e-19
3.14655e-19
4.15574e-19
4.96538e-19
5.44052e-19
5.60455e-19
5.59806e-19
6.84552e-21
3.78327e-20
9.53401e-20
1.6806e-19
2.4623e-19
3.2024e-19
3.80715e-19
4.15871e-19
4.23809e-19
4.15703e-19
5.67535e-21
3.22946e-20
8.33728e-20
1.44691e-19
2.04266e-19
2.53741e-19
2.85645e-19
2.95264e-19
2.87546e-19
2.72306e-19
4.61494e-21
2.66065e-20
6.93697e-20
1.14467e-19
1.47418e-19
1.65576e-19
1.70072e-19
1.65623e-19
1.56141e-19
1.44924e-19
3.6643e-21
2.0648e-20
4.32462e-20
5.55217e-20
6.05347e-20
6.20396e-20
6.18783e-20
6.07564e-20
5.84887e-20
5.49783e-20
2.82342e-21
1.04522e-20
1.04506e-20
1.04493e-20
1.04483e-20
1.04476e-20
1.04472e-20
1.04471e-20
1.04473e-20
1.04478e-20
)
;

boundaryField
{
    right
    {
        type            cyclic;
    }
    left
    {
        type            cyclic;
    }
    outerWall
    {
        type            nutkWallFunction;
        Cmu             0.09;
        kappa           0.41;
        E               9.8;
        value           uniform 0;
    }
    stirrerWall
    {
        type            nutkWallFunction;
        Cmu             0.09;
        kappa           0.41;
        E               9.8;
        value           uniform 0;
    }
    top
    {
        type            empty;
    }
    bottom
    {
        type            empty;
    }
}


// ************************************************************************* //
