/*--------------------------------*- C++ -*----------------------------------*\
  =========                 |
  \\      /  F ield         | OpenFOAM: The Open Source CFD Toolbox
   \\    /   O peration     | Website:  https://openfoam.org
    \\  /    A nd           | Version:  10
     \\/     M anipulation  |
\*---------------------------------------------------------------------------*/
FoamFile
{
    format      ascii;
    class       volScalarField;
    location    "1500";
    object      omega;
}
// * * * * * * * * * * * * * * * * * * * * * * * * * * * * * * * * * * * * * //

dimensions      [0 0 -1 0 0 0 0];

internalField   nonuniform List<scalar> 
420
(
21252.7
4356.2
1626.85
854.278
549.105
402.063
325.874
293.644
303.272
355.557
21253.7
4132.61
1586.34
853.72
554.512
407.112
331.209
302.967
322.565
392.632
21254.2
3843.19
1478.35
818.959
545.081
406.492
335.239
314.123
348.304
443.36
21254
3650.02
1375.44
776.366
530.684
404.942
341.304
329.737
384.724
510.653
21253.2
3525.82
1306.87
752.845
530.457
415.971
358.982
357.032
436.096
597.236
21251.7
3518.81
1328.42
805.503
592.784
477.506
415.603
411.303
501.609
717.849
21249.7
3690.55
1613.24
1091.79
848.319
694.012
592.902
553.924
623.775
918.252
21247.1
4657.77
2774.24
2125.55
1720.1
1417.78
1189
1045.32
1042.94
1371.29
21243.8
10332.9
7932.17
6407.68
5280.28
4407.59
3721.77
3204.9
2890.34
2988.63
78643.9
60596.7
48114.3
39124.4
32436.5
27327.1
23335.9
20159.1
17589.3
15481.3
432.688
482.117
447.365
345.206
271.697
253.678
315.877
595.21
1480.96
3581.27
486.49
537.323
481.584
354.421
272.331
250.179
298.359
532.09
1379.7
3581.17
555.996
608.632
522.983
364.756
273.829
248.868
288.587
490.861
1314.04
3581.13
650.729
705.602
574.028
376.461
276.115
249.433
284.607
470.403
1289.53
3581.18
786.947
839.495
635.098
388.873
278.83
251.181
284.57
465.701
1269.5
3581.3
997.154
1025.14
704.499
401.399
281.787
253.501
286.729
465.361
1244.71
3581.49
1352.9
1282.35
783.666
411.248
283.857
255.821
289.55
467.548
1216.94
3581.76
2022.12
1653.17
860.592
413.536
284.368
258.103
293.068
472.715
1188.81
3582.1
3517.43
2187.37
909.791
402.666
282.858
260.34
297.385
481.287
1166.77
3582.51
7790.85
2871.37
872.097
372.431
279.136
262.418
302.805
493.904
1164.41
3582.99
21359.1
3056.63
648.813
325.498
272.646
262.038
307.798
512.118
1196.68
3575.63
21359.1
2377.61
538.116
316.606
272.17
262.676
309.653
519.935
1196.96
3575.63
4091.22
1052.01
426.809
312.829
274.783
266.135
313.995
529.373
1186.51
3582.99
848.078
448.416
349.137
309.533
277.726
270.648
323.399
551.521
1205.41
3582.51
385.595
349.418
338.951
310.964
278.782
273.543
333.584
579.401
1243.41
3582.1
323.211
340.552
342.879
313.547
279.425
276.217
345.13
613.102
1300.13
3581.76
318.398
346.705
349.88
316.326
279.879
278.885
357.976
652.808
1382.48
3581.49
324.975
357.072
357.819
318.857
280.022
281.272
371.301
697.01
1489.91
3581.3
336
369.793
366.63
321.047
279.416
282.59
384.647
743.056
1620.61
3581.18
349.704
385.457
377.122
323.026
277.272
279.94
388.711
781.367
1763.01
3581.13
367
405.606
390.616
325.384
273.315
271.596
376.06
775.928
1832.3
3581.17
390.796
434.715
411.469
331.734
270.95
260.22
344.895
704.421
1723.22
3581.27
15481.3
1910.26
524.288
324.724
292.096
288.672
292.861
300.454
311.54
328.132
17589.3
2554.83
713.351
370.067
293.683
275.216
272.673
275.303
280.87
289.548
20159.1
3342.44
1005.01
492.487
347.746
300.136
286.105
282.808
283.977
287.308
23335.9
4284.54
1518.87
757.504
489.956
382.844
339.946
325.016
321.52
322.329
27327.1
5068.65
1975.84
1070.54
705.677
534.308
447.186
408.131
396.186
396.646
32436.5
5869.12
2328.97
1321.22
901.776
693.37
583.23
533.926
523.926
534.142
39124.4
6875.58
2663.27
1534.61
1087.04
875.084
777.345
752.02
772.204
815.422
48114.3
8345.49
3200.89
1939.81
1506.22
1341.04
1305.59
1340.66
1422.08
1532.14
60596.7
10753.8
5134.43
3999.24
3668.05
3579.08
3588.41
3654.67
3796.37
4038.77
78643.9
21243.8
21247.1
21249.7
21251.7
21253.2
21254
21254.2
21253.7
21252.7
)
;

boundaryField
{
    right
    {
        type            cyclic;
    }
    left
    {
        type            cyclic;
    }
    outerWall
    {
        beta1           0.075;
        blended         0;
        type            omegaWallFunction;
        value           nonuniform List<scalar> 
22
(
3581.27
3581.17
3581.13
3581.18
3581.3
3581.49
3581.76
3582.1
3582.51
3582.99
3575.63
3575.63
3582.99
3582.51
3582.1
3581.76
3581.49
3581.3
3581.18
3581.13
3581.17
3581.27
)
;
    }
    stirrerWall
    {
        beta1           0.075;
        blended         0;
        type            omegaWallFunction;
        value           nonuniform List<scalar> 
42
(
21252.7
21253.7
21254.2
21254
21253.2
21251.7
21249.7
21247.1
21243.8
78643.9
78643.9
60596.7
48114.3
39124.4
32436.5
27327.1
23335.9
20159.1
17589.3
15481.3
21359.1
21359.1
15481.3
17589.3
20159.1
23335.9
27327.1
32436.5
39124.4
48114.3
60596.7
78643.9
78643.9
21243.8
21247.1
21249.7
21251.7
21253.2
21254
21254.2
21253.7
21252.7
)
;
    }
    top
    {
        type            empty;
    }
    bottom
    {
        type            empty;
    }
}


// ************************************************************************* //
