/*--------------------------------*- C++ -*----------------------------------*\
  =========                 |
  \\      /  F ield         | OpenFOAM: The Open Source CFD Toolbox
   \\    /   O peration     | Website:  https://openfoam.org
    \\  /    A nd           | Version:  10
     \\/     M anipulation  |
\*---------------------------------------------------------------------------*/
FoamFile
{
    format      ascii;
    class       volScalarField;
    location    "1500";
    object      p;
}
// * * * * * * * * * * * * * * * * * * * * * * * * * * * * * * * * * * * * * //

dimensions      [0 2 -2 0 0 0 0];

internalField   nonuniform List<scalar> 
420
(
-0.819389
13.9266
30.3282
49.1958
69.7246
91.3053
113.382
135.232
156.351
176.262
-1.85314
13.3189
29.5585
48.2075
68.539
89.9902
112.023
133.905
155.048
175.008
-2.54104
12.733
28.7554
47.1095
67.1667
88.4196
110.349
132.216
153.422
173.542
-2.95008
12.2267
27.9619
45.9358
65.6221
86.5708
108.329
130.198
151.577
171.99
-3.15346
11.8512
27.2468
44.7618
63.9782
84.5346
106.078
127.991
149.667
170.501
-3.2423
11.6304
26.6768
43.687
62.3674
82.4762
103.768
125.761
147.829
169.189
-3.27119
11.5739
26.3051
42.8041
60.9274
80.5539
101.552
123.617
146.134
168.154
-3.26967
11.6824
26.1611
42.1727
59.7557
78.8849
99.5244
121.523
144.42
167.21
-3.29818
11.9609
26.243
41.8159
58.9217
77.5664
97.7415
119.364
142.147
165.234
-3.41409
12.3651
26.3561
41.5832
58.37
76.6805
96.4616
117.543
139.461
161.578
194.714
212.348
229.279
245.128
260.062
274.752
287.617
297.783
298.724
381.864
193.527
211.135
227.812
243.146
257.285
270.751
281.673
288.69
287.989
370.999
192.219
209.822
226.216
241.029
254.39
266.715
275.891
280.585
279.956
362.78
190.899
208.489
224.561
238.886
251.565
262.946
270.752
274.047
274.758
355.696
189.7
207.251
222.987
236.897
249.008
259.652
266.513
269.108
271.044
350.093
188.747
206.212
221.631
235.242
246.907
257.016
263.32
265.623
268.519
345.92
188.181
205.415
220.514
234.007
245.413
255.23
261.319
263.641
267.343
342.919
188.015
204.866
219.606
233.212
244.643
254.455
260.658
263.38
268.317
341.262
187.545
204.79
219.24
233.011
244.653
254.648
261.278
265.182
272.215
341.277
186.104
205.846
220.117
233.732
245.547
255.836
263.042
268.457
276.392
343.65
186.306
207.159
221.736
235.341
247.244
258.06
265.856
271.668
272.779
349.652
188.287
208.018
223.081
236.674
248.704
259.889
268.43
274.687
274.116
353.143
193.773
209.606
224.689
238.53
250.926
262.455
272.049
279.396
284.775
356.091
194.161
210.404
225.889
240.304
253.344
265.622
276.542
285.763
293.473
359.64
194.022
210.927
226.983
242.05
255.861
269.071
281.534
292.916
301.543
364.455
194.253
211.498
228.058
243.759
258.354
272.524
286.471
299.74
309.17
369.857
194.771
212.213
229.16
245.411
260.737
275.873
291.343
306.502
316.686
375.124
195.348
212.936
230.161
246.818
262.739
278.81
295.759
312.678
324.363
382.569
195.808
213.501
230.883
247.753
264.031
280.765
298.628
316.704
332.24
395.889
196.047
213.786
231.198
248.076
264.416
281.237
298.736
316.355
336.476
410.418
195.985
213.699
231.011
247.714
263.861
280.292
296.567
312.161
330.362
410.576
195.547
213.187
230.287
246.556
262.172
278.006
292.919
306.21
312.893
395.157
177.59
175.896
175.456
175.799
176.403
176.997
177.435
177.643
177.564
177.136
151.757
153.028
154.304
155.471
156.471
157.234
157.705
157.868
157.709
157.225
124.675
128.366
131.495
133.726
135.296
136.337
136.901
137.032
136.761
136.154
100.325
104.34
108.299
111.267
113.339
114.664
115.347
115.475
115.126
114.403
78.8834
82.157
85.8518
88.9424
91.1862
92.6433
93.3938
93.5269
93.1438
92.367
59.8655
62.162
64.997
67.6104
69.6412
71.002
71.7136
71.8358
71.4643
70.7279
42.9767
44.3676
46.1473
47.9415
49.4237
50.4407
50.9671
51.027
50.6855
50.056
28.0159
28.6466
29.4349
30.287
31.0403
31.5713
31.8188
31.7721
31.468
30.9853
14.8883
14.7992
14.7849
14.8691
14.9933
15.074
15.0555
14.9211
14.6874
14.3748
2.79038
1.59874
0.646325
0.0913426
-0.234842
-0.476341
-0.707786
-0.93414
-1.08107
-1.10477
)
;

boundaryField
{
    right
    {
        type            cyclic;
    }
    left
    {
        type            cyclic;
    }
    outerWall
    {
        type            zeroGradient;
    }
    stirrerWall
    {
        type            zeroGradient;
    }
    top
    {
        type            empty;
    }
    bottom
    {
        type            empty;
    }
}


// ************************************************************************* //
