/*--------------------------------*- C++ -*----------------------------------*\
  =========                 |
  \\      /  F ield         | OpenFOAM: The Open Source CFD Toolbox
   \\    /   O peration     | Website:  https://openfoam.org
    \\  /    A nd           | Version:  10
     \\/     M anipulation  |
\*---------------------------------------------------------------------------*/
FoamFile
{
    format      ascii;
    class       surfaceScalarField;
    location    "1500";
    object      phi;
}
// * * * * * * * * * * * * * * * * * * * * * * * * * * * * * * * * * * * * * //

dimensions      [0 3 -1 0 0 0 0];

internalField   nonuniform List<scalar> 
788
(
4.39733e-06
-2.29473e-06
4.5707e-06
5.89702e-06
5.88312e-06
1.21386e-05
7.50988e-06
1.41708e-05
8.76688e-06
1.27544e-05
9.08328e-06
8.38837e-06
8.02985e-06
1.62859e-06
6.22138e-06
-7.0554e-06
3.99518e-06
-1.79277e-05
-3.07432e-05
1.34834e-06
2.68387e-06
-4.94152e-06
3.93251e-06
4.78078e-06
5.53791e-06
1.07113e-05
7.20567e-06
1.26558e-05
8.44531e-06
1.16037e-05
8.85293e-06
8.01984e-06
7.99808e-06
2.52473e-06
6.33747e-06
-5.26673e-06
3.72118e-06
-1.50534e-05
-2.71521e-05
4.89034e-07
1.30185e-06
-6.19295e-06
2.65691e-06
3.6098e-06
4.58389e-06
9.01845e-06
6.52162e-06
1.08982e-05
7.93275e-06
1.02943e-05
8.41205e-06
7.59552e-06
7.5205e-06
3.48238e-06
5.32906e-06
-2.9317e-06
1.82067e-06
-1.12776e-05
-2.31214e-05
-1.82242e-06
6.19013e-07
-6.74369e-06
1.6887e-06
2.78212e-06
3.68841e-06
7.3003e-06
5.75423e-06
9.03389e-06
7.22076e-06
8.94078e-06
7.50235e-06
7.3744e-06
6.18115e-06
4.86573e-06
3.04629e-06
3.18036e-07
-1.20049e-06
-6.81797e-06
-1.95212e-05
-4.50089e-06
1.27155e-07
-6.78071e-06
8.83711e-07
2.31908e-06
2.76939e-06
5.74097e-06
4.76073e-06
7.26976e-06
6.07875e-06
7.75266e-06
6.01107e-06
7.50498e-06
4.15314e-06
6.76423e-06
2.82329e-07
4.25652e-06
-4.03217e-06
-2.34912e-06
-1.72581e-05
-6.07257e-06
-3.32169e-07
-6.33886e-06
1.93607e-07
2.13176e-06
1.92067e-06
4.38962e-06
3.77279e-06
5.68155e-06
4.9854e-06
6.6854e-06
4.84072e-06
7.68331e-06
2.92268e-06
8.63301e-06
-6.89056e-07
7.80548e-06
-3.92695e-06
8.99206e-07
-1.63422e-05
-4.76734e-06
-7.69774e-07
-5.44144e-06
-3.21966e-07
2.06559e-06
1.32756e-06
3.16798e-06
3.1684e-06
4.14071e-06
4.6103e-06
5.38055e-06
5.12264e-06
7.12065e-06
4.35969e-06
9.18443e-06
2.37922e-06
9.52235e-06
-4.92394e-08
3.14064e-06
-1.47887e-05
-1.6861e-06
-1.23194e-06
-4.06498e-06
-6.57386e-07
1.91256e-06
1.04149e-06
1.94137e-06
2.98526e-06
2.51438e-06
4.90793e-06
3.54677e-06
6.67127e-06
5.17061e-06
8.16149e-06
7.27847e-06
8.79228e-06
8.40689e-06
7.0185e-06
4.5503e-06
-1.06835e-05
2.73878e-06
-1.77067e-06
-2.13543e-06
-6.89091e-07
1.24333e-06
9.54584e-07
7.12306e-07
2.72672e-06
9.73254e-07
4.72963e-06
1.51247e-06
7.26377e-06
2.31111e-06
1.07883e-05
3.21189e-06
1.50445e-05
3.58098e-06
1.66678e-05
2.55227e-06
-3.88615e-06
9.78943e-06
-2.00476e-06
-5.73201e-07
2.47797e-07
1.2082e-06
2.56399e-06
4.61067e-06
7.5464e-06
1.09362e-05
1.34593e-05
9.68527e-06
-1.494e-06
-4.7002e-05
-4.40897e-06
-7.50462e-05
-7.48654e-06
-0.00011662
-1.18236e-05
-0.000172236
-1.78161e-05
-0.000239268
-2.49028e-05
-0.000321366
-3.73751e-05
-0.000419457
-4.76548e-05
-0.000510399
-4.80631e-05
-0.000561664
-0.00112548
-2.33648e-06
-4.37991e-05
-4.48327e-06
-7.27305e-05
-6.37443e-06
-0.000115079
-9.45824e-06
-0.000170129
-1.37782e-05
-0.000236066
-1.81871e-05
-0.000317358
-2.49147e-05
-0.000412485
-2.95324e-05
-0.000506033
-2.54683e-05
-0.000565572
-0.00115164
-4.07519e-06
-4.1134e-05
-4.86467e-06
-7.17076e-05
-5.16259e-06
-0.000114942
-6.56195e-06
-0.000169252
-8.63913e-06
-0.000234353
-1.01556e-05
-0.000315685
-1.38697e-05
-0.000409283
-1.40118e-05
-0.000506309
-5.41142e-06
-0.00057483
-0.00115695
-5.37075e-06
-3.99994e-05
-4.43932e-06
-7.26182e-05
-3.26097e-06
-0.000116453
-3.18525e-06
-0.000169801
-3.40784e-06
-0.000234156
-2.96965e-06
-0.000315727
-4.63977e-06
-0.000408539
-2.37316e-06
-0.000508238
6.70747e-06
-0.000584295
-0.00114995
-5.12288e-06
-4.08037e-05
-2.69266e-06
-7.51818e-05
-5.0922e-07
-0.000119088
6.72078e-07
-0.000171446
1.78249e-06
-0.000235179
3.36885e-06
-0.000316899
3.41358e-06
-0.0004092
6.70756e-06
-0.000511071
1.66751e-05
-0.000594612
-0.00113309
-2.88432e-06
-4.26916e-05
2.80883e-07
-7.86174e-05
2.95349e-06
-0.000122306
4.85791e-06
-0.000173861
6.91362e-06
-0.000237269
9.22829e-06
-0.000319206
1.08564e-05
-0.000411351
1.48473e-05
-0.000514754
2.66872e-05
-0.000606967
-0.00110635
3.01802e-07
-4.47745e-05
3.67361e-06
-8.22894e-05
6.60735e-06
-0.000125771
9.11261e-06
-0.000176842
1.18678e-05
-0.000240141
1.4694e-05
-0.000322386
1.76656e-05
-0.0004149
2.23332e-05
-0.000519252
3.60575e-05
-0.000621363
-0.00107033
4.43881e-06
-4.65337e-05
7.3364e-06
-8.53635e-05
1.01432e-05
-0.00012893
1.31179e-05
-0.000180105
1.64466e-05
-0.000243493
1.96194e-05
-0.000326028
2.35087e-05
-0.000419384
2.8222e-05
-0.000523798
4.25677e-05
-0.000636365
-0.00102799
9.58292e-06
-4.62173e-05
1.12765e-05
-8.70316e-05
1.34829e-05
-0.000131249
1.64833e-05
-0.000183148
2.02079e-05
-0.000247064
2.3832e-05
-0.000330064
2.85872e-05
-0.000424698
3.12711e-05
-0.000526282
4.04131e-05
-0.000645777
-0.000988098
1.52271e-05
-5.16355e-05
1.46834e-05
-8.63084e-05
1.51904e-05
-0.000131764
1.76409e-05
-0.000185582
2.14322e-05
-0.000250676
2.51894e-05
-0.000333977
3.31133e-05
-0.000432724
3.88716e-05
-0.000532289
2.16881e-05
-0.000628745
-0.000966068
2.45197e-06
-5.39457e-05
2.06442e-06
-8.58848e-05
1.03751e-06
-0.000130801
6.80065e-07
-0.000185091
1.11153e-06
-0.000250788
1.77569e-06
-0.000334907
2.12351e-06
-0.000433232
6.99394e-06
-0.000537365
3.34392e-05
-0.00065548
-0.000932484
2.7888e-06
-5.67128e-05
4.05886e-06
-8.7308e-05
3.515e-06
-0.000130485
3.37624e-06
-0.000184848
3.68553e-06
-0.000250716
4.30342e-06
-0.000335861
4.19369e-06
-0.000433292
6.8608e-06
-0.000539894
3.43748e-05
-0.000683065
-0.000898514
1.05502e-05
-5.40359e-05
-1.32431e-05
1.13058e-05
-8.8554e-05
1.26964e-05
-0.000132325
1.51426e-05
-0.00018742
1.86112e-05
-0.000253974
2.21813e-05
-0.000339728
2.9986e-05
-0.00044097
3.08643e-05
-0.000541068
1.09201e-05
-0.000663176
-0.000887385
7.7326e-06
-5.7379e-05
-4.65273e-06
9.32618e-06
-9.09324e-05
1.13655e-05
-0.000134917
1.42406e-05
-0.000190412
1.78835e-05
-0.000257352
2.13321e-05
-0.000343671
2.74179e-05
-0.000447062
3.00709e-05
-0.000543835
2.98446e-05
-0.000663377
-0.000857316
4.0131e-06
-6.13066e-05
-4.89457e-07
6.08108e-06
-9.37328e-05
8.02761e-06
-0.00013738
1.06915e-05
-0.00019321
1.41335e-05
-0.000260563
1.73371e-05
-0.00034741
2.29102e-05
-0.000453059
2.77219e-05
-0.000548223
3.20761e-05
-0.000668063
-0.000825136
2.41468e-06
-6.37242e-05
-3.701e-07
3.69294e-06
-9.55525e-05
4.92151e-06
-0.000139033
6.91797e-06
-0.000195295
9.78928e-06
-0.000263154
1.26631e-05
-0.000350554
1.82071e-05
-0.000458894
2.46578e-05
-0.000554367
2.80868e-05
-0.000671907
-0.000797066
1.3103e-06
-6.44946e-05
-8.00098e-07
1.41572e-06
-9.59615e-05
1.49261e-06
-0.00013942
2.37713e-06
-0.000196201
4.23007e-06
-0.000264745
6.09721e-06
-0.000352722
1.06718e-05
-0.000463762
1.78657e-05
-0.000561383
2.14169e-05
-0.000676018
-0.00077577
-2.78589e-08
-6.38262e-05
-7.78202e-07
-1.08148e-06
-9.49944e-05
-2.32437e-06
-0.0001384
-2.8822e-06
-0.000195596
-2.5154e-06
-0.000264808
-2.30535e-06
-0.000353237
1.11206e-07
-0.00046658
6.95893e-06
-0.000568249
1.1125e-05
-0.000680894
-0.000764702
-1.70093e-06
-6.18542e-05
-2.62759e-07
-3.93289e-06
-9.26347e-05
-6.6218e-06
-0.000135828
-8.96642e-06
-0.000193123
-1.07534e-05
-0.000262683
-1.29016e-05
-0.000351433
-1.3876e-05
-0.00046621
-1.03945e-05
-0.000571967
-6.8958e-06
-0.000685057
-0.000771216
-2.91263e-06
-5.87026e-05
-8.2502e-08
-6.50784e-06
-8.87235e-05
-1.09778e-05
-0.000131332
-1.55851e-05
-0.000188295
-2.04133e-05
-0.00025753
-2.62489e-05
-0.000346061
-3.19715e-05
-0.000461292
-3.83678e-05
-0.000565719
-5.47086e-05
-0.000668762
-0.000825055
-3.49343e-06
-5.46498e-05
-2.78127e-07
-8.25661e-06
-8.34617e-05
-1.43624e-05
-0.000124984
-2.1237e-05
-0.00018102
-2.93757e-05
-0.000249041
-4.00513e-05
-0.000335934
-5.14547e-05
-0.000450508
-6.70015e-05
-0.000548927
-0.000130304
-0.00060321
-0.000958741
-1.23319e-06
-1.32555e-06
-4.34947e-06
-8.54531e-06
-1.38379e-05
-2.04025e-05
-3.0951e-05
-4.93488e-05
-7.41097e-05
-0.00011929
-2.23892e-05
8.80033e-06
-3.43516e-05
6.57969e-06
-4.08742e-05
5.21176e-06
-4.44681e-05
2.63841e-06
-4.58893e-05
2.84057e-07
-4.55146e-05
-1.20946e-06
-4.37033e-05
-1.84516e-06
-4.08886e-05
-2.40731e-06
-3.74575e-05
-2.9424e-06
-3.3514e-06
-5.54889e-06
1.42301e-05
-1.5513e-05
1.60673e-05
-2.27838e-05
1.19085e-05
-2.73162e-05
6.80724e-06
-2.96091e-05
2.40877e-06
-2.99102e-05
-9.05598e-07
-2.8599e-05
-3.0247e-06
-2.62218e-05
-4.57231e-06
-2.33076e-05
-5.61538e-06
-5.86876e-06
1.24038e-06
1.28088e-05
-2.37508e-06
1.91498e-05
-7.39408e-06
1.63576e-05
-1.15525e-05
1.05796e-05
-1.41644e-05
4.77472e-06
-1.51375e-05
-5.34331e-08
-1.46369e-05
-3.53715e-06
-1.31687e-05
-5.97676e-06
-1.11353e-05
-7.56758e-06
-8.06852e-06
3.57759e-06
9.04045e-06
5.79354e-06
1.64694e-05
5.11454e-06
1.6612e-05
3.28704e-06
1.21191e-05
1.25543e-06
6.60887e-06
-3.16083e-07
1.40713e-06
-1.04917e-06
-2.82821e-06
-1.01042e-06
-5.98547e-06
-4.15852e-07
-8.13741e-06
-9.08992e-06
3.55787e-06
5.33355e-06
8.85834e-06
1.08897e-05
1.20714e-05
1.32457e-05
1.31278e-05
1.09699e-05
1.28298e-05
6.8548e-06
1.18524e-05
2.37878e-06
1.07594e-05
-1.69079e-06
9.78745e-06
-4.94345e-06
9.00692e-06
-7.30823e-06
-8.54246e-06
2.74078e-06
2.51945e-06
8.25433e-06
5.30835e-06
1.33936e-05
8.23758e-06
1.65815e-05
7.88898e-06
1.80493e-05
5.49486e-06
1.82275e-05
2.32213e-06
1.75405e-05
-8.66744e-07
1.63376e-05
-3.60719e-06
1.48922e-05
-5.7561e-06
-7.07187e-06
1.84471e-06
6.78825e-07
6.15651e-06
1.13859e-06
1.13624e-05
3.40649e-06
1.54501e-05
4.07764e-06
1.7964e-05
3.22355e-06
1.90416e-05
1.47291e-06
1.8981e-05
-5.90998e-07
1.80655e-05
-2.50174e-06
1.66093e-05
-4.13245e-06
-5.37014e-06
1.25189e-06
-5.19733e-07
4.00536e-06
-1.31091e-06
7.91241e-06
2.27929e-08
1.14633e-05
9.1471e-07
1.40389e-05
9.78693e-07
1.54241e-05
3.80603e-07
1.56676e-05
-5.77952e-07
1.50027e-05
-1.61712e-06
1.38396e-05
-2.76402e-06
-3.85054e-06
7.33467e-07
-1.18477e-06
1.99131e-06
-2.19119e-06
4.00262e-06
-1.5099e-06
6.04051e-06
-7.5316e-07
7.67076e-06
-3.36558e-07
8.57316e-06
-2.48214e-07
8.60969e-06
-3.80235e-07
7.85754e-06
-6.66031e-07
6.50659e-06
-1.23777e-06
-2.27858e-06
-1.12821e-06
-3.08985e-06
-4.43373e-06
-5.05066e-06
-5.271e-06
-5.41945e-06
-5.71356e-06
-6.30371e-06
-7.4808e-06
)
;

boundaryField
{
    right
    {
        type            cyclic;
        value           nonuniform List<scalar> 
20
(
0.00107847
0.000557546
0.000523386
0.000433575
0.000328978
0.000245389
0.000177086
0.000120846
7.93733e-05
5.09983e-05
3.41288e-05
2.0457e-05
8.87143e-06
-6.13887e-07
-8.58165e-06
-1.36965e-05
-1.53323e-05
-1.28878e-05
-5.48591e-06
9.59372e-06
)
;
    }
    left
    {
        type            cyclic;
        value           nonuniform List<scalar> 
20
(
-0.00107847
-0.000557546
-0.000523386
-0.000433575
-0.000328978
-0.000245389
-0.000177086
-0.000120846
-7.93733e-05
-5.09983e-05
-3.41288e-05
-2.0457e-05
-8.87143e-06
6.13887e-07
8.58165e-06
1.36965e-05
1.53323e-05
1.28878e-05
5.48591e-06
-9.59372e-06
)
;
    }
    outerWall
    {
        type            calculated;
        value           uniform 0;
    }
    stirrerWall
    {
        type            calculated;
        value           uniform 0;
    }
    top
    {
        type            empty;
        value           nonuniform List<scalar> 0();
    }
    bottom
    {
        type            empty;
        value           nonuniform List<scalar> 0();
    }
}


// ************************************************************************* //
