/*--------------------------------*- C++ -*----------------------------------*\
  =========                 |
  \\      /  F ield         | OpenFOAM: The Open Source CFD Toolbox
   \\    /   O peration     | Website:  https://openfoam.org
    \\  /    A nd           | Version:  10
     \\/     M anipulation  |
\*---------------------------------------------------------------------------*/
FoamFile
{
    format      ascii;
    class       volVectorField;
    location    "1500";
    object      U;
}
// * * * * * * * * * * * * * * * * * * * * * * * * * * * * * * * * * * * * * //

dimensions      [0 1 -1 0 0 0 0];

internalField   nonuniform List<vector> 
420
(
(0.745712 8.54777 5.1496e-18)
(0.244647 10.6887 -3.64956e-17)
(0.167827 12.5594 -1.85946e-16)
(0.257723 14.0192 5.28546e-17)
(0.299939 15.1568 -3.84502e-16)
(0.278888 16.0291 0)
(0.139132 16.682 0)
(-0.0730421 17.1729 4.04895e-16)
(-0.306144 17.4509 -4.41092e-16)
(-0.478901 17.5771 0)
(0.0253022 8.75509 1.46459e-17)
(-0.783745 10.6941 -6.54095e-17)
(-0.805428 12.4764 5.28369e-16)
(-0.807486 13.917 -8.49898e-16)
(-0.852448 15.0763 2.69747e-16)
(-0.938022 15.9944 1.66679e-17)
(-1.1151 16.7047 2.4782e-15)
(-1.36199 17.2174 -5.69158e-16)
(-1.61731 17.5615 8.98023e-16)
(-1.83724 17.7624 0)
(-0.739305 8.57834 -7.33999e-17)
(-1.78621 10.4806 -2.25262e-16)
(-1.82607 12.2185 5.0746e-16)
(-1.88972 13.6405 9.81661e-16)
(-1.99723 14.8223 -6.48724e-16)
(-2.15486 15.7884 3.18441e-15)
(-2.3922 16.5945 1.37869e-15)
(-2.71671 17.1907 3.41186e-15)
(-3.05378 17.636 -1.41504e-15)
(-3.33735 17.8702 -3.33546e-15)
(-1.43254 8.39677 7.98216e-17)
(-2.67151 10.2 2.31974e-16)
(-2.79542 11.8819 -6.44121e-16)
(-2.93986 13.2865 6.53337e-16)
(-3.12611 14.4912 -1.26352e-15)
(-3.3838 15.5185 1.35931e-15)
(-3.72352 16.4236 -8.35737e-15)
(-4.17408 17.1203 0)
(-4.61147 17.6506 -3.2599e-15)
(-4.9137 17.8525 3.20509e-15)
(-2.08965 8.21624 0)
(-3.49912 9.8834 2.30873e-16)
(-3.72217 11.4766 -2.15718e-16)
(-3.96721 12.8516 0)
(-4.25875 14.081 -2.14366e-16)
(-4.64545 15.1803 -3.17333e-16)
(-5.11742 16.1907 2.96603e-15)
(-5.70514 17.0039 -3.16472e-15)
(-6.2033 17.5861 0)
(-6.4428 17.668 -1.45931e-14)
(-2.72824 8.03751 -2.6019e-17)
(-4.29477 9.53562 0)
(-4.60409 11.022 0)
(-4.95611 12.3574 1.1263e-15)
(-5.36398 13.6093 -1.8889e-15)
(-5.8801 14.7869 2.25061e-15)
(-6.48434 15.9113 6.27026e-16)
(-7.15446 16.8544 8.17765e-15)
(-7.62443 17.4377 -1.11761e-14)
(-7.7222 17.2878 7.32388e-15)
(-3.36381 7.85026 0)
(-5.05137 9.14861 -2.45693e-16)
(-5.42758 10.5256 -1.68663e-15)
(-5.87408 11.8165 -7.34202e-16)
(-6.38207 13.081 -3.40469e-15)
(-6.98986 14.3284 2.33314e-15)
(-7.67059 15.5629 -6.06955e-15)
(-8.31659 16.6438 7.8243e-16)
(-8.70911 17.1979 -3.46296e-15)
(-8.81232 16.8466 -1.0557e-14)
(-4.01187 7.64377 4.98261e-17)
(-5.75978 8.71215 2.50258e-16)
(-6.18398 9.98599 2.23989e-15)
(-6.70287 11.2251 5.22112e-16)
(-7.28509 12.4745 2.08612e-15)
(-7.93359 13.7522 0)
(-8.61061 15.0611 6.11254e-15)
(-9.19283 16.2697 7.8489e-15)
(-9.55429 16.965 9.72062e-15)
(-9.81076 16.5531 7.70275e-15)
(-4.69593 7.39113 5.08506e-17)
(-6.3846 8.22254 2.58156e-16)
(-6.85185 9.3947 -2.7557e-16)
(-7.43643 10.5439 -1.58809e-15)
(-8.07527 11.6995 5.31581e-15)
(-8.73549 12.8935 7.65186e-15)
(-9.36398 14.1534 -2.70144e-15)
(-9.89599 15.4154 0)
(-10.231 16.4977 0)
(-10.7426 16.5497 -8.05475e-15)
(-5.51616 7.03414 -1.43765e-16)
(-6.92819 7.74983 5.82126e-16)
(-7.52975 8.7897 0)
(-8.26782 9.84076 0)
(-9.02565 10.8951 -3.2707e-15)
(-9.74985 11.9667 -1.97186e-17)
(-10.4027 13.0496 5.90194e-15)
(-10.9653 14.1189 -1.25943e-14)
(-11.5063 15.0858 1.46881e-14)
(-12.202 15.4086 1.15394e-15)
(-0.630355 17.5038 0)
(-0.789614 17.1433 0)
(-0.981236 16.3841 0)
(-1.15488 15.3856 -9.8161e-16)
(-1.35574 14.5023 0)
(-1.50675 13.6677 0)
(-1.42863 12.9501 1.38989e-15)
(-2.22405 13.497 0)
(-9.0109 16.2486 0)
(19.9866 5.14687 0)
(-2.01027 17.6983 1.48008e-15)
(-2.11815 17.2824 2.83669e-15)
(-2.18576 16.4627 2.63729e-16)
(-2.21046 15.4744 1.19444e-15)
(-2.28574 14.6241 2.01957e-16)
(-2.27406 13.836 1.61027e-15)
(-1.96267 13.2772 1.78979e-16)
(-2.81714 13.7281 1.33428e-16)
(-9.26038 15.6994 -4.79986e-15)
(20.2471 4.73522 -5.1026e-15)
(-3.49717 17.7258 1.30247e-15)
(-3.49494 17.1917 0)
(-3.38584 16.3104 -2.31594e-15)
(-3.24308 15.3734 -2.10592e-15)
(-3.18621 14.5791 5.95159e-15)
(-2.99015 13.822 -1.39883e-15)
(-2.53435 13.4175 2.19208e-15)
(-3.53385 13.6103 0)
(-9.6166 14.8726 2.82753e-15)
(21.1728 6.05416 5.67444e-16)
(-4.98211 17.5504 3.04634e-15)
(-4.80233 16.8812 8.05152e-15)
(-4.50104 15.9831 -8.40125e-15)
(-4.22189 15.137 3.28006e-15)
(-4.05868 14.4083 -2.63044e-16)
(-3.72454 13.6774 0)
(-3.16366 13.3751 -2.1842e-15)
(-4.32031 13.3311 -2.81815e-15)
(-10.0514 13.9342 -2.80735e-15)
(21.6798 7.87508 1.63202e-14)
(-6.3429 17.143 2.75961e-15)
(-5.95515 16.3686 -2.61454e-15)
(-5.49253 15.5109 7.99595e-15)
(-5.12846 14.7782 -3.28705e-15)
(-4.88995 14.1199 2.62812e-15)
(-4.46321 13.4242 -4.07605e-15)
(-3.82604 13.2209 3.29991e-15)
(-5.09496 12.9432 2.37687e-15)
(-10.5432 12.9677 0)
(21.9298 10.2104 -3.45411e-14)
(-7.47376 16.5268 3.34643e-15)
(-6.92349 15.7221 -1.42598e-14)
(-6.3651 14.9585 -4.09049e-15)
(-5.96478 14.3281 8.56133e-15)
(-5.67315 13.7337 6.91432e-15)
(-5.18595 13.0769 9.3799e-18)
(-4.48142 12.9711 -2.90286e-16)
(-5.82919 12.4824 -2.0815e-15)
(-10.9292 11.9441 -3.12848e-15)
(21.7335 12.8967 2.65656e-14)
(-8.47383 15.8369 3.13032e-15)
(-7.76751 15.005 4.58926e-15)
(-7.15123 14.3426 0)
(-6.74087 13.8049 -2.82488e-15)
(-6.40781 13.2643 -4.24082e-15)
(-5.87928 12.6443 -1.48854e-16)
(-5.11737 12.6278 -7.01133e-15)
(-6.51195 11.9498 -1.55199e-15)
(-11.1293 10.8893 3.26355e-15)
(20.7786 15.657 -1.14053e-14)
(-9.3802 15.169 1.09587e-14)
(-8.53673 14.275 -4.14232e-15)
(-7.87998 13.6915 0)
(-7.46507 13.2144 -8.14069e-17)
(-7.10035 12.7271 1.48916e-14)
(-6.54812 12.1427 -5.27971e-15)
(-5.73834 12.2047 -2.56231e-15)
(-7.15822 11.3476 2.27001e-15)
(-11.146 9.85381 3.07479e-16)
(18.7423 18.1797 0)
(-10.0675 14.5702 2.03182e-16)
(-9.29522 13.5545 -3.94128e-15)
(-8.57505 13.0284 0)
(-8.14455 12.5593 4.26991e-15)
(-7.75095 12.0997 -1.03349e-14)
(-7.17967 11.5342 4.6954e-15)
(-6.31535 11.6593 1.6695e-15)
(-7.76038 10.7939 0)
(-11.2822 8.95997 4.32597e-16)
(15.3948 19.8845 1.35024e-14)
(-10.3125 14.2151 3.45849e-16)
(-10.2173 12.9155 -5.10633e-17)
(-9.41505 12.3907 0)
(-8.91574 11.8774 -8.76888e-15)
(-8.47835 11.4212 3.62686e-15)
(-7.91053 10.8803 -1.75952e-15)
(-6.93024 11.0282 7.22887e-16)
(-8.28127 10.3134 -1.49963e-15)
(-11.7848 8.48826 -5.87308e-16)
(11.5132 20.0915 -1.19449e-14)
(-10.8437 13.4239 2.733e-15)
(-11.2328 12.0738 -4.02386e-15)
(-10.5798 11.4166 0)
(-10.0491 10.8319 0)
(-9.62157 10.2911 0)
(-9.08191 9.68962 -8.9907e-16)
(-8.17676 9.76347 3.21596e-15)
(-9.32354 8.88386 0)
(-11.6726 7.71774 0)
(8.23084 21.2507 0)
(-11.6009 12.5012 -2.7019e-15)
(-11.7284 11.5805 -4.0682e-15)
(-11.1533 10.9322 0)
(-10.5576 10.3663 2.14737e-15)
(-10.0906 9.82657 -1.65068e-15)
(-9.52991 9.1881 9.03553e-16)
(-8.55393 9.40832 1.40217e-15)
(-9.69644 8.32983 4.67034e-16)
(-11.6102 6.64147 -1.31758e-16)
(7.84491 22.6947 0)
(-12.5099 11.637 1.98679e-16)
(-12.0402 11.0832 -6.38202e-17)
(-11.4101 10.566 0)
(-10.6987 10.1101 -2.4989e-16)
(-10.1024 9.67904 2.87708e-15)
(-9.44636 9.05742 -2.59391e-15)
(-8.29598 9.47036 -3.98861e-15)
(-9.48033 8.35342 1.0809e-16)
(-12.1448 4.93604 -6.09817e-16)
(7.22528 24.1184 1.40321e-14)
(-13.482 10.312 -1.02135e-14)
(-12.8192 9.98337 3.76785e-15)
(-12.1056 9.55228 0)
(-11.3374 9.16343 -4.77891e-15)
(-10.6869 8.80619 -3.3628e-15)
(-10.0229 8.18746 4.66993e-15)
(-8.83703 8.60386 1.73171e-15)
(-10.0174 7.71044 0)
(-12.834 4.64506 -1.1868e-15)
(3.7777 24.6762 -4.42357e-15)
(-14.0623 8.92262 -4.457e-17)
(-13.4378 8.72193 3.75811e-15)
(-12.7168 8.36874 0)
(-11.9163 8.03696 9.68233e-15)
(-11.2267 7.74157 1.52759e-16)
(-10.5423 7.12618 3.09361e-16)
(-9.30984 7.59574 3.83443e-15)
(-10.3669 6.88994 -2.58238e-15)
(-12.9414 3.60285 -1.48302e-16)
(0.223036 24.3193 0)
(-14.4833 7.69316 -2.42432e-15)
(-13.9535 7.51599 8.45721e-15)
(-13.2575 7.19818 6.8989e-15)
(-12.441 6.89665 -8.13535e-15)
(-11.7244 6.64923 -1.27185e-14)
(-11.0074 6.03865 1.22133e-16)
(-9.7281 6.55606 -2.47155e-15)
(-10.6679 6.04001 -1.9836e-15)
(-13.0955 2.57012 -3.41099e-15)
(-3.10528 23.456 -1.82346e-14)
(-14.9014 6.52726 -8.31198e-15)
(-14.4392 6.33149 4.58094e-15)
(-13.7603 6.01383 -3.57216e-15)
(-12.9262 5.71376 -9.24447e-15)
(-12.182 5.49056 7.00214e-15)
(-11.4259 4.88683 -5.39415e-17)
(-10.1171 5.39597 5.91706e-15)
(-10.898 5.03191 1.39669e-15)
(-13.1684 1.41634 3.02315e-15)
(-6.03315 22.196 2.45712e-15)
(-15.3544 5.36315 2.58448e-15)
(-14.9294 5.13944 -2.47942e-15)
(-14.2518 4.80916 -2.8262e-16)
(-13.3925 4.49319 9.72973e-15)
(-12.6149 4.27021 -1.38044e-14)
(-11.8149 3.67839 4.32406e-15)
(-10.4942 4.12828 -3.96152e-15)
(-11.0932 3.83846 9.46202e-15)
(-13.1637 0.222277 0)
(-8.67722 20.6113 -1.44895e-15)
(-15.8268 4.17003 3.04582e-15)
(-15.4153 3.91536 2.54748e-15)
(-14.7323 3.5666 4.53038e-15)
(-13.8472 3.22366 -7.23699e-15)
(-13.0354 2.97868 2.66512e-15)
(-12.1908 2.38072 0)
(-10.8653 2.74719 -2.50402e-15)
(-11.2601 2.35857 -7.74376e-15)
(-13.115 -1.04355 -5.20786e-16)
(-10.7151 18.6466 1.70059e-14)
(-16.3267 2.98463 1.36959e-15)
(-15.9221 2.69811 0)
(-15.2294 2.30919 2.39893e-15)
(-14.3282 1.92028 2.25958e-15)
(-13.4954 1.63237 5.81054e-17)
(-12.5916 0.973951 -1.50276e-15)
(-11.3063 1.21081 2.52842e-15)
(-11.6219 0.641143 0)
(-13.33 -2.97752 3.69683e-15)
(-11.3736 15.8316 2.2183e-14)
(-16.7951 1.78788 1.53683e-15)
(-16.4149 1.48488 -2.87321e-15)
(-15.721 1.06146 -2.71793e-16)
(-14.8115 0.630861 7.69245e-16)
(-14.0131 0.292292 -2.26324e-16)
(-13.105 -0.384401 1.2825e-15)
(-11.8192 -0.470448 -3.32977e-15)
(-12.3392 -0.975892 -4.52011e-16)
(-14.8898 -6.60753 5.60843e-15)
(-15.3566 15.7275 -1.43313e-14)
(-17.1872 0.654475 2.16184e-29)
(-16.8359 0.482852 0)
(-16.1452 0.20294 0)
(-15.1728 -0.111754 -9.98555e-16)
(-14.266 -0.392704 0)
(-13.375 -0.705313 0)
(-12.2328 -1.05253 1.47343e-15)
(-12.8165 -1.7092 0)
(-16.7445 -10.2402 0)
(0.503512 20.0978 -7.52254e-29)
(-14.2008 12.3848 9.1003e-16)
(-14.3535 10.5665 -6.02659e-15)
(-14.6161 8.95656 5.99784e-15)
(-14.8503 7.69932 -8.66612e-15)
(-15.1582 6.56817 6.15826e-15)
(-15.543 5.45099 -1.36055e-14)
(-15.9954 4.31293 3.39852e-15)
(-16.4783 3.17204 -3.60696e-15)
(-16.9344 1.99836 0)
(-17.3001 0.784222 -3.8314e-16)
(-14.9325 11.8433 1.36818e-14)
(-15.1268 10.1312 0)
(-15.0881 8.72009 6.42649e-15)
(-15.1413 7.57777 -2.7184e-15)
(-15.3139 6.53556 -9.89295e-15)
(-15.5924 5.49527 0)
(-15.9829 4.42525 -3.90419e-15)
(-16.4224 3.33238 -1.63479e-15)
(-16.8561 2.18638 1.0254e-15)
(-17.2185 0.945463 -4.08743e-16)
(-14.6334 10.9783 -1.12962e-14)
(-15.2782 9.39474 0)
(-15.3441 8.25664 5.9581e-15)
(-15.3355 7.30217 6.64669e-16)
(-15.4227 6.40188 8.52153e-15)
(-15.6002 5.48077 -4.213e-15)
(-15.8975 4.50335 0)
(-16.2587 3.47967 4.45353e-15)
(-16.6073 2.38585 -6.55084e-16)
(-16.9412 1.1908 5.16001e-16)
(-13.5357 10.2298 5.17802e-15)
(-14.7678 8.77544 -1.78918e-15)
(-15.252 7.75367 4.34841e-15)
(-15.4336 6.96115 -4.66031e-15)
(-15.5355 6.20264 5.3404e-16)
(-15.65 5.40519 3.25156e-15)
(-15.8169 4.52836 -1.03997e-14)
(-16.0547 3.56978 1.67683e-15)
(-16.2726 2.52387 2.63808e-15)
(-16.5014 1.3743 7.77673e-17)
(-12.2606 9.54563 -7.72101e-15)
(-13.6226 8.32857 5.1614e-15)
(-14.5572 7.35506 0)
(-15.0196 6.61052 1.81961e-15)
(-15.2937 5.9147 2.01059e-15)
(-15.4679 5.18769 -2.83436e-16)
(-15.61 4.39179 1.61876e-15)
(-15.7542 3.50898 3.48974e-15)
(-15.8594 2.53558 -3.73113e-18)
(-15.9577 1.45738 3.06828e-16)
(-11.0214 8.86171 -3.08728e-15)
(-12.2206 7.91069 4.04402e-15)
(-13.3295 6.98647 1.62822e-15)
(-14.0385 6.24057 -2.66883e-15)
(-14.4855 5.56143 -1.68092e-15)
(-14.7821 4.8697 -2.23745e-16)
(-14.97 4.12287 -3.13079e-15)
(-15.0924 3.2981 9.47194e-16)
(-15.141 2.39315 2.7121e-16)
(-15.1623 1.39061 -3.11207e-16)
(-9.85928 8.15786 0)
(-10.7882 7.46167 -1.39496e-15)
(-11.8385 6.61525 3.98461e-16)
(-12.6653 5.8738 -6.51382e-16)
(-13.2342 5.18407 1.05757e-15)
(-13.6239 4.49843 0)
(-13.8701 3.775 7.12759e-16)
(-14.0176 2.9935 1.03272e-15)
(-14.0571 2.15132 -8.93245e-16)
(-14.0575 1.24521 -2.82053e-17)
(-8.76768 7.43868 0)
(-9.45928 6.9418 -3.35742e-16)
(-10.3117 6.19685 2.31517e-15)
(-11.0828 5.48319 -1.689e-15)
(-11.6754 4.7877 0)
(-12.1046 4.09675 -2.81768e-16)
(-12.3862 3.382 -7.67948e-16)
(-12.543 2.62373 6.2162e-16)
(-12.5948 1.83651 6.04592e-16)
(-12.5969 1.03616 -2.33382e-16)
(-7.71925 6.67147 -7.29052e-16)
(-8.25165 6.29814 3.39736e-16)
(-8.89442 5.607 3.26227e-16)
(-9.51298 4.9033 -3.17639e-16)
(-10.0168 4.20218 0)
(-10.3951 3.50216 3.1351e-16)
(-10.6465 2.79393 4.12443e-16)
(-10.7691 2.0784 -4.59712e-16)
(-10.7953 1.39292 -9.80989e-17)
(-10.7372 0.747276 5.26644e-18)
(-6.34252 6.24857 -1.22136e-16)
(-6.51191 6.02347 2.9795e-17)
(-6.84317 5.45332 1.53742e-17)
(-7.20447 4.81932 0)
(-7.54393 4.19011 -1.85821e-18)
(-7.83803 3.56907 0)
(-8.07105 2.94736 7.56413e-18)
(-8.22862 2.3275 3.98184e-17)
(-8.30612 1.73336 2.15046e-17)
(-8.23675 1.18165 -4.14686e-18)
)
;

boundaryField
{
    right
    {
        type            cyclic;
    }
    left
    {
        type            cyclic;
    }
    outerWall
    {
        type            calculated;
        value           nonuniform List<vector> 
22
(
(-1.55201 41.8305 0)
(-4.64749 41.6006 0)
(-7.71741 41.1419 0)
(-10.7449 40.4569 0)
(-13.7132 39.5492 0)
(-16.6061 38.424 0)
(-19.4075 37.0874 0)
(-22.1022 35.5467 0)
(-24.6752 33.8104 0)
(-27.1124 31.8882 0)
(-28.9573 30.2506 0)
(-30.2506 28.9573 0)
(-31.8882 27.1124 0)
(-33.8104 24.6752 0)
(-35.5467 22.1022 0)
(-37.0874 19.4075 0)
(-38.424 16.6061 0)
(-39.5492 13.7132 0)
(-40.4569 10.7449 0)
(-41.1419 7.71741 0)
(-41.6006 4.64749 0)
(-41.8305 1.55201 0)
)
;
    }
    stirrerWall
    {
        type            calculated;
        value           nonuniform List<vector> 
42
(
(-0.310178 8.3662 0)
(-0.928834 8.32046 0)
(-1.54239 8.22894 0)
(-2.14746 8.09214 0)
(-2.74072 7.91082 0)
(-3.31888 7.68598 0)
(-3.87877 7.41885 0)
(-4.41729 7.11092 0)
(-4.93148 6.76387 0)
(-5.4185 6.37963 0)
(-6.07951 6.64185 0)
(-6.92878 7.56862 0)
(-7.77806 8.49539 0)
(-8.62734 9.42216 0)
(-9.47661 10.3489 0)
(-10.3259 11.2757 0)
(-11.1752 12.2025 0)
(-12.0244 13.1292 0)
(-12.8737 14.056 0)
(-13.723 14.9828 0)
(-14.4723 15.1215 0)
(-15.1215 14.4723 0)
(-14.9828 13.723 0)
(-14.056 12.8737 0)
(-13.1292 12.0244 0)
(-12.2025 11.1752 0)
(-11.2757 10.3259 0)
(-10.3489 9.47661 0)
(-9.42216 8.62734 0)
(-8.49539 7.77806 0)
(-7.56862 6.92878 0)
(-6.64185 6.07951 0)
(-6.37963 5.4185 0)
(-6.76387 4.93148 0)
(-7.11092 4.41729 0)
(-7.41885 3.87877 0)
(-7.68598 3.31888 0)
(-7.91082 2.74072 0)
(-8.09214 2.14746 0)
(-8.22894 1.54239 0)
(-8.32046 0.928834 0)
(-8.3662 0.310178 0)
)
;
    }
    top
    {
        type            empty;
    }
    bottom
    {
        type            empty;
    }
}


// ************************************************************************* //
