/*--------------------------------*- C++ -*----------------------------------*\
  =========                 |
  \\      /  F ield         | OpenFOAM: The Open Source CFD Toolbox
   \\    /   O peration     | Website:  https://openfoam.org
    \\  /    A nd           | Version:  10
     \\/     M anipulation  |
\*---------------------------------------------------------------------------*/
FoamFile
{
    format      ascii;
    class       volScalarField;
    location    "49000";
    object      Co;
}
// * * * * * * * * * * * * * * * * * * * * * * * * * * * * * * * * * * * * * //

dimensions      [0 0 0 0 0 0 0];

internalField   nonuniform List<scalar> 
17981
(
248.724
251.289
253.778
256.191
258.537
260.825
263.065
265.265
267.433
269.577
271.702
273.817
275.926
278.036
280.15
282.274
284.411
286.565
288.741
290.941
293.167
295.424
297.714
300.039
302.402
304.805
307.25
309.74
312.278
314.864
317.503
320.194
322.942
325.748
328.614
331.543
334.537
337.598
340.729
343.931
347.209
350.563
353.997
357.513
361.114
364.803
368.582
372.455
260.076
262.501
264.839
267.1
269.296
271.438
273.534
275.596
277.631
279.648
281.656
283.659
285.666
287.682
289.711
291.758
293.828
295.923
298.049
300.207
302.4
304.632
306.904
309.22
311.58
313.989
316.446
318.956
321.52
324.139
326.816
329.553
332.353
335.216
338.146
341.144
344.212
347.354
350.571
353.865
357.24
360.696
364.238
367.868
371.588
375.401
379.311
383.319
270.387
272.614
274.752
276.814
278.811
280.756
282.661
284.535
286.39
288.234
290.077
291.924
293.783
295.661
297.561
299.489
301.449
303.445
305.479
307.554
309.674
311.84
314.054
316.32
318.638
321.011
323.44
325.927
328.475
331.085
333.758
336.497
339.303
342.178
345.125
348.145
351.24
354.413
357.665
361
364.418
367.923
371.517
375.203
378.983
382.86
386.837
390.917
287.037
288.737
290.399
292.038
293.664
295.287
296.917
298.563
300.231
301.927
303.657
305.425
307.235
309.091
310.995
312.949
314.957
317.02
319.14
321.318
323.556
325.855
328.218
330.645
333.138
335.699
338.328
341.028
343.799
346.645
349.565
352.563
355.639
358.797
362.037
365.362
368.774
372.276
375.869
379.556
383.34
387.223
391.207
395.297
293.877
295.273
296.637
297.983
299.325
300.675
302.043
303.438
304.867
306.337
307.853
309.42
311.04
312.717
314.452
316.249
318.109
320.032
322.021
324.077
326.2
328.391
330.652
332.983
335.385
337.86
340.409
343.032
345.73
348.506
351.361
354.295
357.311
360.41
363.594
366.864
370.223
373.673
377.215
380.853
384.588
388.422
392.359
396.401
299.223
300.25
301.251
302.245
303.246
304.269
305.323
306.42
307.566
308.768
310.03
311.357
312.751
314.215
315.75
317.357
319.037
320.792
322.62
324.523
326.501
328.555
330.684
332.889
335.171
337.529
339.965
342.479
345.072
347.744
350.498
353.333
356.251
359.254
362.342
365.517
368.781
372.136
375.583
379.125
382.763
386.5
390.339
394.28
303.456
304.027
304.605
305.208
305.85
306.543
307.298
308.121
309.019
309.995
311.052
312.191
313.415
314.724
316.117
317.595
319.157
320.802
322.531
324.342
326.234
328.209
330.265
332.401
334.619
336.917
339.297
341.757
344.299
346.923
349.629
352.419
355.294
358.253
361.299
364.433
367.656
370.97
374.376
377.876
381.472
385.167
388.962
304.782
304.939
305.161
305.459
305.842
306.317
306.889
307.559
308.329
309.2
310.171
311.24
312.408
313.671
315.03
316.481
318.024
319.656
321.376
323.184
325.077
327.055
329.117
331.262
333.489
335.799
338.19
340.664
343.22
345.859
348.58
351.385
354.275
357.25
360.311
363.459
366.697
370.025
373.445
376.958
380.567
302.127
301.911
301.802
301.806
301.928
302.171
302.535
303.019
303.621
304.34
305.172
306.115
307.166
308.321
309.577
310.933
312.384
313.929
315.566
317.292
319.106
321.005
322.989
325.056
327.205
329.437
331.749
334.143
336.616
339.171
341.806
344.522
347.319
350.198
353.16
356.206
359.337
362.554
365.858
369.252
295.353
294.996
294.786
294.72
294.798
295.016
295.371
295.857
296.47
297.205
298.058
299.025
300.101
301.281
302.563
303.943
305.417
306.984
308.639
310.382
312.21
314.12
316.112
318.184
320.334
322.562
324.867
327.248
329.705
332.238
334.847
337.532
340.294
343.133
346.05
349.046
352.121
355.277
284.347
284.34
284.486
284.778
285.209
285.773
286.463
287.274
288.199
289.234
290.374
291.613
292.949
294.377
295.893
297.495
299.18
300.945
302.787
304.706
306.699
308.765
310.903
313.112
315.391
317.74
320.157
322.644
325.2
327.825
330.52
333.284
336.12
339.026
271.244
271.065
271.052
271.196
271.488
271.921
272.487
273.177
273.986
274.906
275.933
277.059
278.281
279.594
280.993
282.476
284.037
285.676
287.387
289.171
291.023
292.942
294.927
296.976
299.087
301.261
303.496
305.791
308.146
310.561
313.036
315.571
318.166
320.822
255.698
255.412
255.302
255.357
255.567
255.922
256.413
257.03
257.767
258.615
259.569
260.621
261.766
262.999
264.315
265.709
267.179
268.719
270.327
272
273.736
275.531
277.383
279.292
281.255
283.271
285.338
287.456
289.625
291.842
294.109
296.424
298.787
301.199
238.004
237.689
237.555
237.591
237.784
238.123
238.598
239.199
239.917
240.744
241.673
242.697
243.808
245.003
246.275
247.619
249.031
250.507
252.043
253.636
255.283
256.981
258.728
260.521
262.358
264.239
266.16
268.122
270.122
272.16
274.236
276.347
278.495
280.678
218.297
218.216
218.305
218.549
218.937
219.458
220.101
220.857
221.717
222.672
223.716
224.841
226.042
227.312
228.647
230.042
231.491
232.992
234.54
236.133
237.766
239.438
241.146
242.887
244.66
246.463
248.294
250.152
252.035
253.943
255.874
257.828
259.804
197.723
197.77
197.983
198.348
198.851
199.48
200.226
201.076
202.024
203.058
204.173
205.361
206.615
207.929
209.298
210.716
212.179
213.683
215.223
216.797
218.4
220.031
221.686
223.362
225.059
226.772
228.502
230.245
232.001
233.767
235.544
237.33
239.123
176.504
176.749
177.153
177.702
178.382
179.181
180.088
181.09
182.18
183.347
184.584
185.882
187.235
188.637
190.082
191.565
193.081
194.625
196.194
197.784
199.391
201.013
202.647
204.29
205.94
207.594
209.251
210.908
212.564
214.218
215.867
217.512
219.149
155.703
156.355
157.146
158.06
159.085
160.208
161.416
162.7
164.05
165.456
166.911
168.407
169.938
171.498
173.083
174.687
176.306
177.936
179.575
181.217
182.861
184.504
186.143
187.775
189.398
192.804
198.557
204.742
210.747
216.575
222.231
227.717
135.193
136.135
137.217
138.42
139.723
141.112
142.573
144.095
145.667
147.279
148.924
150.595
152.285
153.99
155.704
157.424
159.144
160.863
163.832
170.035
178.139
186.045
193.754
201.268
208.589
215.719
222.661
229.417
235.993
242.39
248.613
254.667
115.733
116.967
118.331
119.813
121.4
123.08
124.838
126.65
128.493
130.353
132.223
134.098
135.975
137.849
143.174
152.391
161.867
171.147
180.229
189.112
197.796
206.28
214.565
222.652
230.543
238.241
245.747
253.065
260.199
267.153
273.93
280.535
97.495
99.0416
100.693
102.446
104.295
106.235
108.256
110.335
112.45
114.585
118.245
126.231
136.979
147.558
157.96
168.18
178.211
188.05
197.693
207.138
216.383
225.426
234.269
242.911
251.354
259.6
267.652
275.511
283.183
290.67
297.977
305.109
80.4465
82.3725
84.3868
86.4856
88.6613
90.9042
93.2034
96.0916
103.78
115.681
127.344
138.788
150.042
161.125
172.041
182.783
193.344
203.717
213.898
223.881
233.664
243.245
252.623
261.798
270.77
279.541
288.113
296.489
304.672
312.667
320.478
328.109
64.9622
67.3216
69.7524
72.2547
74.8228
78.2618
86.8999
99.8913
112.67
125.212
137.502
149.543
161.353
172.964
184.399
195.665
206.754
217.659
228.371
238.886
249.2
259.309
269.212
278.907
288.395
297.676
306.753
315.628
324.304
332.786
341.077
349.183
51.4247
54.269
57.1615
60.1068
66.7645
78.8286
92.5051
106.043
119.396
132.529
145.421
158.064
170.462
182.634
194.612
206.416
218.046
229.491
240.743
251.796
262.643
273.282
283.71
293.923
303.923
313.71
323.284
332.648
341.806
350.76
359.517
368.079
39.9655
43.3302
46.7202
54.5291
67.7299
81.846
95.9581
109.987
123.87
137.558
151.02
164.24
177.216
189.957
202.492
214.847
227.029
239.026
250.828
262.427
273.817
284.993
295.95
306.686
317.201
327.493
337.563
347.414
357.048
366.468
375.68
384.688
30.64
34.5337
41.8431
54.2627
68.4505
82.826
97.2908
111.747
126.11
140.316
154.319
168.093
181.628
194.932
208.025
220.938
233.68
246.237
258.597
270.753
282.694
294.416
305.912
317.179
328.214
339.017
349.588
359.927
370.038
379.924
389.588
399.037
23.4323
29.0058
39.2126
53.1155
67.3456
81.8683
96.5908
111.4
126.191
140.874
155.389
169.694
183.773
197.628
211.277
224.751
238.057
251.182
264.111
276.832
289.336
301.615
313.661
325.47
337.037
348.361
359.441
370.277
380.872
391.227
401.348
411.238
18.263
25.1546
36.4506
50.3412
64.547
79.1131
93.9897
109.067
124.22
139.337
154.332
169.147
183.753
198.147
212.349
226.386
240.263
253.963
267.469
280.768
293.848
306.697
319.308
331.672
343.786
355.644
367.246
378.591
389.679
400.514
411.098
421.435
15.0011
21.4366
32.0388
45.9772
60.1697
74.7158
89.6492
104.9
120.34
135.836
151.274
166.575
181.692
196.616
211.365
225.967
240.42
254.704
268.799
282.689
296.359
309.795
322.986
335.923
348.6
361.009
373.148
385.016
396.612
407.937
418.994
429.787
19.409
27.6648
40.04
54.2824
68.8168
83.7428
99.0745
114.716
130.526
146.363
162.12
177.731
193.173
208.467
223.636
238.672
253.549
268.246
282.742
297.019
311.061
324.853
338.383
351.642
364.623
377.319
389.729
401.849
413.68
425.224
436.485
19.9232
26.2638
34.5584
46.9243
61.5127
76.4331
91.7781
107.534
123.581
139.762
155.941
172.024
187.974
203.808
219.546
235.17
250.652
265.966
281.086
295.99
310.659
325.075
339.223
353.09
366.666
379.943
392.917
405.583
417.941
429.991
441.735
21.779
28.5575
35.2594
42.0407
52.8553
67.8379
83.1917
98.9912
115.191
131.649
148.205
164.736
181.18
197.549
213.857
230.076
246.174
262.12
277.883
293.437
308.759
323.826
338.619
353.123
367.324
381.211
394.777
408.016
420.926
433.504
445.754
24.7675
31.9637
39.065
46.0727
52.9898
61.0446
73.4427
89.2771
105.56
122.217
139.093
156.037
172.958
189.855
206.731
223.551
240.277
256.87
273.298
289.528
305.53
321.279
336.75
351.924
366.784
381.314
395.506
409.349
422.84
435.976
448.756
51.119
58.3772
65.5317
72.5884
81.3445
94.8739
111.665
128.791
146.102
163.478
180.891
198.331
215.754
233.117
250.376
267.49
284.423
301.138
317.603
333.789
349.671
365.228
380.44
395.294
409.779
423.886
437.612
450.954
56.8183
64.3981
71.855
79.1957
86.4283
93.559
102.922
117.489
135.106
152.903
170.815
188.81
206.837
224.847
242.789
260.616
278.281
295.743
312.962
329.904
346.536
362.832
378.769
394.328
409.495
424.258
438.61
452.547
62.959
70.8428
78.5847
86.1917
93.6715
101.032
108.281
115.408
125.6
141.42
159.803
178.338
196.966
215.63
234.272
252.834
271.263
289.507
307.52
325.258
342.685
359.766
376.472
392.781
408.673
424.134
439.152
453.722
69.3162
77.4822
85.4893
93.3453
101.059
108.641
116.1
123.443
130.678
137.816
149.411
167.083
186.311
205.635
224.988
244.305
263.523
282.582
301.425
320.002
338.266
356.177
373.699
390.804
407.467
423.669
439.396
454.64
75.7063
84.1317
92.3827
100.469
108.404
116.199
123.869
131.429
138.893
146.278
153.598
161.148
174.941
194.932
215.01
235.102
255.136
275.042
294.755
314.213
333.362
352.153
370.542
388.494
405.979
422.972
439.455
455.417
81.9993
90.6676
99.1478
107.452
115.595
123.593
131.465
139.232
146.912
154.525
162.091
169.624
177.141
187.416
204.358
225.248
246.129
266.92
287.546
307.935
328.022
347.748
367.061
385.918
404.281
422.121
439.414
456.145
88.0787
96.9752
105.671
114.181
122.52
130.711
138.774
146.734
154.614
162.439
170.232
178.012
185.797
193.602
201.436
215.478
236.548
258.262
279.845
301.216
322.296
343.017
363.316
383.14
402.444
421.191
439.353
456.907
93.8451
102.955
111.853
120.554
129.078
137.446
145.686
153.823
161.888
169.907
177.91
185.921
193.961
202.049
210.198
218.417
230.165
249.108
271.693
294.096
316.228
338.005
359.355
380.213
400.525
420.245
439.339
457.778
99.2188
108.527
117.612
126.492
135.185
143.718
152.118
160.417
168.648
176.845
185.04
193.265
201.545
209.904
218.359
226.922
235.6
245.68
263.12
286.608
309.849
332.748
355.217
377.18
398.57
419.334
439.428
458.818
104.142
113.632
122.892
131.936
140.785
149.467
158.013
166.457
174.837
183.193
191.562
199.982
208.486
217.102
225.853
234.754
243.815
253.037
262.417
279.043
303.174
327.262
350.922
374.065
396.611
418.495
439.663
460.074
108.58
118.236
127.655
136.85
145.843
154.661
163.337
171.91
180.422
188.917
197.441
206.037
214.745
223.601
232.634
241.864
251.305
260.962
270.829
280.898
297.437
321.547
346.475
370.878
394.661
417.746
440.068
461.577
114.87
122.324
131.887
141.22
150.343
159.285
168.079
176.766
185.393
194.008
202.666
211.415
220.306
229.383
238.68
248.227
258.041
268.131
278.494
289.12
299.989
317.128
341.861
367.609
392.718
417.093
440.656
463.345
123.032
125.899
135.592
145.051
154.294
163.347
172.247
181.034
189.759
198.476
207.246
216.126
225.176
234.448
243.989
253.835
264.01
274.529
285.39
296.585
308.093
319.884
338.281
364.234
390.763
416.524
441.421
465.382
130.378
128.983
138.793
148.365
157.716
166.871
175.865
184.74
193.548
202.349
211.209
220.195
229.376
238.817
248.574
258.696
269.215
280.151
291.51
303.282
315.446
327.97
340.812
361.067
388.765
416.015
442.35
467.681
136.687
131.669
141.524
151.197
160.646
169.893
178.971
187.923
196.801
205.669
214.597
223.663
232.945
242.523
252.465
262.832
273.67
285.006
296.854
309.206
322.041
335.324
349.007
364.022
386.678
415.531
443.416
470.226
141.975
135.726
143.833
153.594
163.129
172.46
181.614
190.633
199.569
208.487
217.463
226.582
235.935
245.613
255.702
266.278
277.401
289.112
301.431
314.359
327.874
341.938
356.498
371.49
389.543
415.027
444.585
472.991
146.28
140.874
145.777
155.612
165.223
174.626
183.848
192.926
201.909
210.864
219.869
229.016
238.406
248.145
258.337
269.076
280.442
292.491
305.257
318.747
332.943
347.806
363.276
379.28
395.732
417.224
445.814
475.948
149.671
145.063
147.417
157.314
166.988
176.454
185.735
194.863
203.886
212.865
221.881
231.03
240.424
250.183
260.429
271.28
282.836
295.177
308.352
322.38
337.249
352.92
369.329
386.392
404.01
422.072
447.255
479.06
152.254
148.371
148.82
158.765
168.49
178.008
187.339
196.509
205.562
214.555
223.567
232.697
242.063
251.799
262.047
272.949
284.633
297.204
310.737
325.266
340.791
357.273
374.644
392.809
411.657
431.057
453.276
482.288
154.156
150.907
150.052
160.033
169.796
179.354
188.723
197.927
207.002
216
224.995
234.086
243.394
253.065
263.261
274.148
285.887
298.617
312.441
327.419
343.566
360.849
379.198
398.508
418.65
439.473
460.814
487.424
152.808
151.177
161.182
170.972
180.558
189.954
199.18
208.268
217.262
226.23
235.265
244.49
254.057
264.145
274.948
286.661
299.462
313.495
328.853
345.572
363.634
382.968
403.458
424.958
447.294
470.272
494.878
154.211
152.257
162.273
172.079
181.681
191.091
200.328
209.419
218.4
227.331
236.296
245.416
254.845
264.774
275.421
287.019
299.794
313.935
329.582
346.806
365.607
385.919
407.619
430.541
454.483
479.219
504.507
163.364
173.173
182.779
192.192
201.428
210.508
219.466
228.35
237.236
246.233
255.495
265.217
275.64
287.032
299.669
313.802
329.626
347.262
366.74
388.008
410.939
435.344
460.992
487.617
514.93
164.505
174.303
183.902
193.307
202.528
211.585
220.507
229.334
238.13
246.991
256.063
265.54
275.676
286.77
299.152
313.141
329.006
346.934
367.003
389.184
413.352
439.298
466.755
495.411
524.921
175.513
185.091
194.475
203.67
212.692
221.563
230.32
239.015
247.731
256.595
265.797
275.591
286.302
298.308
312.004
327.75
345.819
366.36
389.385
414.777
442.313
471.687
502.53
534.431
176.836
186.381
195.731
204.888
213.861
222.669
231.341
239.923
248.482
257.127
266.03
275.44
285.692
297.206
310.452
325.895
343.92
364.776
388.539
415.121
444.284
475.683
508.883
543.392
178.3
187.796
197.098
206.203
215.116
223.847
232.421
240.875
249.265
257.682
266.273
275.268
285.001
295.916
308.554
323.492
341.254
362.223
386.579
414.279
445.09
478.62
514.363
551.727
189.354
198.593
207.632
216.471
225.114
233.576
241.886
250.094
258.273
266.542
275.106
284.277
294.508
306.39
320.611
337.86
358.695
383.443
412.15
444.602
480.368
518.857
559.355
191.064
200.224
209.181
217.93
226.472
234.811
242.967
250.977
258.905
266.847
274.971
283.557
293.042
304.041
317.341
333.803
354.207
379.088
408.636
442.688
480.785
522.239
566.191
201.993
210.851
219.494
227.918
236.121
244.112
251.913
259.577
267.183
274.867
282.862
291.565
301.588
313.781
329.173
348.804
373.49
403.641
439.202
479.707
524.364
572.137
203.894
212.636
221.155
229.442
237.492
245.305
252.891
260.281
267.541
274.781
282.189
290.102
299.092
310.029
324.079
342.558
366.645
397.073
433.982
476.94
525.053
577.07
205.914
214.523
222.898
231.03
238.908
246.526
253.884
260.995
267.902
274.694
281.519
288.651
296.588
306.168
318.635
335.57
358.578
388.849
426.848
472.254
524.084
580.833
216.496
224.707
232.662
240.347
247.749
254.861
261.682
268.232
274.571
280.818
287.185
294.079
302.255
312.959
327.97
349.357
378.914
417.614
465.383
521.19
583.237
218.533
226.558
234.313
241.78
248.944
255.789
262.303
268.487
274.37
280.037
285.655
291.538
298.315
307.15
319.917
339.112
367.27
406.119
456.043
516.067
584.071
220.614
228.428
235.956
243.179
250.077
256.628
262.814
268.618
274.045
279.136
284.012
288.916
294.342
301.288
311.585
328.043
354.006
392.25
443.949
508.38
583.101
230.292
237.564
244.513
251.113
257.341
263.168
268.571
273.532
278.058
282.212
286.169
290.301
295.409
303.136
316.403
339.314
375.977
428.827
497.747
580.056
232.128
239.113
245.753
252.022
257.89
263.326
268.295
272.767
276.723
280.178
283.227
286.132
289.497
294.679
304.465
323.493
357.381
410.432
483.731
574.613
233.91
240.576
246.873
252.772
258.242
263.246
267.745
271.696
275.059
277.81
279.977
281.718
283.458
286.235
292.463
306.928
336.697
388.589
465.836
566.369
235.609
241.921
247.835
253.323
258.348
262.874
266.854
270.24
272.977
275.013
276.321
276.955
277.185
277.752
280.558
290.053
314.334
363.249
443.511
554.805
237.18
243.103
248.595
253.623
258.152
262.141
265.544
268.306
270.366
271.655
272.114
271.721
270.589
269.169
268.831
273.29
290.897
334.583
416.176
539.238
238.544
244.041
249.068
253.588
257.564
260.954
263.712
265.783
267.104
267.601
267.194
265.811
263.445
260.296
257.203
256.94
267.144
303.085
383.286
518.713
239.545
244.573
249.084
253.038
256.396
259.114
261.148
262.449
262.958
262.605
261.305
258.96
255.474
250.849
245.5
241.219
244.077
269.926
344.585
491.875
239.841
244.33
248.249
251.553
254.199
256.146
257.354
257.78
257.376
256.087
253.841
250.546
246.089
240.376
233.493
226.312
222.884
237.3
300.768
457.169
238.558
242.365
245.528
248.007
249.766
250.771
250.994
250.405
248.978
246.677
243.457
239.26
234.003
227.569
219.844
213.112
203.731
205.928
252.662
412.991
233.006
235.663
237.571
238.728
239.131
238.779
237.682
235.857
233.325
230.094
226.168
221.543
216.175
213.487
210.584
209.064
201.771
188.25
202.617
359.505
212.691
212.615
211.661
209.954
207.611
204.751
201.503
197.994
194.348
190.66
187.885
186.327
185.356
188.738
193.845
200.448
207.017
199.878
177.156
301.894
110.807
104.871
99.0919
93.6718
88.7631
84.5051
81.0366
78.4995
77.0453
76.8469
78.9927
83.983
91.5619
102.532
118.029
139.38
168.636
201.58
210.575
216.397
2642.44
2628.19
2614.06
2600.03
2586.1
2572.25
2558.48
2544.78
2531.12
2517.5
2503.9
2490.3
2476.68
2463.02
2449.31
2435.51
2421.6
2407.56
2393.35
2378.94
2364.3
2349.39
2334.16
2318.58
2302.58
2286.12
2269.12
2251.54
2233.29
2214.28
2194.43
2173.65
2151.81
2128.81
2104.51
2078.78
2051.47
2022.43
1991.51
1958.57
1923.47
1886.1
1846.37
1804.25
1759.75
1712.95
1663.96
1612.92
1559.88
1504.65
1446.41
1382.77
1306.93
1193.86
925.599
2566.52
2552.65
2538.88
2525.22
2511.65
2498.16
2484.74
2471.39
2458.08
2444.8
2431.55
2418.29
2405.02
2391.71
2378.35
2364.91
2351.36
2337.68
2323.84
2309.82
2295.56
2281.05
2266.23
2251.07
2235.51
2219.5
2202.99
2185.9
2168.17
2149.72
2130.46
2110.3
2089.14
2066.86
2043.36
2018.49
1992.13
1964.15
1934.41
1902.77
1869.13
1833.39
1795.48
1755.38
1713.11
1668.72
1622.32
1573.95
1523.56
1470.77
1414.33
1350.9
1271.03
1142.92
852.159
2492.75
2479.24
2465.83
2452.53
2439.31
2426.17
2413.1
2400.09
2387.12
2374.19
2361.27
2348.36
2335.43
2322.47
2309.45
2296.36
2283.17
2269.85
2256.38
2242.73
2228.86
2214.74
2200.33
2185.58
2170.46
2154.9
2138.86
2122.26
2105.05
2087.14
2068.46
2048.93
2028.43
2006.87
1984.14
1960.12
1934.7
1907.75
1879.14
1848.77
1816.54
1782.36
1746.17
1707.97
1667.75
1625.56
1581.42
1535.33
1487.04
1435.87
1380.02
1314.96
1228.5
1085.64
794.687
2421.06
2407.91
2394.85
2381.9
2369.02
2356.23
2343.5
2330.82
2318.2
2305.6
2293.02
2280.44
2267.85
2255.23
2242.56
2229.82
2216.98
2204.02
2190.91
2177.63
2164.14
2150.41
2136.4
2122.07
2107.37
2092.26
2076.68
2060.57
2043.87
2026.5
2008.4
1989.47
1969.62
1948.77
1926.8
1903.62
1879.11
1853.16
1825.66
1796.52
1765.64
1732.96
1698.42
1662
1623.71
1583.55
1541.49
1497.39
1450.84
1400.81
1344.86
1277.2
1183.59
1029.96
755.293
2351.39
2338.59
2325.89
2313.27
2300.74
2288.28
2275.88
2263.54
2251.25
2238.98
2226.74
2214.49
2202.24
2189.95
2177.62
2165.22
2152.73
2140.12
2127.38
2114.46
2101.35
2088
2074.39
2060.47
2046.2
2031.52
2016.4
2000.77
1984.57
1967.74
1950.2
1931.87
1912.67
1892.51
1871.3
1848.93
1825.32
1800.35
1773.94
1745.99
1716.42
1685.18
1652.22
1617.52
1581.04
1542.76
1502.58
1460.22
1415.07
1365.69
1308.98
1238.03
1137.77
979.186
730.077
2283.71
2271.25
2258.88
2246.6
2234.4
2222.27
2210.2
2198.19
2186.22
2174.28
2162.36
2150.45
2138.52
2126.57
2114.58
2102.51
2090.37
2078.11
2065.72
2053.17
2040.43
2027.46
2014.24
2000.73
1986.87
1972.63
1957.96
1942.8
1927.1
1910.79
1893.8
1876.07
1857.5
1838.03
1817.55
1796
1773.26
1749.26
1723.9
1697.12
1668.83
1638.99
1607.54
1574.45
1539.68
1503.12
1464.6
1423.7
1379.52
1330.25
1272.1
1197.43
1091.95
934.336
714.197
2217.94
2205.81
2193.78
2181.83
2169.95
2158.15
2146.4
2134.71
2123.07
2111.45
2099.85
2088.26
2076.66
2065.04
2053.38
2041.65
2029.84
2017.93
2005.89
1993.7
1981.32
1968.74
1955.9
1942.78
1929.34
1915.52
1901.3
1886.61
1871.39
1855.6
1839.16
1822.01
1804.07
1785.27
1765.53
1744.76
1722.89
1699.83
1675.51
1649.86
1622.81
1594.31
1564.3
1532.73
1499.51
1464.5
1427.39
1387.59
1343.95
1294.22
1234.11
1155.9
1047.57
896.003
703.99
2154.04
2142.24
2130.53
2118.9
2107.35
2095.86
2084.43
2073.06
2061.73
2050.43
2039.15
2027.88
2016.6
2005.31
1993.97
1982.57
1971.1
1959.53
1947.83
1936
1923.98
1911.76
1899.31
1886.58
1873.54
1860.15
1846.36
1832.13
1817.4
1802.11
1786.21
1769.64
1752.32
1734.18
1715.15
1695.17
1674.14
1652.01
1628.7
1604.14
1578.28
1551.05
1522.39
1492.22
1460.4
1426.71
1390.72
1351.67
1308.12
1257.46
1195.2
1114.3
1005.86
863.683
696.635
2091.95
2080.48
2069.08
2057.77
2046.53
2035.36
2024.24
2013.18
2002.16
1991.18
1980.21
1969.26
1958.3
1947.32
1936.3
1925.23
1914.09
1902.85
1891.5
1880.01
1868.35
1856.49
1844.41
1832.07
1819.43
1806.45
1793.09
1779.31
1765.06
1750.27
1734.9
1718.89
1702.18
1684.69
1666.37
1647.15
1626.95
1605.72
1583.38
1559.87
1535.14
1509.1
1481.68
1452.76
1422.16
1389.55
1354.39
1315.71
1271.84
1219.97
1155.77
1073.52
967.47
836.283
690.491
2031.64
2020.47
2009.39
1998.39
1987.46
1976.59
1965.78
1955.03
1944.32
1933.64
1922.98
1912.34
1901.69
1891.02
1880.32
1869.57
1858.75
1847.85
1836.83
1825.68
1814.37
1802.87
1791.16
1779.19
1766.95
1754.38
1741.44
1728.1
1714.32
1700.02
1685.18
1669.72
1653.6
1636.76
1619.12
1600.64
1581.25
1560.88
1539.47
1516.96
1493.28
1468.34
1442.04
1414.21
1384.61
1352.84
1318.19
1279.55
1235.06
1181.93
1116.41
1034.28
932.501
812.63
684.667
1973.03
1962.18
1951.4
1940.7
1930.07
1919.51
1909.01
1898.55
1888.14
1877.77
1867.41
1857.07
1846.73
1836.37
1825.98
1815.55
1805.05
1794.47
1783.78
1772.97
1762
1750.85
1739.5
1727.91
1716.04
1703.87
1691.35
1678.45
1665.12
1651.31
1636.98
1622.06
1606.53
1590.3
1573.34
1555.57
1536.95
1517.4
1496.87
1475.29
1452.58
1428.63
1403.31
1376.4
1347.6
1316.4
1282
1243.11
1197.86
1143.71
1077.69
997.041
900.709
791.716
678.698
1916.11
1905.55
1895.07
1884.67
1874.34
1864.07
1853.87
1843.71
1833.6
1823.52
1813.46
1803.42
1793.38
1783.32
1773.24
1763.11
1752.93
1742.66
1732.3
1721.81
1711.18
1700.38
1689.38
1678.15
1666.66
1654.88
1642.77
1630.3
1617.41
1604.07
1590.24
1575.86
1560.88
1545.26
1528.94
1511.86
1493.97
1475.21
1455.5
1434.77
1412.93
1389.85
1365.36
1339.2
1310.99
1280.12
1245.7
1206.4
1160.45
1105.73
1040.08
961.967
871.678
772.757
672.336
1860.8
1850.54
1840.36
1830.25
1820.21
1810.23
1800.31
1790.45
1780.62
1770.84
1761.07
1751.33
1741.58
1731.82
1722.04
1712.22
1702.34
1692.39
1682.34
1672.17
1661.87
1651.4
1640.75
1629.88
1618.76
1607.36
1595.65
1583.59
1571.14
1558.26
1544.91
1531.04
1516.61
1501.57
1485.86
1469.44
1452.24
1434.2
1415.24
1395.28
1374.21
1351.87
1328.06
1302.47
1274.65
1243.91
1209.3
1169.54
1123.1
1068.35
1003.86
929.032
844.955
755.173
665.449
1807.07
1797.1
1787.21
1777.38
1767.63
1757.94
1748.31
1738.73
1729.19
1719.69
1710.21
1700.75
1691.29
1681.83
1672.34
1662.81
1653.23
1643.58
1633.84
1623.99
1614.01
1603.88
1593.56
1583.03
1572.27
1561.25
1549.92
1538.27
1526.24
1513.81
1500.93
1487.55
1473.65
1459.16
1444.03
1428.22
1411.66
1394.28
1376.01
1356.73
1336.32
1314.6
1291.32
1266.13
1238.5
1207.72
1172.84
1132.72
1086.13
1031.89
969.19
898.096
820.123
738.544
657.972
1754.89
1745.2
1735.58
1726.04
1716.56
1707.15
1697.8
1688.5
1679.24
1670.02
1660.82
1651.65
1642.47
1633.29
1624.09
1614.85
1605.57
1596.21
1586.78
1577.23
1567.56
1557.75
1547.76
1537.57
1527.16
1516.5
1505.55
1494.28
1482.67
1470.66
1458.23
1445.33
1431.92
1417.95
1403.38
1388.13
1372.16
1355.38
1337.71
1319.02
1299.16
1277.94
1255.05
1230.09
1202.51
1171.59
1136.45
1096.16
1049.78
996.532
936.091
868.963
796.824
722.57
649.888
1704.19
1694.77
1685.44
1676.17
1666.97
1657.83
1648.75
1639.72
1630.74
1621.79
1612.87
1603.97
1595.07
1586.17
1577.25
1568.29
1559.29
1550.23
1541.09
1531.84
1522.48
1512.97
1503.3
1493.44
1483.37
1473.06
1462.47
1451.58
1440.36
1428.76
1416.76
1404.31
1391.37
1377.89
1363.82
1349.1
1333.65
1317.41
1300.26
1282.06
1262.66
1241.8
1219.16
1194.3
1166.67
1135.58
1100.3
1060.09
1014.26
962.402
904.534
841.431
774.768
707.043
641.209
1654.94
1645.8
1636.73
1627.73
1618.8
1609.93
1601.12
1592.36
1583.64
1574.96
1566.31
1557.67
1549.05
1540.41
1531.77
1523.09
1514.37
1505.58
1496.72
1487.77
1478.7
1469.5
1460.14
1450.6
1440.85
1430.87
1420.63
1410.11
1399.26
1388.06
1376.46
1364.43
1351.93
1338.9
1325.29
1311.04
1296.07
1280.29
1263.58
1245.79
1226.73
1206.12
1183.61
1158.76
1131.03
1099.82
1064.56
1024.67
979.72
929.55
874.445
815.311
753.729
691.827
631.976
1607.11
1598.23
1589.42
1580.69
1572.02
1563.41
1554.86
1546.36
1537.9
1529.48
1521.09
1512.72
1504.35
1495.99
1487.6
1479.19
1470.74
1462.23
1453.65
1444.98
1436.19
1427.28
1418.22
1408.98
1399.55
1389.9
1379.99
1369.81
1359.32
1348.48
1337.27
1325.63
1313.53
1300.92
1287.73
1273.9
1259.34
1243.95
1227.61
1210.13
1191.31
1170.85
1148.38
1123.48
1095.66
1064.45
1029.38
990.053
946.24
897.98
845.727
790.43
733.533
676.832
622.242
1560.64
1552.02
1543.47
1534.99
1526.58
1518.23
1509.93
1501.69
1493.48
1485.32
1477.18
1469.06
1460.95
1452.84
1444.72
1436.57
1428.38
1420.13
1411.82
1403.41
1394.91
1386.27
1377.5
1368.56
1359.42
1350.08
1340.49
1330.64
1320.48
1309.99
1299.13
1287.86
1276.13
1263.89
1251.07
1237.6
1223.4
1208.34
1192.28
1175.03
1156.36
1135.96
1113.47
1088.51
1060.67
1029.58
994.884
956.337
913.865
867.661
818.271
766.634
714.039
661.995
612.056
1515.51
1507.14
1498.84
1490.61
1482.45
1474.34
1466.3
1458.3
1450.34
1442.43
1434.54
1426.66
1418.8
1410.94
1403.07
1395.17
1387.23
1379.24
1371.18
1363.04
1354.8
1346.43
1337.93
1329.27
1320.42
1311.37
1302.08
1292.53
1282.69
1272.52
1261.99
1251.05
1239.65
1227.74
1215.25
1202.1
1188.18
1173.38
1157.53
1140.44
1121.83
1101.43
1078.91
1053.92
1026.16
995.32
961.169
923.579
882.601
838.531
791.961
743.781
695.125
647.261
601.455
1471.66
1463.54
1455.49
1447.5
1439.58
1431.72
1423.91
1416.16
1408.44
1400.77
1393.11
1385.48
1377.86
1370.24
1362.61
1354.95
1347.25
1339.51
1331.7
1323.81
1315.82
1307.71
1299.47
1291.07
1282.5
1273.72
1264.72
1255.45
1245.9
1236.03
1225.8
1215.15
1204.05
1192.43
1180.22
1167.33
1153.65
1139.04
1123.33
1106.31
1087.72
1067.29
1044.74
1019.8
992.208
961.754
928.294
891.802
852.602
812.131
769.711
723.502
676.851
632.585
590.47
1429.08
1421.19
1413.38
1405.63
1397.95
1390.32
1382.75
1375.23
1367.74
1360.3
1352.88
1345.48
1338.09
1330.7
1323.3
1315.87
1308.41
1300.9
1293.33
1285.68
1277.93
1270.07
1262.08
1253.93
1245.61
1237.09
1228.35
1219.35
1210.07
1200.46
1190.5
1180.12
1169.28
1157.91
1145.93
1133.25
1119.74
1105.26
1089.62
1072.62
1054.01
1033.56
1011.03
986.206
958.89
928.943
896.298
862.16
827.348
790.348
750.02
706.381
660.841
617.937
579.129
1387.71
1380.06
1372.47
1364.96
1357.5
1350.1
1342.76
1335.46
1328.21
1320.99
1313.79
1306.62
1299.45
1292.28
1285.1
1277.9
1270.66
1263.38
1256.03
1248.61
1241.09
1233.46
1225.7
1217.79
1209.71
1201.43
1192.93
1184.17
1175.13
1165.77
1156.04
1145.9
1135.28
1124.12
1112.32
1099.8
1086.41
1072
1056.39
1039.37
1020.74
1000.29
977.836
953.207
926.264
896.928
867.27
837.388
804.94
769.605
731.322
690.144
646.235
604.225
567.468
1348.17
1340.44
1332.83
1325.45
1318.21
1311.04
1303.91
1296.83
1289.8
1282.79
1275.81
1268.85
1261.9
1254.95
1247.98
1240.99
1233.97
1226.9
1219.77
1212.56
1205.25
1197.84
1190.3
1182.61
1174.75
1166.69
1158.41
1149.88
1141.06
1131.91
1122.39
1112.44
1102.01
1091.01
1079.36
1066.94
1053.62
1039.23
1023.61
1006.57
987.925
967.522
945.206
920.852
895.125
869.515
843.242
814.635
783.537
749.851
713.557
674.724
633.514
591.981
555.526
1310.07
1302.58
1295.12
1287.69
1280.29
1273.11
1266.17
1259.3
1252.47
1245.68
1238.91
1232.15
1225.4
1218.66
1211.89
1205.11
1198.29
1191.42
1184.49
1177.48
1170.39
1163.18
1155.84
1148.35
1140.69
1132.84
1124.76
1116.42
1107.79
1098.83
1089.49
1079.71
1069.43
1058.56
1047
1034.64
1021.34
1006.94
991.288
974.225
955.607
935.299
913.186
890.95
869.046
845.689
820.341
792.85
763.103
731.04
696.667
660.065
621.384
580.842
544.27
1273.07
1265.8
1258.58
1251.38
1244.21
1237.07
1229.94
1222.95
1216.21
1209.61
1203.04
1196.48
1189.93
1183.37
1176.81
1170.21