/*--------------------------------*- C++ -*----------------------------------*\
  =========                 |
  \\      /  F ield         | OpenFOAM: The Open Source CFD Toolbox
   \\    /   O peration     | Website:  https://openfoam.org
    \\  /    A nd           | Version:  10
     \\/     M anipulation  |
\*---------------------------------------------------------------------------*/
FoamFile
{
    format      ascii;
    class       surfaceScalarField;
    location    "49000";
    object      phi;
}
// * * * * * * * * * * * * * * * * * * * * * * * * * * * * * * * * * * * * * //

dimensions      [0 3 -1 0 0 0 0];

internalField   nonuniform List<scalar> 
35585
(
5.82747e-06
-3.50574e-06
5.70673e-06
-3.50379e-06
5.58633e-06
-3.49765e-06
5.46647e-06
-3.48785e-06
5.34737e-06
-3.47485e-06
5.22924e-06
-3.45906e-06
5.1123e-06
-3.4408e-06
4.99676e-06
-3.42038e-06
4.88283e-06
-3.39802e-06
4.77071e-06
-3.37391e-06
4.66056e-06
-3.34822e-06
4.55256e-06
-3.32107e-06
4.44685e-06
-3.29256e-06
4.34354e-06
-3.2628e-06
4.24274e-06
-3.23184e-06
4.14453e-06
-3.19975e-06
4.04898e-06
-3.1666e-06
3.95614e-06
-3.13245e-06
3.86602e-06
-3.09733e-06
3.77866e-06
-3.06132e-06
3.69404e-06
-3.02446e-06
3.61217e-06
-2.9868e-06
3.53302e-06
-2.9484e-06
3.45655e-06
-2.90931e-06
3.38273e-06
-2.86959e-06
3.31152e-06
-2.82929e-06
3.24286e-06
-2.78847e-06
3.1767e-06
-2.74719e-06
3.11298e-06
-2.70551e-06
3.05164e-06
-2.66348e-06
2.9926e-06
-2.62115e-06
2.93581e-06
-2.57858e-06
2.88119e-06
-2.53583e-06
2.82868e-06
-2.49294e-06
2.77821e-06
-2.44996e-06
2.72971e-06
-2.40696e-06
2.68311e-06
-2.36396e-06
2.63834e-06
-2.32102e-06
2.59534e-06
-2.27819e-06
2.55404e-06
-2.2355e-06
2.51438e-06
-2.19298e-06
2.4763e-06
-2.15069e-06
2.43973e-06
-2.10866e-06
2.40461e-06
-2.06691e-06
2.37089e-06
-2.02548e-06
2.33851e-06
-1.98439e-06
2.30742e-06
-1.94368e-06
-1.90338e-06
2.27756e-06
6.09624e-06
-3.37281e-06
5.96376e-06
-3.37131e-06
5.83192e-06
-3.36581e-06
5.70093e-06
-3.35686e-06
5.57101e-06
-3.34493e-06
5.44238e-06
-3.33043e-06
5.31527e-06
-3.31369e-06
5.1899e-06
-3.29501e-06
5.06649e-06
-3.2746e-06
4.94523e-06
-3.25265e-06
4.82631e-06
-3.2293e-06
4.7099e-06
-3.20465e-06
4.59613e-06
-3.17879e-06
4.48512e-06
-3.15179e-06
4.37698e-06
-3.1237e-06
4.27178e-06
-3.09456e-06
4.16959e-06
-3.06441e-06
4.07042e-06
-3.03329e-06
3.97432e-06
-3.00123e-06
3.88128e-06
-2.96828e-06
3.79129e-06
-2.93447e-06
3.70434e-06
-2.89984e-06
3.62038e-06
-2.86444e-06
3.53938e-06
-2.82831e-06
3.46129e-06
-2.79149e-06
3.38605e-06
-2.75405e-06
3.3136e-06
-2.71602e-06
3.24387e-06
-2.67746e-06
3.17678e-06
-2.63843e-06
3.11228e-06
-2.59897e-06
3.05027e-06
-2.55914e-06
2.99069e-06
-2.519e-06
2.93346e-06
-2.47859e-06
2.8785e-06
-2.43797e-06
2.82573e-06
-2.39719e-06
2.77507e-06
-2.3563e-06
2.72645e-06
-2.31534e-06
2.67979e-06
-2.27437e-06
2.63502e-06
-2.23342e-06
2.59207e-06
-2.19254e-06
2.55086e-06
-2.15178e-06
2.51133e-06
-2.11116e-06
2.47341e-06
-2.07073e-06
2.43703e-06
-2.03053e-06
2.40213e-06
-1.99058e-06
2.36865e-06
-1.95092e-06
2.33654e-06
-1.91157e-06
-1.87257e-06
2.30573e-06
6.32304e-06
6.1785e-06
6.03491e-06
5.89249e-06
5.75147e-06
-3.20391e-06
5.61208e-06
-3.19104e-06
5.47457e-06
-3.17618e-06
5.33917e-06
-3.15961e-06
5.20609e-06
-3.14153e-06
5.07556e-06
-3.12212e-06
4.94775e-06
-3.10149e-06
4.82284e-06
-3.07974e-06
4.70097e-06
-3.05692e-06
4.58225e-06
-3.03307e-06
4.46678e-06
-3.00823e-06
4.35463e-06
-2.9824e-06
4.24585e-06
-2.95562e-06
4.14046e-06
-2.9279e-06
4.03848e-06
-2.89925e-06
3.9399e-06
-2.8697e-06
3.84469e-06
-2.83926e-06
3.75283e-06
-2.80798e-06
3.66426e-06
-2.77587e-06
3.57893e-06
-2.74298e-06
3.49678e-06
-2.70934e-06
3.41773e-06
-2.675e-06
3.34172e-06
-2.64001e-06
3.26866e-06
-2.6044e-06
3.19846e-06
-2.56823e-06
3.13105e-06
-2.53156e-06
3.06634e-06
-2.49443e-06
3.00423e-06
-2.4569e-06
2.94465e-06
-2.41901e-06
2.8875e-06
-2.38082e-06
2.83269e-06
-2.34238e-06
2.78014e-06
-2.30375e-06
2.72977e-06
-2.26497e-06
2.68148e-06
-2.22608e-06
2.63521e-06
-2.18714e-06
2.59086e-06
-2.14819e-06
2.54836e-06
-2.10928e-06
2.50764e-06
-2.07044e-06
2.46862e-06
-2.03171e-06
2.43123e-06
-1.99314e-06
2.3954e-06
-1.95475e-06
2.36107e-06
-1.91659e-06
2.32817e-06
-1.87867e-06
-1.84103e-06
2.29664e-06
5.89184e-06
-3.05152e-06
5.74145e-06
-3.04064e-06
5.59329e-06
-3.02803e-06
5.44764e-06
-3.01395e-06
5.30472e-06
-2.99861e-06
5.16476e-06
-2.98216e-06
5.02794e-06
-2.96468e-06
4.89445e-06
-2.94625e-06
4.76443e-06
-2.9269e-06
4.63799e-06
-2.90663e-06
4.51521e-06
-2.88545e-06
4.39617e-06
-2.86336e-06
4.28089e-06
-2.84035e-06
4.16939e-06
-2.8164e-06
4.06168e-06
-2.79153e-06
3.95772e-06
-2.76574e-06
3.85748e-06
-2.73902e-06
3.76091e-06
-2.71141e-06
3.66794e-06
-2.68291e-06
3.57851e-06
-2.65355e-06
3.49254e-06
-2.62337e-06
3.40994e-06
-2.5924e-06
3.33062e-06
-2.56069e-06
3.25449e-06
-2.52827e-06
3.18145e-06
-2.4952e-06
3.11141e-06
-2.46152e-06
3.04426e-06
-2.42728e-06
2.9799e-06
-2.39254e-06
2.91824e-06
-2.35734e-06
2.85917e-06
-2.32175e-06
2.8026e-06
-2.28582e-06
2.74843e-06
-2.24958e-06
2.69657e-06
-2.21311e-06
2.64693e-06
-2.17644e-06
2.59941e-06
-2.13962e-06
2.55393e-06
-2.10271e-06
2.5104e-06
-2.06575e-06
2.46874e-06
-2.02878e-06
2.42887e-06
-1.99185e-06
2.39072e-06
-1.95498e-06
2.3542e-06
-1.91823e-06
2.31925e-06
-1.88163e-06
2.28579e-06
-1.84522e-06
-1.80901e-06
2.25377e-06
5.99344e-06
-2.88735e-06
5.83163e-06
-2.87883e-06
5.67246e-06
-2.86886e-06
5.51622e-06
-2.85771e-06
5.36316e-06
-2.84555e-06
5.21353e-06
-2.83252e-06
5.06753e-06
-2.81868e-06
4.92533e-06
-2.80406e-06
4.78708e-06
-2.78865e-06
4.6529e-06
-2.77244e-06
4.52285e-06
-2.7554e-06
4.39698e-06
-2.73749e-06
4.27532e-06
-2.71869e-06
4.15786e-06
-2.69895e-06
4.04459e-06
-2.67826e-06
3.93546e-06
-2.65661e-06
3.83042e-06
-2.63398e-06
3.7294e-06
-2.61038e-06
3.63231e-06
-2.58582e-06
3.53906e-06
-2.56031e-06
3.44957e-06
-2.53388e-06
3.36372e-06
-2.50656e-06
3.28142e-06
-2.47838e-06
3.20254e-06
-2.44939e-06
3.12698e-06
-2.41964e-06
3.05463e-06
-2.38916e-06
2.98538e-06
-2.35802e-06
2.9191e-06
-2.32626e-06
2.85569e-06
-2.29394e-06
2.79504e-06
-2.2611e-06
2.73703e-06
-2.22781e-06
2.68157e-06
-2.19412e-06
2.62855e-06
-2.16008e-06
2.57786e-06
-2.12575e-06
2.52941e-06
-2.09118e-06
2.4831e-06
-2.05641e-06
2.43885e-06
-2.02149e-06
2.39655e-06
-1.98648e-06
2.35612e-06
-1.95142e-06
2.31749e-06
-1.91635e-06
2.28056e-06
-1.88131e-06
2.24526e-06
-1.84634e-06
2.21152e-06
-1.81148e-06
-1.77676e-06
2.17927e-06
6.0576e-06
5.88383e-06
-2.70506e-06
5.71316e-06
-2.6982e-06
5.54592e-06
-2.69047e-06
5.3824e-06
-2.68204e-06
5.22286e-06
-2.67298e-06
5.06751e-06
-2.66333e-06
4.91653e-06
-2.65307e-06
4.77005e-06
-2.64217e-06
4.62817e-06
-2.63056e-06
4.49095e-06
-2.61818e-06
4.35843e-06
-2.60497e-06
4.2306e-06
-2.59085e-06
4.10743e-06
-2.57578e-06
3.98888e-06
-2.55972e-06
3.87489e-06
-2.54262e-06
3.76537e-06
-2.52446e-06
3.66024e-06
-2.50525e-06
3.55939e-06
-2.48496e-06
3.4627e-06
-2.46362e-06
3.37006e-06
-2.44124e-06
3.28136e-06
-2.41785e-06
3.19645e-06
-2.39348e-06
3.11522e-06
-2.36816e-06
3.03754e-06
-2.34196e-06
2.96327e-06
-2.3149e-06
2.89229e-06
-2.28704e-06
2.82448e-06
-2.25845e-06
2.7597e-06
-2.22916e-06
2.69784e-06
-2.19924e-06
2.63877e-06
-2.16874e-06
2.58237e-06
-2.13773e-06
2.52854e-06
-2.10625e-06
2.47716e-06
-2.07437e-06
2.42812e-06
-2.04214e-06
2.38132e-06
-2.00961e-06
2.33666e-06
-1.97683e-06
2.29405e-06
-1.94386e-06
2.25337e-06
-1.91075e-06
2.21456e-06
-1.87754e-06
2.17752e-06
-1.84427e-06
2.14217e-06
-1.81099e-06
2.10843e-06
-1.77774e-06
-1.74455e-06
2.07622e-06
5.89678e-06
5.71411e-06
5.5355e-06
-2.51186e-06
5.36126e-06
-2.5078e-06
5.19166e-06
-2.50338e-06
5.02693e-06
-2.49859e-06
4.86722e-06
-2.49337e-06
4.71266e-06
-2.48761e-06
4.56331e-06
-2.48121e-06
4.41921e-06
-2.47408e-06
4.28036e-06
-2.46612e-06
4.14673e-06
-2.45722e-06
4.01826e-06
-2.44731e-06
3.89487e-06
-2.43633e-06
3.77648e-06
-2.42422e-06
3.66296e-06
-2.41095e-06
3.55421e-06
-2.39649e-06
3.45008e-06
-2.38084e-06
3.35045e-06
-2.36399e-06
3.25517e-06
-2.34596e-06
3.1641e-06
-2.32678e-06
3.07709e-06
-2.30647e-06
2.99399e-06
-2.28507e-06
2.91467e-06
-2.26263e-06
2.83896e-06
-2.23919e-06
2.76674e-06
-2.21482e-06
2.69785e-06
-2.18956e-06
2.63216e-06
-2.16347e-06
2.56953e-06
-2.13661e-06
2.50983e-06
-2.10904e-06
2.45293e-06
-2.08083e-06
2.39871e-06
-2.05203e-06
2.34704e-06
-2.0227e-06
2.29781e-06
-1.99291e-06
2.25091e-06
-1.9627e-06
2.20622e-06
-1.93215e-06
2.16365e-06
-1.90129e-06
2.12309e-06
-1.87019e-06
2.08445e-06
-1.83889e-06
2.04763e-06
-1.80745e-06
2.01255e-06
-1.77591e-06
1.97912e-06
-1.74431e-06
-1.7127e-06
1.94727e-06
5.48246e-06
5.29758e-06
-2.32292e-06
5.11814e-06
-2.32395e-06
4.94434e-06
-2.32479e-06
4.77631e-06
-2.32534e-06
4.61414e-06
-2.32543e-06
4.45785e-06
-2.32493e-06
4.30746e-06
-2.32369e-06
4.1629e-06
-2.32156e-06
4.02412e-06
-2.31844e-06
3.89101e-06
-2.3142e-06
3.76346e-06
-2.30878e-06
3.64134e-06
-2.3021e-06
3.5245e-06
-2.29412e-06
3.4128e-06
-2.28479e-06
3.30608e-06
-2.27411e-06
3.20416e-06
-2.26207e-06
3.10689e-06
-2.24869e-06
3.0141e-06
-2.23398e-06
2.92561e-06
-2.21798e-06
2.84126e-06
-2.20072e-06
2.76088e-06
-2.18225e-06
2.68431e-06
-2.16263e-06
2.6114e-06
-2.1419e-06
2.54197e-06
-2.12013e-06
2.47589e-06
-2.09738e-06
2.413e-06
-2.07372e-06
2.35316e-06
-2.0492e-06
2.29623e-06
-2.0239e-06
2.24207e-06
-1.99787e-06
2.19056e-06
-1.97119e-06
2.14157e-06
-1.94392e-06
2.09497e-06
-1.91611e-06
2.05066e-06
-1.88784e-06
2.00853e-06
-1.85916e-06
1.96846e-06
-1.83012e-06
1.93035e-06
-1.80079e-06
1.89412e-06
-1.77121e-06
1.85965e-06
-1.74144e-06
1.82687e-06
-1.71153e-06
-1.68152e-06
1.79569e-06
5.18836e-06
4.99984e-06
4.8178e-06
-2.14276e-06
4.64234e-06
-2.14988e-06
4.47348e-06
-2.15658e-06
4.31121e-06
-2.16266e-06
4.15547e-06
-2.16794e-06
4.00615e-06
-2.17225e-06
3.86315e-06
-2.17544e-06
3.72633e-06
-2.17738e-06
3.59552e-06
-2.17798e-06
3.47056e-06
-2.17714e-06
3.35127e-06
-2.17483e-06
3.23747e-06
-2.17099e-06
3.12896e-06
-2.1656e-06
3.02555e-06
-2.15867e-06
2.92705e-06
-2.15019e-06
2.83328e-06
-2.1402e-06
2.74403e-06
-2.12873e-06
2.65912e-06
-2.11581e-06
2.57837e-06
-2.1015e-06
2.50159e-06
-2.08585e-06
2.42861e-06
-2.06893e-06
2.35927e-06
-2.05079e-06
2.2934e-06
-2.03151e-06
2.23083e-06
-2.01115e-06
2.17141e-06
-1.98978e-06
2.11499e-06
-1.96748e-06
2.06143e-06
-1.94431e-06
2.01058e-06
-1.92034e-06
1.96232e-06
-1.89565e-06
1.91651e-06
-1.8703e-06
1.87304e-06
-1.84436e-06
1.83178e-06
-1.81789e-06
1.79262e-06
-1.79096e-06
1.75546e-06
-1.76362e-06
1.72019e-06
-1.73594e-06
1.68671e-06
-1.70797e-06
1.65494e-06
-1.67976e-06
-1.65136e-06
1.62478e-06
4.64644e-06
4.46497e-06
4.29083e-06
4.12394e-06
3.96418e-06
-2.00818e-06
3.8114e-06
-2.01947e-06
3.66544e-06
-2.02948e-06
3.52611e-06
-2.03805e-06
3.3932e-06
-2.04507e-06
3.26652e-06
-2.05046e-06
3.14584e-06
-2.05415e-06
3.03095e-06
-2.0561e-06
2.92163e-06
-2.05628e-06
2.81766e-06
-2.0547e-06
2.71884e-06
-2.05137e-06
2.62494e-06
-2.0463e-06
2.53575e-06
-2.03954e-06
2.45108e-06
-2.03114e-06
2.37072e-06
-2.02114e-06
2.29448e-06
-2.00961e-06
2.22216e-06
-1.99661e-06
2.15358e-06
-1.98221e-06
2.08857e-06
-1.96649e-06
2.02694e-06
-1.94952e-06
1.96854e-06
-1.93138e-06
1.9132e-06
-1.91214e-06
1.86077e-06
-1.89188e-06
1.81111e-06
-1.87068e-06
1.76407e-06
-1.84861e-06
1.71951e-06
-1.82575e-06
1.67732e-06
-1.80217e-06
1.63737e-06
-1.77794e-06
1.59953e-06
-1.75313e-06
1.56371e-06
-1.7278e-06
1.52978e-06
-1.70202e-06
1.49766e-06
-1.67585e-06
1.46724e-06
-1.64934e-06
-1.62255e-06
1.43844e-06
3.73665e-06
-1.84606e-06
3.582e-06
-1.86482e-06
3.43459e-06
-1.88207e-06
3.29419e-06
-1.89765e-06
3.16057e-06
-1.91145e-06
3.03347e-06
-1.92336e-06
2.91265e-06
-1.93333e-06
2.79787e-06
-1.94131e-06
2.68888e-06
-1.94729e-06
2.58543e-06
-1.95125e-06
2.48729e-06
-1.95323e-06
2.39423e-06
-1.95324e-06
2.30601e-06
-1.95133e-06
2.22242e-06
-1.94755e-06
2.14324e-06
-1.94196e-06
2.06827e-06
-1.93463e-06
1.99729e-06
-1.92563e-06
1.93012e-06
-1.91504e-06
1.86656e-06
-1.90294e-06
1.80645e-06
-1.88941e-06
1.7496e-06
-1.87453e-06
1.69586e-06
-1.85839e-06
1.64506e-06
-1.84108e-06
1.59704e-06
-1.82267e-06
1.55167e-06
-1.80324e-06
1.5088e-06
-1.78288e-06
1.4683e-06
-1.76167e-06
1.43005e-06
-1.73968e-06
1.39391e-06
-1.71699e-06
1.35978e-06
-1.69367e-06
1.32755e-06
-1.66979e-06
1.29711e-06
-1.64541e-06
1.26837e-06
-1.62059e-06
-1.59541e-06
1.24122e-06
3.47665e-06
-1.68332e-06
3.32175e-06
-1.70992e-06
3.17443e-06
-1.73475e-06
3.03442e-06
-1.75763e-06
2.90143e-06
-1.77846e-06
2.7752e-06
-1.79713e-06
2.65544e-06
-1.81357e-06
2.54189e-06
-1.82776e-06
2.43428e-06
-1.83968e-06
2.33235e-06
-1.84932e-06
2.23583e-06
-1.85671e-06
2.14449e-06
-1.8619e-06
2.05808e-06
-1.86492e-06
1.97637e-06
-1.86584e-06
1.89913e-06
-1.86472e-06
1.82615e-06
-1.86165e-06
1.75721e-06
-1.85669e-06
1.69212e-06
-1.84995e-06
1.63067e-06
-1.84149e-06
1.57269e-06
-1.83142e-06
1.51798e-06
-1.81983e-06
1.46639e-06
-1.8068e-06
1.41774e-06
-1.79243e-06
1.37188e-06
-1.7768e-06
1.32866e-06
-1.76002e-06
1.28793e-06
-1.74215e-06
1.24955e-06
-1.7233e-06
1.21341e-06
-1.70354e-06
1.17936e-06
-1.68295e-06
1.1473e-06
-1.66161e-06
1.11712e-06
-1.6396e-06
1.0887e-06
-1.61699e-06
1.06194e-06
-1.59384e-06
-1.57022e-06
1.03676e-06
3.1902e-06
-1.5218e-06
3.03677e-06
-1.5565e-06
2.89114e-06
-1.58912e-06
2.753e-06
-1.61949e-06
2.62205e-06
-1.6475e-06
2.49797e-06
-1.67305e-06
2.38049e-06
-1.69609e-06
2.2693e-06
-1.71658e-06
2.16413e-06
-1.7345e-06
2.0647e-06
-1.74989e-06
1.97074e-06
-1.76276e-06
1.882e-06
-1.77316e-06
1.79822e-06
-1.78114e-06
1.71917e-06
-1.78679e-06
1.6446e-06
-1.79016e-06
1.57431e-06
-1.79135e-06
1.50806e-06
-1.79045e-06
1.44565e-06
-1.78754e-06
1.38689e-06
-1.78273e-06
1.33157e-06
-1.77611e-06
1.27952e-06
-1.76778e-06
1.23055e-06
-1.75784e-06
1.18451e-06
-1.74639e-06
1.14123e-06
-1.73352e-06
1.10056e-06
-1.71934e-06
1.06235e-06
-1.70394e-06
1.02646e-06
-1.68741e-06
9.9276e-07
-1.66984e-06
9.61128e-07
-1.65132e-06
9.31442e-07
-1.63193e-06
9.03588e-07
-1.61175e-06
8.77459e-07
-1.59086e-06
8.52953e-07
-1.56933e-06
-1.54724e-06
8.29974e-07
2.88421e-06
2.73396e-06
-1.40624e-06
2.59159e-06
-1.44675e-06
2.45678e-06
-1.48468e-06
2.3292e-06
-1.51993e-06
2.20854e-06
-1.55239e-06
2.09449e-06
-1.58204e-06
1.98674e-06
-1.60883e-06
1.88501e-06
-1.63277e-06
1.78901e-06
-1.65389e-06
1.69847e-06
-1.67221e-06
1.61312e-06
-1.68781e-06
1.53271e-06
-1.70073e-06
1.457e-06
-1.71107e-06
1.38574e-06
-1.7189e-06
1.31871e-06
-1.72432e-06
1.25569e-06
-1.72743e-06
1.19647e-06
-1.72832e-06
1.14084e-06
-1.72711e-06
1.08863e-06
-1.72389e-06
1.03963e-06
-1.71878e-06
9.9367e-07
-1.71188e-06
9.50586e-07
-1.7033e-06
9.10215e-07
-1.69315e-06
8.724e-07
-1.68153e-06
8.36997e-07
-1.66854e-06
8.03864e-07
-1.65428e-06
7.72871e-07
-1.63885e-06
7.4389e-07
-1.62234e-06
7.16801e-07
-1.60484e-06
6.9149e-07
-1.58644e-06
6.67851e-07
-1.56722e-06
6.45781e-07
-1.54726e-06
-1.52665e-06
6.25183e-07
2.42101e-06
-1.2607e-06
2.28332e-06
-1.30906e-06
2.15314e-06
-1.3545e-06
2.03013e-06
-1.39691e-06
1.91397e-06
-1.43623e-06
1.80434e-06
-1.47241e-06
1.70095e-06
-1.50544e-06
1.6035e-06
-1.53532e-06
1.5117e-06
-1.56209e-06
1.42529e-06
-1.5858e-06
1.34398e-06
-1.60651e-06
1.26754e-06
-1.62429e-06
1.19572e-06
-1.63925e-06
1.12827e-06
-1.65146e-06
1.06498e-06
-1.66103e-06
1.00562e-06
-1.66807e-06
9.49978e-07
-1.67268e-06
8.97864e-07
-1.67499e-06
8.4908e-07
-1.6751e-06
8.03443e-07
-1.67314e-06
7.60777e-07
-1.66921e-06
7.20912e-07
-1.66344e-06
6.83689e-07
-1.65593e-06
6.48956e-07
-1.64679e-06
6.16563e-07
-1.63615e-06
5.86376e-07
-1.62409e-06
5.58258e-07
-1.61073e-06
5.32088e-07
-1.59617e-06
5.07743e-07
-1.58049e-06
4.85113e-07
-1.56381e-06
4.64089e-07
-1.54619e-06
4.4457e-07
-1.52774e-06
-1.50854e-06
4.26461e-07
2.10627e-06
-1.12118e-06
1.97443e-06
-1.17721e-06
1.84994e-06
-1.23e-06
1.73246e-06
-1.27944e-06
1.62168e-06
-1.32545e-06
1.51729e-06
-1.36802e-06
1.41899e-06
-1.40713e-06
1.32648e-06
-1.44281e-06
1.23949e-06
-1.4751e-06
1.15774e-06
-1.50405e-06
1.08098e-06
-1.52974e-06
1.00895e-06
-1.55227e-06
9.41414e-07
-1.57171e-06
8.78137e-07
-1.58818e-06
8.18896e-07
-1.60179e-06
7.63477e-07
-1.61265e-06
7.11675e-07
-1.62088e-06
6.63293e-07
-1.62661e-06
6.18141e-07
-1.62995e-06
5.76041e-07
-1.63104e-06
5.36818e-07
-1.62999e-06
5.00307e-07
-1.62693e-06
4.66351e-07
-1.62197e-06
4.34799e-07
-1.61524e-06
4.05508e-07
-1.60685e-06
3.78339e-07
-1.59692e-06
3.53164e-07
-1.58555e-06
3.29859e-07
-1.57286e-06
3.08305e-07
-1.55894e-06
2.88393e-07
-1.54389e-06
2.70016e-07
-1.52782e-06
2.53074e-07
-1.5108e-06
-1.49294e-06
2.37473e-07
1.79815e-06
1.67299e-06
-1.05205e-06
1.55493e-06
-1.11195e-06
1.44368e-06
-1.16818e-06
1.33891e-06
-1.22069e-06
1.24032e-06
-1.26943e-06
1.14762e-06
-1.31443e-06
1.06052e-06
-1.35571e-06
9.78739e-07
-1.39332e-06
9.0202e-07
-1.42733e-06
8.30107e-07
-1.45783e-06
7.62756e-07
-1.48491e-06
6.99731e-07
-1.50868e-06
6.40808e-07
-1.52926e-06
5.85772e-07
-1.54675e-06
5.34417e-07
-1.56129e-06
4.86544e-07
-1.57301e-06
4.41964e-07
-1.58203e-06
4.00493e-07
-1.58848e-06
3.61958e-07
-1.5925e-06
3.26191e-07
-1.59422e-06
2.93032e-07
-1.59377e-06
2.62327e-07
-1.59127e-06
2.33932e-07
-1.58685e-06
2.07706e-07
-1.58063e-06
1.83515e-07
-1.57273e-06
1.61234e-07
-1.56327e-06
1.4074e-07
-1.55237e-06
1.2192e-07
-1.54012e-06
1.04664e-07
-1.52664e-06
8.88683e-08
-1.51202e-06
7.44362e-08
-1.49637e-06
-1.47977e-06
6.12738e-08
1.38666e-06
-9.34001e-07
1.27545e-06
-1.00073e-06
1.17077e-06
-1.06351e-06
1.07235e-06
-1.12226e-06
9.79862e-07
-1.17695e-06
8.93029e-07
-1.2276e-06
8.11567e-07
-1.27425e-06
7.35202e-07
-1.31695e-06
6.63671e-07
-1.3558e-06
5.96727e-07
-1.39089e-06
5.34132e-07
-1.42232e-06
4.75662e-07
-1.45021e-06
4.21102e-07
-1.4747e-06
3.7025e-07
-1.4959e-06
3.2291e-07
-1.51395e-06
2.78895e-07
-1.52899e-06
2.38025e-07
-1.54116e-06
2.00128e-07
-1.55059e-06
1.65039e-07
-1.55742e-06
1.32598e-07
-1.56178e-06
1.02653e-07
-1.56382e-06
7.5058e-08
-1.56367e-06
4.96709e-08
-1.56146e-06
2.63588e-08
-1.55732e-06
4.99297e-09
-1.55137e-06
-1.455e-08
-1.54373e-06
-3.23867e-08
-1.53453e-06
-4.86286e-08
-1.52388e-06
-6.33822e-08
-1.51188e-06
-7.67478e-08
-1.49866e-06
-8.88217e-08
-1.4843e-06
-1.4689e-06
-9.96932e-08
1.12266e-06
-8.22985e-07
1.01822e-06
-8.96301e-07
9.20166e-07
-9.65453e-07
8.28171e-07
-1.03026e-06
7.41858e-07
-1.09064e-06
6.60905e-07
-1.14665e-06
5.85049e-07
-1.19839e-06
5.14022e-07
-1.24593e-06
4.47565e-07
-1.28935e-06
3.85437e-07
-1.32876e-06
3.27417e-07
-1.3643e-06
2.73295e-07
-1.39609e-06
2.22873e-07
-1.42427e-06
1.75963e-07
-1.44899e-06
1.32386e-07
-1.47037e-06
9.197e-08
-1.48858e-06
5.45479e-08
-1.50374e-06
1.996e-08
-1.516e-06
-1.19474e-08
-1.52551e-06
-4.13238e-08
-1.53241e-06
-6.83138e-08
-1.53683e-06
-9.30555e-08
-1.53893e-06
-1.15683e-07
-1.53883e-06
-1.36324e-07
-1.53667e-06
-1.55104e-07
-1.53259e-06
-1.72139e-07
-1.52669e-06
-1.87544e-07
-1.51912e-06
-2.01427e-07
-1.50999e-06
-2.1389e-07
-1.49942e-06
-2.25033e-07
-1.48751e-06
-2.34948e-07
-1.47438e-06
-1.46013e-06
-2.43724e-07
8.87078e-07
-7.18458e-07
7.88569e-07
-7.97791e-07
6.96073e-07
-8.72957e-07
6.09503e-07
-9.43694e-07
5.28659e-07
-1.00979e-06
4.53237e-07
-1.07122e-06
3.82871e-07
-1.12802e-06
3.17164e-07
-1.18022e-06
2.55725e-07
-1.22791e-06
1.98265e-07
-1.2713e-06
1.44592e-07
-1.31063e-06
9.45395e-08
-1.34604e-06
4.79442e-08
-1.37768e-06
4.64758e-09
-1.40569e-06
-3.55033e-08
-1.43022e-06
-7.26605e-08
-1.45142e-06
-1.06971e-07
-1.46943e-06
-1.38579e-07
-1.48439e-06
-1.67627e-07
-1.49646e-06
-1.94253e-07
-1.50578e-06
-2.1859e-07
-1.5125e-06
-2.4077e-07
-1.51675e-06
-2.60921e-07
-1.51868e-06
-2.79165e-07
-1.51843e-06
-2.95621e-07
-1.51613e-06
-3.10403e-07
-1.51191e-06
-3.2362e-07
-1.50591e-06
-3.3538e-07
-1.49823e-06
-3.45782e-07
-1.48902e-06
-3.54922e-07
-1.47837e-06
-3.62891e-07
-1.46641e-06
-1.45324e-06
-3.69778e-07
6.80745e-07
-6.20445e-07
5.87893e-07
-7.0494e-07
5.0031e-07
-7.85375e-07
4.18116e-07
-8.61499e-07
3.41388e-07
-9.33065e-07
2.70039e-07
-9.99873e-07
2.03817e-07
-1.0618e-06
1.42403e-07
-1.11881e-06
8.54201e-08
-1.17092e-06
3.24639e-08
-1.21834e-06
-1.68481e-08
-1.26131e-06
-6.28229e-08
-1.30006e-06
-1.0564e-07
-1.33486e-06
-1.45413e-07
-1.36592e-06
-1.82259e-07
-1.39338e-06
-2.16299e-07
-1.41738e-06
-2.47655e-07
-1.43807e-06
-2.76453e-07
-1.45559e-06
-3.02817e-07
-1.4701e-06
-3.26872e-07
-1.48173e-06
-3.48741e-07
-1.49063e-06
-3.68547e-07
-1.49694e-06
-3.86407e-07
-1.50082e-06
-4.02439e-07
-1.5024e-06
-4.16757e-07
-1.50181e-06
-4.2947e-07
-1.4992e-06
-4.40683e-07
-1.49469e-06
-4.50501e-07
-1.48842e-06
-4.5902e-07
-1.4805e-06
-4.66334e-07
-1.47106e-06
-4.72534e-07
-1.46021e-06
-1.44807e-06
-4.77703e-07
5.0093e-07
-5.29585e-07
4.14431e-07
-6.18441e-07
3.32451e-07
-7.03394e-07
2.55134e-07
-7.84183e-07
1.82592e-07
-8.60523e-07
1.14868e-07
-9.32148e-07
5.19235e-08
-9.98859e-07
-6.34144e-09
-1.06054e-06
-6.00933e-08
-1.11717e-06
-1.09632e-07
-1.1688e-06
-1.55365e-07
-1.21558e-06
-1.977e-07
-1.25773e-06
-2.36981e-07
-1.29558e-06
-2.73431e-07
-1.32947e-06
-3.07166e-07
-1.35964e-06
-3.38279e-07
-1.38627e-06
-3.66872e-07
-1.40948e-06
-3.9305e-07
-1.42941e-06
-4.16923e-07
-1.44622e-06
-4.38599e-07
-1.46005e-06
-4.58194e-07
-1.47103e-06
-4.75818e-07
-1.47932e-06
-4.91583e-07
-1.48506e-06
-5.05598e-07
-1.48838e-06
-5.17971e-07
-1.48944e-06
-5.28809e-07
-1.48836e-06
-5.38211e-07
-1.48529e-06
-5.46277e-07
-1.48035e-06
-5.53103e-07
-1.47367e-06
-5.5878e-07
-1.46538e-06
-5.63394e-07
-1.4556e-06
-1.44443e-06
-5.6703e-07
3.49941e-07
-4.46282e-07
2.70128e-07
-5.38628e-07
1.94043e-07
-6.27308e-07
1.21922e-07
-7.12063e-07
5.39611e-08
-7.92562e-07
-9.72392e-09
-8.68463e-07
-6.91053e-08
-9.39478e-07
-1.24233e-07
-1.00541e-06
-1.75216e-07
-1.06619e-06
-2.22217e-07
-1.1218e-06
-2.65448e-07
-1.17235e-06
-3.05185e-07
-1.21799e-06
-3.41785e-07
-1.25898e-06
-3.7559e-07
-1.29567e-06
-4.06803e-07
-1.32843e-06
-4.35527e-07
-1.35754e-06
-4.6185e-07
-1.38315e-06
-4.85865e-07
-1.4054e-06
-5.07674e-07
-1.42442e-06
-5.27378e-07
-1.44034e-06
-5.4508e-07
-1.45333e-06
-5.60887e-07
-1.46351e-06
-5.74904e-07
-1.47104e-06
-5.87235e-07
-1.47605e-06
-5.97986e-07
-1.47869e-06
-6.07255e-07
-1.47909e-06
-6.15142e-07
-1.4774e-06
-6.21745e-07
-1.47375e-06
-6.27154e-07
-1.46826e-06
-6.3146e-07
-1.46108e-06
-6.34749e-07
-1.45231e-06
-1.44208e-06
-6.37102e-07
2.29967e-07
-3.70864e-07
1.5709e-07
-4.65753e-07
8.70128e-08
-5.57231e-07
2.00556e-08
-6.45106e-07
-4.34722e-08
-7.29034e-07
-1.03328e-07
-8.08608e-07
-1.59364e-07
-8.83441e-07
-2.1154e-07
-9.53238e-07
-2.59905e-07
-1.01782e-06
-3.04581e-07
-1.07713e-06
-3.45739e-07
-1.13119e-06
-3.83583e-07
-1.18015e-06
-4.18348e-07
-1.22421e-06
-4.50312e-07
-1.2637e-06
-4.79727e-07
-1.29902e-06
-5.06731e-07
-1.33054e-06
-5.3141e-07
-1.35847e-06
-5.53851e-07
-1.38296e-06
-5.74149e-07
-1.40412e-06
-5.924e-07
-1.42209e-06
-6.08706e-07
-1.43702e-06
-6.23165e-07
-1.44905e-06
-6.35881e-07
-1.45832e-06
-6.46954e-07
-1.46498e-06
-6.56486e-07
-1.46916e-06
-6.64575e-07
-1.471e-06
-6.71319e-07
-1.47066e-06
-6.76811e-07
-1.46826e-06
-6.81143e-07
-1.46393e-06
-6.84404e-07
-1.45782e-06
-6.86679e-07
-1.45003e-06
-1.44071e-06
-6.88048e-07
1.39603e-07
-3.03183e-07
7.37811e-08
-3.9993e-07
9.84275e-09
-4.93292e-07
-5.18979e-08
-5.83365e-07
-1.11043e-07
-6.69889e-07
-1.67225e-07
-7.52427e-07
-2.20166e-07
-8.30499e-07
-2.69714e-07
-9.03691e-07
-3.15826e-07
-9.71711e-07
-3.58555e-07
-1.0344e-06
-3.9802e-07
-1.09173e-06
-4.34387e-07
-1.14378e-06
-4.67846e-07
-1.19076e-06
-4.98599e-07
-1.23295e-06
-5.26857e-07
-1.27076e-06
-5.52761e-07
-1.30463e-06
-5.76388e-07
-1.33485e-06
-5.97826e-07
-1.36152e-06
-6.17161e-07
-1.38478e-06
-6.34487e-07
-1.40477e-06
-6.499e-07
-1.42161e-06
-6.63497e-07
-1.43546e-06
-6.75376e-07
-1.44644e-06
-6.85638e-07
-1.45472e-06
-6.94379e-07
-1.46042e-06
-7.01697e-07
-1.46369e-06
-7.07689e-07
-1.46467e-06
-7.12447e-07
-1.4635e-06
-7.16062e-07
-1.46032e-06
-7.18622e-07
-1.45526e-06
-7.20212e-07
-1.44844e-06
-1.44001e-06
-7.20912e-07
7.69298e-08
-2.42212e-07
1.77232e-08
-3.40724e-07
-4.01537e-08
-4.35416e-07
-9.66856e-08
-5.26833e-07
-1.51509e-07
-6.15066e-07
-2.04166e-07
-6.99769e-07
-2.5425e-07
-7.80416e-07
-3.01472e-07
-8.56469e-07
-3.45681e-07
-9.27501e-07
-3.86845e-07
-9.93236e-07
-4.25021e-07
-1.05355e-06
-4.60327e-07
-1.10847e-06
-4.92915e-07
-1.15817e-06
-5.22943e-07
-1.20292e-06
-5.50564e-07
-1.24314e-06
-5.75882e-07
-1.27932e-06
-5.98969e-07
-1.31176e-06
-6.19902e-07
-1.34059e-06
-6.38764e-07
-1.36592e-06
-6.55643e-07
-1.38789e-06
-6.70628e-07
-1.40663e-06
-6.83813e-07
-1.42227e-06
-6.95294e-07
-1.43496e-06
-7.05165e-07
-1.44485e-06
-7.13524e-07
-1.45206e-06
-7.20465e-07
-1.45675e-06
-7.26082e-07
-1.45905e-06
-7.3047e-07
-1.45911e-06
-7.33717e-07
-1.45707e-06
-7.35912e-07
-1.45306e-06
-7.37139e-07
-1.44722e-06
-1.43967e-06
-7.37481e-07
4.0135e-08
-1.8666e-07
-1.35893e-08
-2.86999e-07
-6.59758e-08
-3.83029e-07
-1.17477e-07
-4.75332e-07
-1.68056e-07
-5.64487e-07
-2.17305e-07
-6.5052e-07
-2.6473e-07
-7.32991e-07
-3.09906e-07
-8.11294e-07
-3.52548e-07
-8.8486e-07
-3.92516e-07
-9.53267e-07
-4.29792e-07
-1.01627e-06
-4.64439e-07
-1.07383e-06
-4.96564e-07
-1.12604e-06
-5.26286e-07
-1.1732e-06
-5.53698e-07
-1.21573e-06
-5.78863e-07
-1.25415e-06
-6.01843e-07
-1.28878e-06
-6.22706e-07
-1.31972e-06
-6.41524e-07
-1.3471e-06
-6.58378e-07
-1.37104e-06
-6.73351e-07
-1.39165e-06
-6.86531e-07
-1.40909e-06
-6.98009e-07
-1.42349e-06
-7.07876e-07
-1.43498e-06
-7.16225e-07
-1.44371e-06
-7.23151e-07
-1.44982e-06
-7.28746e-07
-1.45345e-06
-7.33101e-07
-1.45476e-06
-7.36306e-07
-1.45386e-06
-7.3845e-07
-1.45092e-06
-7.39617e-07
-1.44605e-06
-1.4394e-06
-7.39888e-07
2.7081e-08
-1.35703e-07
-2.23632e-08
-2.37555e-07
-7.03784e-08
-3.35014e-07
-1.17451e-07
-4.28259e-07
-1.64016e-07
-5.17922e-07
-2.09982e-07
-6.04554e-07
-2.54897e-07
-6.88075e-07
-2.98245e-07
-7.67946e-07
-3.39605e-07
-8.435e-07
-3.7871e-07
-9.14162e-07
-4.15442e-07
-9.79542e-07
-4.49793e-07
-1.03948e-06
-4.81822e-07
-1.09401e-06
-5.11603e-07
-1.14342e-06
-5.39173e-07
-1.18816e-06
-5.6456e-07
-1.22876e-06
-5.87809e-07
-1.26553e-06
-6.08976e-07
-1.29856e-06
-6.28124e-07
-1.32795e-06
-6.45323e-07
-1.35384e-06
-6.60647e-07
-1.37633e-06
-6.74179e-07
-1.39556e-06
-6.86002e-07
-1.41166e-06
-6.96203e-07
-1.42478e-06
-7.04874e-07
-1.43504e-06
-7.12102e-07
-1.44259e-06
-7.17982e-07
-1.44758e-06
-7.22602e-07
-1.45014e-06
-7.26052e-07
-1.45041e-06
-7.2842e-07
-1.44855e-06
-7.29791e-07
-1.44468e-06
-1.43894e-06
-7.30247e-07
3.48201e-08
-1.10795e-08
-1.91656e-07
-5.58318e-08
-2.90261e-07
-9.95133e-08
-3.84578e-07
-1.42616e-07
-4.7482e-07
-1.85521e-07
-5.61649e-07
-2.28057e-07
-6.45539e-07
-2.69733e-07
-7.2627e-07
-3.10027e-07
-8.03206e-07
-3.48538e-07
-8.7565e-07
-3.85028e-07
-9.43052e-07
-4.19399e-07
-1.00511e-06
-4.51646e-07
-1.06177e-06
-4.81796e-07
-1.11327e-06
-5.09838e-07
-1.16011e-06
-5.35764e-07
-1.20284e-06
-5.59604e-07
-1.24169e-06
-5.81398e-07
-1.27676e-06
-6.01197e-07
-1.30816e-06
-6.19056e-07
-1.33598e-06
-6.35044e-07
-1.36034e-06
-6.49231e-07
-1.38137e-06
-6.61697e-07
-1.3992e-06
-6.72523e-07
-1.41395e-06
-6.81793e-07
-1.42577e-06
-6.89596e-07
-1.43479e-06
-6.9602e-07
-1.44115e-06
-7.01155e-07
-1.445e-06
-7.05089e-07
-1.44648e-06
-7.07911e-07
-1.44573e-06
-7.09705e-07
-1.44289e-06
-1.43809e-06
-7.10557e-07
1.72531e-08
-1.48849e-07
-2.48935e-08
-2.48115e-07
-6.62071e-08
-3.43264e-07
-1.06767e-07
-4.3426e-07
-1.47067e-07
-5.21349e-07
-1.8741e-07
-6.05196e-07
-2.27529e-07
-6.86151e-07
-2.66899e-07
-7.63836e-07
-3.0501e-07
-8.37539e-07
-3.41492e-07
-9.0657e-07
-3.76139e-07
-9.70458e-07
-4.08865e-07
-1.02904e-06
-4.39642e-07
-1.08249e-06
-4.68417e-07
-1.13134e-06
-4.9515e-07
-1.1761e-06
-5.19853e-07
-1.21699e-06
-5.42548e-07
-1.25407e-06
-5.63268e-07
-1.28744e-06
-5.82059e-07
-1.31719e-06
-5.98976e-07
-1.34342e-06
-6.1408e-07
-1.36627e-06
-6.27442e-07
-1.38584e-06
-6.39136e-07
-1.40226e-06
-6.49243e-07
-1.41566e-06
-6.57848e-07
-1.42618e-06
-6.65036e-07
-1.43396e-06
-6.70895e-07
-1.43914e-06
-6.75512e-07
-1.44186e-06
-6.78976e-07
-1.44226e-06
-6.81375e-07
-1.44049e-06
-1.43667e-06
-6.8279e-07
5.94364e-08
-1.08775e-07
1.95336e-08
-2.08212e-07
-1.99985e-08
-3.03732e-07
-5.89646e-08
-3.95294e-07
-9.74499e-08
-4.82864e-07
-1.35934e-07
-5.66711e-07
-1.74622e-07
-6.47464e-07
-2.13151e-07
-7.25307e-07
-2.50977e-07
-7.99713e-07
-2.87614e-07
-8.69933e-07
-3.22728e-07
-9.35344e-07
-3.56138e-07
-9.95632e-07
-3.87749e-07
-1.05088e-06
-4.17468e-07
-1.10162e-06
-4.45228e-07
-1.14834e-06
-4.71016e-07
-1.1912e-06
-4.94837e-07
-1.23025e-06
-5.16707e-07
-1.26557e-06
-5.36656e-07
-1.29724e-06
-5.54723e-07
-1.32536e-06
-5.70961e-07
-1.35003e-06
-5.8543e-07
-1.37137e-06
-5.98198e-07
-1.38949e-06
-6.09339e-07
-1.40452e-06
-6.18934e-07
-1.41659e-06
-6.27065e-07
-1.42583e-06
-6.33818e-07
-1.43239e-06
-6.39281e-07
-1.4364e-06
-6.43541e-07
-1.438e-06
-6.46686e-07
-1.43734e-06
-1.43456e-06
-6.48803e-07
1.12373e-07
-7.11743e-08
7.44535e-08
-1.70292e-07
3.64372e-08
-2.65716e-07
-1.45572e-09
-3.574e-07
-3.90099e-08
-4.45309e-07
-7.63105e-08
-5.29411e-07
-1.13784e-07
-6.0999e-07
-1.51523e-07
-6.87568e-07
-1.89105e-07
-7.62131e-07
-2.2598e-07
-8.33058e-07
-2.61688e-07
-8.99636e-07
-2.95928e-07
-9.61391e-07
-3.28529e-07
-1.01828e-06
-3.59354e-07
-1.07079e-06
-3.8831e-07
-1.11939e-06
-4.15362e-07
-1.16415e-06
-4.40491e-07
-1.20512e-06
-4.63694e-07
-1.24236e-06
-4.84983e-07
-1.27595e-06
-5.04382e-07
-1.30596e-06
-5.21933e-07
-1.33248e-06
-5.37682e-07
-1.35562e-06
-5.51691e-07
-1.37548e-06
-5.64027e-07
-1.39218e-06
-5.74764e-07
-1.40585e-06
-5.83983e-07
-1.41661e-06
-5.91767e-07
-1.42461e-06
-5.98203e-07
-1.42996e-06
-6.03378e-07
-1.43283e-06
-6.07381e-07
-1.43334e-06
-1.43164e-06
-6.103e-07
1.73096e-07
1.37003e-07
1.00345e-07
6.33639e-08
-3.20419e-07
2.62983e-08
-4.08244e-07
-1.06173e-08
-4.92495e-07
-4.74501e-08
-5.73157e-07
-8.45421e-08
-6.50476e-07
-1.21874e-07
-7.24799e-07
-1.58984e-07
-7.95948e-07
-1.95333e-07
-8.63287e-07
-2.30492e-07
-9.26232e-07
-2.64182e-07
-9.84588e-07
-2.9622e-07
-1.03876e-06
-3.26494e-07
-1.08912e-06
-3.54939e-07
-1.1357e-06
-3.81514e-07
-1.17854e-06
-4.06192e-07
-1.21768e-06
-4.28965e-07
-1.25317e-06
-4.49842e-07
-1.28508e-06
-4.68847e-07
-1.31348e-06
-4.86015e-07
-1.33845e-06
-5.01398e-07
-1.3601e-06
-5.15055e-07
-1.37853e-06
-5.27056e-07
-1.39385e-06
-5.37474e-07
-1.4062e-06
-5.46393e-07
-1.41569e-06