/*--------------------------------*- C++ -*----------------------------------*\
  =========                 |
  \\      /  F ield         | OpenFOAM: The Open Source CFD Toolbox
   \\    /   O peration     | Website:  https://openfoam.org
    \\  /    A nd           | Version:  10
     \\/     M anipulation  |
\*---------------------------------------------------------------------------*/
FoamFile
{
    format      ascii;
    class       volScalarField;
    location    "77000";
    object      Co;
}
// * * * * * * * * * * * * * * * * * * * * * * * * * * * * * * * * * * * * * //

dimensions      [0 0 0 0 0 0 0];

internalField   nonuniform List<scalar> 
17969
(
81.1837
63.6412
53.8163
50.5586
56.2978
103.354
173.76
286.837
418.252
557.844
694.177
817.627
922.05
1004.66
1065.76
1107.65
1133.49
1146.72
1150.48
1147.33
1139.31
1127.91
1114.22
1099
1082.74
1065.79
1048.35
1030.57
1012.53
994.3
975.919
957.417
938.818
920.138
901.393
882.594
863.752
844.874
825.968
807.043
788.104
769.157
750.209
731.266
712.333
693.416
674.519
655.649
636.809
618.004
599.24
580.519
561.847
543.226
524.661
506.155
487.71
469.33
451.018
432.775
414.604
396.508
378.489
360.547
342.686
324.907
307.212
289.603
272.081
254.65
237.31
220.065
202.919
185.874
173.611
166.188
165.745
174.517
182.873
190.853
198.5
205.842
212.895
219.673
226.188
232.451
238.471
244.257
249.821
255.174
260.322
265.263
269.999
274.54
278.895
283.072
287.082
290.931
294.629
298.185
82.5651
65.9324
61.8413
52.8268
49.882
54.9421
67.1278
111.806
174.716
274.677
392.171
520.186
649.949
772.826
882.022
973.432
1045.37
1098.39
1134.54
1156.49
1167.09
1168.99
1164.36
1155.01
1142.31
1127.29
1110.67
1092.97
1074.54
1055.62
1036.36
1016.86
997.187
977.389
957.5
937.544
917.541
897.507
877.452
857.389
837.325
817.267
797.224
777.199
757.2
737.231
717.297
697.403
677.552
657.749
637.999
618.304
598.667
579.093
559.584
540.144
520.774
501.476
482.254
463.11
444.044
425.059
406.156
387.336
368.602
349.953
331.391
312.917
294.533
276.24
258.039
239.933
221.924
204.015
191.344
183.952
180.491
189.448
197.971
206.105
213.893
221.36
228.524
235.398
241.996
248.326
254.399
260.221
265.798
271.141
276.261
281.164
285.849
290.324
294.598
298.682
302.585
306.317
309.888
313.306
82.7452
62.9302
65.9194
61.8429
53.7686
50.4002
54.265
60.8444
73.1676
112.901
165.877
252.159
355.152
470.334
591.239
710.6
821.685
919.344
1000.57
1064.25
1111.07
1142.84
1161.85
1170.56
1171.17
1165.6
1155.45
1141.97
1126.11
1108.6
1089.94
1070.5
1050.54
1030.21
1009.64
988.892
968.031
947.093
926.106
905.092
884.069
863.049
842.043
821.06
800.108
779.193
758.321
737.497
716.725
696.011
675.357
654.767
634.244
613.792
593.414
573.11
552.885
532.74
512.676
492.696
472.801
452.991
433.269
413.633
394.086
374.628
355.258
335.978
316.788
297.688
278.679
259.762
240.939
222.212
209.174
201.85
195.86
204.134
212.813
221.085
228.996
236.57
243.823
250.769
257.422
263.792
269.888
275.716
281.282
286.59
291.647
296.461
301.04
305.392
309.528
313.462
317.203
320.763
324.15
327.375
83.1903
59.102
65.142
65.7563
63.1233
57.7075
52.1083
51.636
56.0946
63.106
73.2871
107.877
153.232
223.721
312.644
414.418
524.695
637.665
747.283
848.107
936.081
1008.93
1065.93
1107.79
1136.15
1152.96
1160.32
1160.11
1154.01
1143.44
1129.55
1113.23
1095.18
1075.91
1055.81
1035.12
1014.05
992.705
971.183
949.544
927.831
906.078
884.308
862.541
840.791
819.07
797.387
775.751
754.168
732.644
711.183
689.791
668.47
647.225
626.058
604.971
583.968
563.049
542.217
521.474
500.819
480.254
459.779
439.395
419.101
398.897
378.783
358.759
338.823
318.975
299.214
279.542
259.958
240.464
227.102
219.885
213.018
218.59
227.41
235.803
243.815
251.471
258.787
265.776
272.453
278.827
284.907
290.701
296.214
301.449
306.409
311.098
315.521
319.69
323.624
327.347
330.869
334.201
337.35
340.325
343.137
345.796
348.315
350.709
84.1247
56.5878
63.5531
66.2931
66.7702
65.6095
62.6162
57.1546
50.9757
50.0947
54.7788
61.805
71.5828
98.5712
137.327
193.51
269.692
358.381
457.035
561.465
666.5
767.055
858.695
938.183
1003.78
1055.02
1092.65
1118.09
1133.06
1139.32
1138.5
1132.05
1121.26
1107.17
1090.63
1072.29
1052.68
1032.17
1011.03
989.47
967.613
945.559
923.376
901.114
878.811
856.494
834.183
811.896
789.646
767.443
745.296
723.213
701.198
679.257
657.394
635.613
613.917
592.308
570.788
549.358
528.02
506.774
485.62
464.558
443.588
422.708
401.918
381.215
360.599
340.067
319.618
299.25
278.962
258.755
245.12
238.053
231.313
232.82
241.763
250.253
258.34
266.048
273.395
280.394
287.056
293.392
299.41
305.119
310.525
315.632
320.443
324.96
329.187
333.13
336.808
340.261
343.51
346.559
349.413
352.078
354.562
356.879
359.041
361.065
85.2769
54.821
61.9869
65.4855
67.2246
67.9547
67.7174
66.2781
63.1708
57.7354
50.1391
47.8537
52.4902
59.2371
68.3747
88.2515
121.65
165.46
230.508
307.03
393.784
488.044
585.909
682.9
774.739
857.783
929.43
988.357
1034.33
1068.08
1090.86
1104.15
1109.43
1108.09
1101.43
1090.57
1076.46
1059.88
1041.48
1021.74
1001.05
979.687
957.85
935.685
913.296
890.761
868.134
845.458
822.762
800.073
777.407
754.782
732.207
709.694
687.25
664.88
642.59
620.385
598.266
576.237
554.299
532.453
510.7
489.038
467.467
445.986
424.593
403.285
382.059
360.913
339.843
318.845
297.918
277.059
263.206
256.339
249.767
246.813
255.855
264.417
272.548
280.275
287.616
294.581
301.183
307.432
313.335
318.9
324.135
329.047
333.642
337.927
341.909
345.592
348.988
352.137
355.067
357.78
360.275
362.557
364.634
366.52
368.233
369.793
86.5661
53.4979
60.6693
64.4503
66.6325
68.0742
68.9366
69.1813
68.6476
67.0364
63.8953
58.6464
50.6177
46.624
49.999
56.3145
64.758
78.2876
107.456
142.799
196.562
262.197
337.468
420.884
509.765
600.578
689.46
772.797
847.613
911.847
964.512
1005.57
1035.7
1056.01
1067.74
1072.14
1070.39
1063.62
1052.81
1038.82
1022.37
1004.06
984.381
963.689
942.269
920.329
898.022
875.46
852.727
829.885
806.981
784.049
761.119
738.21
715.34
692.522
669.766
647.082
624.474
601.949
579.508
557.155
534.891
512.716
490.629
468.629
446.713
424.879
403.122
381.438
359.823
338.27
316.775
295.334
281.326
274.715
268.361
262.705
269.655
278.26
286.401
294.108
301.396
308.278
314.764
320.865
326.587
331.941
336.935
341.584
345.899
349.896
353.585
356.975
360.071
362.893
365.457
367.764
369.813
371.611
373.17
374.509
375.654
376.633
377.478
87.9333
52.3748
59.4742
63.3014
65.5606
67.1785
68.3793
69.2056
69.6263
69.5469
68.789
67.0695
63.9917
59.0516
51.6519
46.4555
48.0553
53.8317
61.5403
71.3148
95.0135
125.717
167.82
224.212
289.087
361.875
440.973
523.823
607.267
688.006
763.022
829.904
887.059
933.786
970.187
996.909
1014.89
1025.17
1028.76
1026.67
1019.85
1009.17
995.39
979.181
961.101
941.604
921.05
899.716
877.814
855.504
832.905
810.109
787.184
764.181
741.14
718.092
695.061
672.065
649.118
626.231
603.413
580.668
558.002
535.416
512.912
490.488
468.142
445.872
423.672
401.538
379.462
357.439
335.46
313.517
299.429
293.14
287.062
281.186
283.114
291.724
299.832
307.466
314.645
321.382
327.687
333.569
339.037
344.106
348.795
353.125
357.118
360.794
364.165
367.23
369.982
372.409
374.51
376.291
377.76
378.932
379.829
380.481
380.922
381.192
381.331
381.381
381.381
89.3883
51.4417
58.4489
62.1853
64.314
65.8275
66.9929
67.8899
68.5351
68.9104
68.9634
68.5945
67.6383
65.8476
62.8777
58.2941
51.5647
46.3486
47.2394
52.3548
59.222
67.9636
84.6172
111.666
144.153
193.034
248.961
311.997
381.33
455.321
531.599
607.391
679.931
746.746
805.91
856.233
897.277
929.246
952.732
968.515
977.401
980.22
977.815
970.987
960.485
946.991
931.11
913.356
894.158
873.861
852.737
831.002
808.819
786.315
763.585
740.704
717.728
694.7
671.654
648.615
625.602
602.631
579.71
556.85
534.056
511.328
488.666
466.067
443.53
421.048
398.614
376.219
353.852
331.504
317.424
311.537
305.809
300.224
297.111
304.704
312.709
320.203
327.208
333.733
339.785
345.375
350.524
355.257
359.604
363.594
367.248
370.578
373.581
376.232
378.498
380.355
381.814
382.89
383.604
383.982
384.06
383.879
383.485
382.929
382.261
381.531
380.785
380.062
90.9461
50.7445
57.684
61.2555
63.1457
64.4115
65.3545
66.076
66.6139
66.9772
67.1569
67.1253
66.8294
66.1766
65.0212
63.1547
60.2852
56.0394
49.9494
46.2303
47.8655
52.2613
58.2538
65.9847
76.4823
100.579
128.371
168.02
216.639
271.17
331.411
396.415
464.593
533.819
601.706
665.976
724.671
776.291
820.013
855.649
883.444
903.894
917.584
925.133
927.211
924.497
917.663
907.36
894.192
878.701
861.359
842.564
822.642
801.859
780.426
758.509
736.237
713.71
691.007
668.186
645.294
622.365
599.423
576.495
553.599
530.738
507.914
485.131
462.393
439.694
417.027
394.382
371.746
349.109
335.14
329.748
324.46
319.253
314.113
317.062
324.872
332.136
338.875
345.101
350.83
356.088
360.9
365.294
369.296
372.917
376.159
379.011
381.452
383.45
384.975
386.032
386.641
386.826
386.617
386.051
385.176
384.046
382.718
381.256
379.718
378.161
376.635
375.183
373.841
372.636
92.6254
50.3596
57.2968
60.6787
62.2954
63.264
63.9137
64.3602
64.6526
64.812
64.8443
64.7457
64.5012
64.0832
63.4429
62.4985
61.1247
59.145
56.319
52.3266
48.2907
47.5799
50.0626
53.7558
58.8802
65.6077
74.0283
92.2255
116.964
148.123
190.872
238.391
290.635
347.212
407.13
468.908
530.702
590.506
646.501
697.18
741.495
778.955
809.522
833.431
851.028
862.704
868.919
870.201
867.116
860.24
850.135
837.328
822.298
805.465
787.191
767.78
747.482
726.501
705
683.11
660.931
638.543
615.994
593.371
570.687
547.958
525.207
502.452
479.71
456.979
434.251
411.516
388.765
365.986
352.255
347.465
342.726
338.008
333.288
330.67
336.175
343.111
349.472
355.302
360.638
365.506
369.924
373.901
377.433
380.504
383.099
385.205
386.81
387.904
388.481
388.559
388.162
387.316
386.059
384.442
382.525
380.375
378.064
375.663
373.241
370.858
368.568
366.413
364.426
362.633
361.049
359.683
358.541
357.623
94.4348
50.3418
57.3632
60.5524
61.9042
62.5851
62.9433
63.1034
63.1201
63.0195
62.8137
62.507
62.0976
61.5775
60.9315
60.1332
59.1383
57.8755
56.2389
54.0812
51.3249
49.9897
50.5678
51.7474
53.7374
56.7654
61.0532
66.7853
74.0901
86.2267
108.319
133.251
170.186
212.038
257.69
306.885
359.083
413.317
468.264
522.367
574.025
621.83
664.72
702.095
733.742
759.649
779.889
794.652
804.231
809.003
809.402
805.895
798.962
789.075
776.681
762.19
745.969
728.342
709.583
689.925
669.563
648.659
627.306
605.618
583.657
561.529
539.262
516.906
494.494
472.017
449.479
426.884
404.23
381.51
368.176
364.11
360.039
355.931
351.758
347.5
347.128
352.805
358.76
364.125
368.935
373.213
376.975
380.225
382.961
385.184
386.884
388.048
388.666
388.734
388.253
387.239
385.721
383.739
381.348
378.61
375.603
372.407
369.108
365.785
362.512
359.353
356.359
353.569
351.012
348.708
346.665
344.888
343.376
342.123
96.3754
50.7208
57.9295
60.9419
62.0637
62.5001
62.6109
62.5248
62.2983
61.959
61.5208
60.99
60.3694
59.6575
58.8496
57.9371
57.2746
56.9043
56.53
56.1642
55.8364
55.5887
55.4805
55.5933
56.0368
56.9585
58.5398
60.988
64.518
69.3235
75.5507
83.2877
101.96
124.192
153.335
190.529
230.8
273.896
319.384
366.616
414.709
462.525
508.8
552.35
592.243
627.882
658.925
685.185
706.583
723.157
735.048
742.482
745.757
745.22
741.248
734.232
724.558
712.597
698.692
683.157
666.266
648.252
629.344
609.743
589.54
568.897
547.887
526.571
504.981
483.177
461.223
439.127
416.909
394.568
381.858
378.668
375.406
372.038
368.533
364.864
361.015
361.444
365.663
370.453
374.604
378.138
381.07
383.41
385.164
386.341
386.945
386.975
386.437
385.333
383.666
381.45
378.723
375.54
371.971
368.096
364.009
359.803
355.574
351.407
347.377
343.545
339.959
336.65
333.64
330.94
328.552
326.474
324.697
323.21
98.4395
51.4886
58.9788
61.8449
62.7887
63.0426
62.9714
62.9817
63.1528
63.269
63.3399
63.3734
63.3741
63.3439
63.2834
63.1925
63.0709
62.9185
62.7364
62.5281
62.3009
62.0698
61.8594
61.7043
61.6514
61.765
62.1315
62.8691
64.1294
66.0937
68.9597
72.9208
78.1373
84.7148
97.2879
117.078
139.218
172.328
208.019
245.969
285.8
326.998
368.864
410.545
451.118
489.706
525.611
558.31
587.41
612.632
633.81
650.881
663.875
672.905
678.155
679.863
678.304
673.781
666.605
657.086
645.524
632.199
617.376
601.28
584.079
565.964
547.093
527.674
507.79
487.495
466.872
445.953
424.774
403.328
391.588
389.501
387.256
384.808
382.127
379.185
375.961
372.438
372.013
372.888
376.26
378.932
380.924
382.252
382.93
382.972
382.388
381.191
379.395
377.017
374.075
370.597
366.633
362.251
357.535
352.584
347.503
342.398
337.369
332.503
327.87
323.525
319.506
315.836
312.526
309.579
306.988
304.741
302.826
301.224
100.622
52.6345
60.4538
63.313
64.6097
65.4833
66.0691
66.5042
66.85
67.1371
67.3824
67.5953
67.7811
67.9425
68.0805
68.1947
68.284
68.3466
68.3807
68.3848
68.3583
68.3026
68.2228
68.1298
68.0434
67.9917
68.0122
68.1547
68.4867
69.1006
70.1182
71.6909
73.992
77.2015
81.4833
86.9631
93.9301
111.373
130.756
156.654
188.201
221.603
256.492
292.402
328.749
364.854
400.046
433.721
465.352
494.492
520.78
543.938
563.778
580.19
593.145
602.683
608.905
611.966
612.058
609.402
604.238
596.814
587.381
576.177
563.417
549.311
534.005
517.69
500.506
482.577
464.008
444.885
425.333
405.421
395.165
394.496
393.508
392.193
390.533
388.503
386.082
383.249
379.986
376.872
376.432
375.364
375.173
375.449
375.019
373.905
372.13
369.715
366.684
363.064
358.89
354.209
349.086
343.605
337.868
331.99
326.088
320.273
314.645
309.286
304.258
299.605
295.352
291.511
288.081
285.056
282.42
280.154
278.239
276.652
275.373
102.913
54.1635
62.4988
65.8657
67.5236
68.4979
69.18
69.7121
70.1588
70.553
70.9131
71.2498
71.5694
71.8753
72.169
72.4505
72.7185
72.971
73.2051
73.4175
73.6047
73.7634
73.8912
73.9871
74.0536
74.0981
74.1354
74.1884
74.2874
74.4716
74.7935
75.324
76.1592
77.4212
79.2559
81.8232
85.2784
89.7518
95.3363
106.965
123.91
143.11
170.918
200.267
230.764
261.948
293.326
324.399
354.682
383.724
411.114
436.493
459.559
480.071
497.852
512.788
524.825
533.968
540.269
543.827
544.773
543.267
539.488
533.62
525.862
516.432
505.488
493.195
479.706
465.175
449.737
433.487
416.51
398.861
390.469
391.392
391.897
391.96
391.563
390.684
389.301
387.394
384.946
381.942
378.372
374.236
371.07
368.446
365.157
361.229
356.691
351.927
347.789
343.069
337.818
332.1
325.999
319.621
313.086
306.52
300.048
293.783
287.817
282.221
277.046
272.319
268.053
264.248
260.891
257.966
255.449
253.317
251.544
250.103
248.971
105.288
56.1169
64.9256
68.5067
70.1921
71.1915
71.9017
72.4681
72.9573
73.4037
73.8269
74.2385
74.6455
75.0523
75.4607
75.8712
76.2827
76.6931
77.0992
77.4966
77.8806
78.2458
78.5868
78.8981
79.1752
79.4152
79.6177
79.7873
79.9344
80.0778
80.2429
80.4621
80.7769
81.2425
81.9338
82.9477
84.4031
86.4361
89.1898
92.7939
97.3471
103.625
118.365
134.484
155.938
181.527
207.964
234.848
261.776
288.356
314.209
338.982
362.355
384.042
403.802
421.438
436.802
449.792
460.357
468.485
474.208
477.589
478.723
477.724
474.73
469.903
463.39
455.334
445.871
435.141
423.279
410.401
396.608
381.977
376.003
378.771
380.996
382.67
383.778
384.302
384.221
383.513
382.16
380.146
377.461
374.1
370.063
365.359
360.004
354.019
347.436
340.651
334.546
327.882
320.707
313.079
305.06
296.721
288.138
279.388
270.546
263.603
257.588
252.032
246.967
242.407
238.35
234.784
231.686
229.032
226.792
224.938
223.44
222.269
221.397
107.709
58.3379
67.3912
70.897
72.5219
73.4756
74.1517
74.6957
75.1747
75.624
76.0637
76.5064
76.9599
77.4288
77.9157
78.421
78.9439
79.4819
80.0313
80.5874
81.1441
81.6947
82.2319
82.7479
83.2349
83.6858
84.0941
84.4553
84.7675
85.0331
85.2603
85.4646
85.6688
85.9013
86.1974
86.6014
87.1728
87.9892
89.1466
90.7578
92.9456
95.8308
99.5166
104.079
113.824
127.743
142.66
164.744
187.47
210.481
233.434
256.005
277.885
298.792
318.471
336.696
353.279
368.063
380.934
391.81
400.65
407.444
412.213
415.007
415.899
414.99
412.385
408.195
402.535
395.519
387.267
377.889
367.488
356.152
352.729
357.344
361.337
364.706
367.441
369.524
370.932
371.639
371.624
370.866
369.348
367.062
364.001
360.171
355.583
350.255
344.214
337.494
330.132
322.171
313.652
304.611
295.084
285.099
274.683
263.862
252.666
243.101
234.145
225.297
216.587
210.751
207.103
203.956
201.282
199.05
197.225
195.776
194.669
193.876
193.367
193.116
110.17
60.6967
69.8018
72.9923
74.4684
75.3061
75.887
76.3534
76.7717
77.1773
77.5908
78.0253
78.4889
78.9866
79.521
80.0925
80.6999
81.3403
82.0092
82.7009
83.4081
84.1227
84.8355
85.5367
86.2166
86.8651
87.473
88.0319
88.5349
88.977
89.3563
89.675
89.941
90.1682
90.378
90.5977
90.8596
91.2019
91.6733
92.3366
93.2693
94.5635
96.3218
98.651
101.648
105.388
109.912
121.795
134.516
149.46
168.812
188.334
207.731
226.726
245.065
262.514
278.869
293.953
307.617
319.744
330.246
339.066
346.175
351.571
355.279
357.345
357.834
356.821
354.39
350.633
345.647
339.526
332.367
324.254
323.243
329.493
335.103
340.073
344.39
348.033
350.974
353.183
354.628
355.282
355.119
354.126
352.273
349.571
346.02
341.63
336.423
330.427
323.677
316.211
308.071
299.296
289.926
279.998
269.549
258.62
247.25
235.481
223.354
210.913
198.197
188.04
179.758
172.61
170.496
168.809
167.514
166.573
165.956
165.631
165.569
165.745
112.626
63.0828
72.277
75.1961
76.4545
77.1423
77.5462
77.7648
77.8558
78.044
78.3928
78.7842
79.2266
79.7247
80.2809
80.8953
81.566
82.2892
83.0593
83.869
84.7095
85.5708
86.4415
87.3101
88.1644
88.9923
89.7823
90.5237
91.207
91.8246
92.3706
92.8417
93.2377
93.5624
93.8245
94.0386
94.2254
94.4121
94.63
94.9141
95.3056
95.8565
96.6298
97.6998
99.1488
101.063
103.522
106.591
110.309
116.314
127.042
138.285
151.624
168.009
184.226
200.042
215.241
229.633
243.052
255.357
266.436
276.2
284.588
291.563
297.113
301.247
303.994
305.399
305.519
304.42
302.178
298.873
294.587
289.399
290.503
298.078
305.043
311.397
317.124
322.197
326.584
330.245
333.141
335.234
336.483
336.88
336.352
334.929
332.586
329.324
325.154
320.096
314.178
307.433
299.898
291.613
282.619
272.962
262.689
251.85
240.498
228.684
216.46
203.873
190.97
177.794
164.386
151.777
144.017
139.042
138.364
138.016
137.965
138.181
138.635
139.302
115.062
65.4605
74.8286
77.9676
79.5232
80.5294
81.253
81.7866
82.1684
82.414
82.5282
82.5098
82.3546
82.0564
81.6075
81.2643
81.5666
82.359
83.2177
84.1335
85.0955
86.0913
87.1074
88.1296
89.1435
90.1347
91.0898
91.996
92.8424
93.6194
94.3197
94.9381
95.4717
95.9204
96.287
96.5777
96.8028
96.9785
97.1257
97.271
97.4449
97.681
98.0154
98.4906
99.1571
100.073
101.3
102.903
104.943
107.471
110.519
114.098
119.998
129.342
138.942
149.227
162.62
175.627
188.07
199.794
210.664
220.574
229.437
237.192
243.799
249.242
253.522
256.658
258.684
259.647
259.602
258.616
256.756
254.095
256.962
265.538
273.569
281.048
287.957
294.265
299.93
304.909
309.153
312.613
315.231
317.006
317.833
317.729
316.663
314.62
311.6
307.61
302.666
296.793
290.02
282.385
273.931
264.709
254.776
244.192
233.019
221.317
209.146
196.559
183.607
170.339
156.797
143.02
129.046
117.63
110.402
110.708
111.282
112.094
113.117
114.327
117.455
67.785
77.254
80.6589
82.5686
83.9514
85.0513
85.9547
86.6978
87.2953
87.7518
88.0665
88.235
88.2503
88.1038
87.786
87.2868
86.5958
85.7032
84.6252
84.6164
85.7399
86.8936
88.0606
89.2239
90.3669
91.4738
92.5304
93.5241
94.4444
95.283
96.0338
96.6932
97.2598
97.7347
98.1215
98.4263
98.658
98.8292
98.9563
99.0609
99.168
99.3069
99.509
99.8065
100.233
100.828
101.634
102.697
104.063
105.774
107.866
110.362
113.271
116.581
120.855
128.694
136.585
144.407
153.302
163.365
172.805
181.52
189.427
196.468
202.604
207.816
212.101
215.475
217.965
219.612
220.467
220.589
220.04
224.325
233.615
242.442
250.797
258.658
265.987
272.741
278.868
284.311
289.013
292.905
295.96
298.101
299.293
299.5
298.697
296.866
294.001
290.105
285.188
279.273
272.392
264.59
255.922
246.452
236.249
225.382
213.921
201.928
189.465
176.586
163.34
149.775
135.932
121.849
107.561
93.1385
86.228
86.3952
87.8437
89.4748
91.2653
119.774
69.9332
79.4612
83.1879
85.5043
87.3099
88.8319
90.1521
91.3046
92.3033
93.152
93.8487
94.388
94.7623
94.9628
94.9792
94.8007
94.4161
93.8144
92.9851
91.9188
90.6074
89.0446
88.0109
88.4755
89.763
91.0132
92.21
93.3398
94.3908
95.3543
96.2238
96.9956
97.6681
98.2421
98.7204
99.1081
99.412
99.6409
99.806
99.921
100.002
100.071
100.149
100.265
100.446
100.72
101.114
101.657
102.379
103.311
104.485
105.926
107.658
109.691
112.028
114.655
117.548
120.664
125.245
131.44
137.438
143.148
148.614
155.575
161.893
167.531
172.47
176.709
180.258
183.146
185.411
187.1
188.269
193.659
203.42
212.813
221.824
230.426
238.581
246.238
253.341
259.827
265.632
270.682
274.912
278.264
280.68
282.113
282.519
281.866
280.132
277.303
273.377
268.365
262.296
255.215
247.18
238.261
228.534
218.074
206.954
195.245
183.009
170.304
157.183
143.694
129.88
115.78
101.431
86.8676
72.1206
64.4421
65.7974
68.0643
70.4635
121.994
71.7951
81.3502
85.4492
88.2286
90.5141
92.5143
94.3031
95.9125
97.3557
98.6365
99.7538
100.703
101.475
102.062
102.451
102.632
102.592
102.319
101.802
101.029
99.9914
98.6829
97.0985
95.2361
93.0964
91.2031
91.1149
92.3739
93.5478
94.6274
95.6062
96.4804
97.2488
97.9122
98.4738
98.9382
99.3118
99.6026
99.8197
99.9738
100.077
100.143
100.188
100.229
100.29
100.392
100.559
100.813
101.179
101.674
102.318
103.131
104.131
105.332
106.742
108.363
110.189
112.202
114.371
116.657
119.01
121.367
123.792
128.082
132.023
135.552
138.613
142.748
146.946
150.674
153.957
156.836
159.358
165.574
175.608
185.373
194.852
204.014
212.819
221.211
229.131
236.508
243.271
249.342
254.643
259.105
262.659
265.243
266.8
267.283
266.65
264.872
261.934
257.838
252.606
246.284
238.932
230.626
221.444
211.467
200.772
189.431
177.51
165.068
152.16
138.835
125.136
111.105
96.7788
82.192
67.377
52.3645
46.2147
49.1359
52.1631
124.093
73.2827
82.8636
87.3934
90.685
93.4921
96.0055
98.2968
100.397
102.321
104.072
105.649
107.046
108.256
109.268
110.069
110.648
110.99
111.083
110.913
110.468
109.738
108.715
107.394
105.773
103.853
101.636
99.13
96.3442
93.7405
93.1913
94.2746
95.2458
96.104
96.8506
97.4889
98.0241
98.4625
98.8118
99.0807
99.2788
99.4164
99.5048
99.5558
99.5828
99.6005
99.6242
99.6714
99.7616
99.9133
100.144
100.47
100.905
101.46
102.143
102.961
103.917
105.009
106.226
107.554
108.966
110.428
111.892
113.31
114.628
115.773
116.664
117.223
119.001
120.913
122.352
126.285
130.018
133.562
140.362
150.503
160.479
170.268
179.836
189.139
198.119
206.713
214.844
222.436
229.403
235.662
241.131
245.729
249.382
252.02
253.577
253.997
253.235
251.26
248.067
243.676
238.129
231.491
223.84
215.255
205.822
195.617
184.716
173.184
161.082
148.466
135.385
121.882
107.999
93.7739
79.241
64.4332
49.3816
35.0367
32.8382
36.5058
126.047
74.2921
83.8976
88.9044
92.7481
96.1164
99.1831
102.016
104.647
107.089
109.348
111.421
113.303
114.987
116.46
117.71
118.723
119.483
119.977
120.188
120.105
119.715
119.009
117.981
116.628
114.951
112.955
110.645
108.033
105.132
101.957
98.5235
95.3021
94.3295
95.1568
95.869
96.4714
96.971
97.3754
97.6935
97.9343
98.1077
98.2237
98.293
98.3263
98.3349
98.3301
98.3244
98.3308
98.3621
98.4325
98.5567
98.7462
99.0102
99.3565
99.7895
100.308
100.909
101.583
102.317
103.093
103.881
104.646
105.351
105.952
106.383
106.574
106.458
105.956
104.983
103.447
104.343
106.592
110.884
118.065
128.186
138.243
148.213
158.059
167.733
177.176
186.32
195.087
203.391
211.144
218.254
224.63
230.181
234.82
238.462
241.027
242.44
242.643
241.594
239.281
235.718
230.952
225.045
218.076
210.129
201.286
191.627
181.225
170.148
158.456
146.204
133.44
120.208
106.549
92.5009
78.097
63.3704
48.3522
33.0723
21.4577
23.5425
127.842
74.7512
84.39
89.9206
94.3568
98.3216
101.975
105.381
108.573
111.565
114.362
116.963
119.363
121.553
123.521
125.253
126.734
127.948
128.876
129.504
129.815
129.797
129.439
128.733
127.675
126.268
124.513
122.42
120
117.267
114.238
110.932
107.367
103.565
99.5477
95.7648
94.3781
94.9377
95.3956
95.7606
96.0422
96.2498
96.3933
96.4825
96.5273
96.5375
96.5225
96.4922
96.4559
96.4228
96.4026
96.4045
96.4364
96.5065
96.6222
96.7865
96.9984
97.2543
97.5462
97.8597
98.1741
98.4643
98.7037
98.8632
98.8971
98.7427
98.3419
97.6358
96.5521
95.0103
92.9228
90.196
88.5437
91.1026
98.5217
108.536
118.584
128.639
138.664
148.608
158.413
168.006
177.307
186.225
194.667
202.535
209.728
216.146
221.69
226.26
229.761
232.104
233.217
233.051
231.585
228.832
224.842
219.672
213.406
206.126
197.912
188.845
178.996
168.433
157.213
145.391
133.013
120.125
106.763
92.965
78.7643
64.1926
49.2803
34.057
18.5513
13.2435
129.465
74.5936
84.2847
90.3822
95.4435
100.033
104.299
108.305
112.084
115.652
119.014
122.171
125.117
127.843
130.336
132.582
134.564
136.264
137.661
138.739
139.478
139.865
139.885
139.531
138.797
137.684
136.195
134.339
132.129
129.58
126.71
123.541
120.093
116.39
112.455
108.311
103.981
99.4874
95.1811
93.3764
93.6974
93.9378
94.1071
94.2151
94.2714
94.285
94.2647
94.219
94.1557
94.082
94.0049
93.9301
93.8626
93.8076
93.7683
93.7453
93.7378
93.7426
93.7511
93.7487
93.7169
93.6344
93.4774
93.2142
92.7976
92.1744
91.2953
90.1011
88.5215
86.4804
83.8946
80.6739
76.7203
74.4707
81.4189
91.2894
101.278
111.36
121.496
131.64
141.731
151.695
161.449
170.901
179.951
188.496
196.427
203.634
210.007
215.431
219.798
223.004
224.968
225.634
224.983
223.022
219.809
215.381
209.829
203.235
195.682
187.244
177.994
167.996
157.305
145.975
134.05
121.572
108.578
95.1029
81.1786
66.8353
52.1023
37.0078
21.5799
8.31645
130.913
73.76
83.5288
90.2286
95.9397
101.175
106.075
110.701
115.089
119.255
123.206
126.943
130.461
133.749
136.796
139.585
142.097
144.314
146.213
147.773
148.975
149.799
150.232
150.261
149.88
149.089
147.89
146.294
144.313
141.964
139.268
136.247
132.925
129.328
125.48
121.408
117.136
112.689
108.09
103.362
98.5272
93.7072
91.4508
91.5759
91.6418
91.6577
91.6319
91.5725
91.4866
91.3804
91.2596
91.1283
90.9899
90.8469
90.6996
90.5465
90.3846
90.208
90.0063
89.7654
89.4692
89.0985
88.6287
88.0266
87.2482
86.2464
84.9745
83.3745
81.3781
78.9114
75.8931
72.2342
67.8383
62.6015
66.3696
76.0995
86.0182
96.1021
106.318
116.618
126.946
137.226
147.376
157.299
166.893
176.048
184.649
192.577
199.708
205.917
211.081
215.087
217.844
219.292
219.409
218.201
215.742
212.064
207.244
201.362
194.498
186.727
178.118
168.732
158.625
147.844
136.433
124.431
111.874
98.7927
85.2173
71.1762
56.6963
41.8042
26.5266
10.8899
132.185
72.1801
82.0619
89.3923
95.7719
101.67
107.22
112.485
117.499
122.283
126.843
131.181
135.292
139.166
142.79
146.148
149.219
151.983
154.415
156.491
158.189
159.487
160.365
160.812
160.817
160.378
159.497
158.185
156.454
154.323
151.815
148.955
145.768
142.284
138.529
134.532
130.321
125.921
121.359
116.658
111.842
106.934
101.954
96.9224
91.8575
89.0393
88.6964
88.6218
88.5129
88.3757
88.215
88.0345
87.8365
87.622
87.39
87.1371
86.8584
86.5456
86.1867
85.7673
85.271
84.6772
83.9595
83.0846
82.013
80.7009
79.1011
77.1573
74.8048
71.9721
68.5787
64.5357
59.747
54.1077
52.9901
62.6086
72.4731
82.5635
92.8504
103.292
113.83
124.395
134.901
145.251
155.34
165.052
174.266
182.853
190.68
197.609
203.507
208.253
211.754
213.947
214.808
214.34
212.6
209.651
205.558
200.397
194.243
187.167
179.233
170.502
161.023
150.845
140.005
128.542
116.486
103.867
90.7121
77.0459
62.8931
48.2779
33.2245
17.7575
5.26858
133.31
69.7869
79.7895
87.7812
94.8507
101.43
107.647
113.565
119.224
124.642
129.829
134.787
139.511
143.991
148.214
152.163
155.818
159.155
162.15
164.776
167.005
168.812
170.175
171.076
171.502
171.448
170.917
169.916
168.459
166.568
164.266
161.58
158.541
155.177
151.521
147.604
143.455
139.103
134.577
129.902
125.104
120.206
115.231
110.2
105.132
100.045
94.9569
89.8832
86.2895
85.1259
84.9248
84.6961
84.4417
84.1618
83.8545
83.5155
83.1385
82.7137
82.2286
81.6678
81.0138
80.2441
79.3307
78.2403
76.9348
75.3709
73.5002
71.2673
68.6102
65.4596
61.7362
57.3526
52.2128
46.2107
41.4989
50.4991
60.3376
70.4542
80.8231
91.4058
102.149
112.982
123.821
134.568
145.115
155.342
165.12
174.313
182.777
190.364
196.933
202.359
206.546
209.431
210.994
211.248
210.23
208.002
204.635
200.199
194.766
188.404
181.174
173.131
164.323
154.793
144.577
133.709
122.216
110.125
97.458
84.238
70.4856
56.2218
41.4677
26.2451
10.5772
134.353
66.6572
76.7157
85.371
93.1331
100.396
107.285
113.866
120.179
126.245
132.075
137.67
143.023
148.126
152.965
157.524
161.783
165.719
169.305
172.512
175.309
177.665
179.551
180.946
181.833
182.202
182.054
181.396
180.242
178.615
176.539
174.045
171.166
167.934
164.385
160.552
156.468
152.166
147.675
143.025
138.242
133.352
128.379
123.344
118.268
113.171
108.07
102.981
97.9187
92.8971
87.9277
83.2176
80.8497
80.505
80.1252
79.7053
79.2382
78.7137
78.1185
77.4366
76.6491
75.7323
74.6575
73.3911
71.8949
70.1253
68.0325
65.5607
62.6489
59.2276
55.2183
50.5345
45.0809
38.7509
32.3955
39.522
49.3624
59.5281
69.9961
80.7305
91.6801
102.777
113.937
125.062
136.04
146.747
157.048
166.799
175.845
184.033
191.215
197.266
202.089
205.625
207.855
208.792
208.473
206.956
204.309
200.6
195.896
190.263
183.757
176.429
168.325
159.483
149.936
139.714
128.84
117.338
105.225
92.5193
79.2389
65.4002
51.0205
36.1181
20.7128
135.321
62.839
72.8774
82.1645
90.5917
98.5187
106.067
113.304
120.274
126.998
133.485
139.734
145.735
151.476
156.945
162.127
167.006
171.561
175.765
179.586
182.987
185.931
188.385
190.317
191.707
192.541
192.815
192.536
191.718
190.383
188.558
186.277
183.574
180.487
177.054
173.313
169.299
165.049
160.595
155.969
151.2
146.315
141.34
136.298
131.21
126.098
120.978
115.868
110.784
105.737
100.742
95.8068
90.9408
86.1499
81.4382
77.2789
75.1846
74.5656
73.8683
73.0761
72.1689
71.1224
69.9073
68.4896
66.8308
64.8864
62.606
59.9334
56.8069
53.1564
48.9029
43.9594
38.2303
31.6077
24.6994
29.4841
39.3503
49.5857
60.1695
71.068
82.2314
93.5928
105.068
116.557
127.945
139.104
149.891
160.155
169.733
178.468
186.209
192.831
198.242
202.386
205.245
206.832
207.186
206.362
204.422
201.433
197.459
192.56
186.791
180.198
172.823
164.701
155.861
146.329
136.124
125.264
113.765
101.639
88.8988
75.5569
61.6259
47.1197
32.0536
136.228
58.3238
68.2671
78.1404
87.1829
95.7312
103.906
111.781
119.4
126.786
133.947
140.872
147.544
153.942
160.054
165.87