/*--------------------------------*- C++ -*----------------------------------*\
  =========                 |
  \\      /  F ield         | OpenFOAM: The Open Source CFD Toolbox
   \\    /   O peration     | Website:  https://openfoam.org
    \\  /    A nd           | Version:  10
     \\/     M anipulation  |
\*---------------------------------------------------------------------------*/
FoamFile
{
    format      ascii;
    class       volVectorField;
    location    "77000";
    object      U;
}
// * * * * * * * * * * * * * * * * * * * * * * * * * * * * * * * * * * * * * //

dimensions      [0 1 -1 0 0 0 0];

internalField   nonuniform List<vector> 
17969
(
(0.0999529 1.52604 0)
(-0.0373569 1.5624 0)
(-0.0193997 1.58985 -4.15982e-18)
(-0.0153248 1.61941 5.29282e-18)
(-0.00970073 1.65388 -2.08237e-18)
(0.000106153 1.69797 -1.86869e-18)
(0.0160459 1.75872 1.66233e-18)
(0.0388759 1.83961 0)
(0.0673435 1.93568 7.4887e-20)
(0.0994918 2.03781 0)
(0.132876 2.13685 0)
(0.165187 2.22597 0)
(0.194782 2.30164 0)
(0.220319 2.36252 -5.03061e-19)
(0.2415 2.40992 4.75788e-19)
(0.258768 2.44647 0)
(0.272494 2.47462 -3.69218e-19)
(0.283226 2.49661 3.38954e-19)
(0.291655 2.51423 -3.08667e-19)
(0.29836 2.52883 2.83353e-19)
(0.303797 2.54138 0)
(0.308321 2.55254 0)
(0.312198 2.56279 -2.71111e-20)
(0.315618 2.5724 0)
(0.318711 2.58155 0)
(0.321566 2.59035 1.68995e-19)
(0.324237 2.59886 -3.14698e-19)
(0.326757 2.60714 1.47128e-19)
(0.329147 2.61521 1.36894e-19)
(0.331419 2.62312 -1.6975e-20)
(0.333581 2.63087 -1.52529e-19)
(0.335636 2.63848 0)
(0.337585 2.64598 1.08826e-19)
(0.33943 2.65338 -2.33876e-19)
(0.341169 2.6607 7.55299e-22)
(0.3428 2.66793 1.89541e-19)
(0.34432 2.67511 -9.11589e-20)
(0.345728 2.68223 -1.08588e-19)
(0.347018 2.68932 6.31273e-20)
(0.348188 2.69637 0)
(0.349233 2.7034 1.94758e-20)
(0.35015 2.71043 1.87936e-20)
(0.350935 2.71746 1.44071e-19)
(0.351582 2.72451 -1.40765e-19)
(0.352088 2.73158 -1.347e-19)
(0.352447 2.73868 -3.13505e-20)
(0.352656 2.74583 1.2784e-19)
(0.352709 2.75303 1.22383e-19)
(0.352601 2.7603 -1.58631e-21)
(0.352327 2.76765 -1.16686e-19)
(0.351882 2.77508 -1.39863e-19)
(0.35126 2.7826 1.37392e-19)
(0.350455 2.79023 0)
(0.349462 2.79798 0)
(0.348273 2.80584 2.50913e-20)
(0.346883 2.81384 1.4498e-19)
(0.345285 2.82198 -9.52209e-20)
(0.343471 2.83027 0)
(0.341434 2.83871 0)
(0.339167 2.84732 4.20469e-20)
(0.336661 2.85609 -8.48115e-20)
(0.333909 2.86505 0)
(0.330902 2.87419 0)
(0.327632 2.88352 -3.84415e-20)
(0.324089 2.89304 -7.30773e-20)
(0.320267 2.90277 3.82868e-20)
(0.316155 2.9127 7.06294e-20)
(0.311745 2.92284 0)
(0.307029 2.93319 0)
(0.302 2.94375 0)
(0.296648 2.95454 5.91478e-20)
(0.290968 2.96554 -4.31025e-21)
(0.284952 2.97676 -1.14582e-19)
(0.278595 2.98821 0)
(0.271987 2.99973 5.09281e-20)
(0.265328 3.011 4.78273e-20)
(0.258729 3.02189 -4.44416e-20)
(0.252197 3.03242 0)
(0.245753 3.04262 0)
(0.239401 3.05246 0)
(0.233134 3.0619 0)
(0.226972 3.07094 0)
(0.220922 3.07961 5.39102e-20)
(0.214981 3.08793 -9.01312e-20)
(0.209145 3.09593 6.11773e-20)
(0.20341 3.10361 -1.09199e-20)
(0.197776 3.111 0)
(0.192257 3.11817 0)
(0.186887 3.12525 0)
(0.181708 3.13242 -1.87889e-20)
(0.176722 3.13971 2.49893e-20)
(0.171867 3.14702 1.92761e-20)
(0.167101 3.15425 -1.90492e-20)
(0.162419 3.16138 1.39416e-20)
(0.157816 3.16841 -2.68546e-20)
(0.15329 3.17534 1.00224e-20)
(0.148838 3.18214 0)
(0.144459 3.18881 -4.7821e-21)
(0.140149 3.19533 4.71221e-21)
(0.135906 3.20168 2.49567e-22)
(0.0734698 1.53174 0)
(-0.078224 1.5668 -1.87038e-17)
(-0.0574834 1.58122 1.01076e-17)
(-0.0561137 1.59878 1.88795e-19)
(-0.0545167 1.61906 8.69539e-18)
(-0.051113 1.64341 -1.45976e-17)
(-0.0449676 1.67406 6.71207e-18)
(-0.0354084 1.71342 6.17027e-18)
(-0.0211367 1.76553 -5.88266e-18)
(-0.00105592 1.83373 -5.34121e-18)
(0.024354 1.91582 1.06242e-20)
(0.0538742 2.00606 3.79755e-18)
(0.0857834 2.0976 0)
(0.118061 2.18437 0)
(0.148903 2.26198 -2.37485e-18)
(0.17707 2.32831 2.09184e-18)
(0.201478 2.38257 0)
(0.221935 2.42587 -1.59214e-18)
(0.238839 2.4602 1.51145e-18)
(0.252468 2.48738 0)
(0.263273 2.50915 -1.2434e-18)
(0.271844 2.52695 1.0818e-18)
(0.278689 2.54186 3.31621e-20)
(0.284222 2.55471 0)
(0.288779 2.56614 9.03318e-19)
(0.29262 2.57658 -5.68794e-20)
(0.29594 2.58634 -1.54744e-18)
(0.29888 2.59562 7.19235e-19)
(0.301538 2.60455 -4.17481e-20)
(0.303977 2.6132 6.38714e-19)
(0.306238 2.62162 -5.46607e-19)
(0.308345 2.62986 0)
(0.310314 2.63795 4.4692e-19)
(0.312154 2.6459 -3.95163e-19)
(0.313871 2.65375 0)
(0.315466 2.66151 5.45585e-20)
(0.316941 2.66918 -5.19315e-20)
(0.318295 2.6768 -3.68991e-19)
(0.319526 2.68436 7.79356e-19)
(0.320631 2.69189 -4.86646e-20)
(0.321607 2.69939 -3.70536e-19)
(0.32245 2.70688 -3.94638e-19)
(0.323156 2.71437 6.42067e-19)
(0.323721 2.72186 -6.96086e-19)
(0.324138 2.72938 5.96508e-19)
(0.324403 2.73692 -2.53693e-19)
(0.324511 2.74451 2.76485e-19)
(0.324455 2.75215 -6.05356e-19)
(0.32423 2.75985 5.20413e-19)
(0.32383 2.76762 -5.03787e-19)
(0.323247 2.77548 2.14892e-19)
(0.322476 2.78343 -2.94475e-20)
(0.321509 2.79148 0)
(0.320339 2.79965 0)
(0.318958 2.80794 -2.68272e-20)
(0.317359 2.81636 -5.20325e-20)
(0.315532 2.82492 2.00734e-19)
(0.31347 2.83364 -2.97196e-19)
(0.311163 2.8425 -3.77323e-19)
(0.308602 2.85154 5.40955e-20)
(0.305777 2.86075 3.62662e-19)
(0.302679 2.87013 4.30681e-19)
(0.299297 2.87971 -4.25773e-19)
(0.295619 2.88948 4.05975e-20)
(0.291637 2.89944 0)
(0.287338 2.90961 3.88255e-20)
(0.282711 2.91998 2.90968e-19)
(0.277747 2.93057 -2.90705e-19)
(0.272433 2.94137 -1.38808e-19)
(0.266759 2.95238 -1.27109e-19)
(0.260715 2.96361 2.61931e-19)
(0.254291 2.97506 1.85627e-19)
(0.247479 2.98672 2.31555e-19)
(0.240269 2.99861 -2.32603e-19)
(0.232764 3.01056 -5.33428e-20)
(0.225188 3.02223 -5.01326e-20)
(0.21767 3.0335 4.67205e-20)
(0.210219 3.0444 8.75641e-20)
(0.202863 3.05496 2.36794e-19)
(0.195604 3.06514 -9.627e-21)
(0.188431 3.0749 -1.44513e-19)
(0.18137 3.08425 -3.28419e-20)
(0.174428 3.09321 0)
(0.167604 3.10183 1.43278e-20)
(0.160899 3.11011 -1.26861e-20)
(0.15431 3.1181 1.16014e-20)
(0.147834 3.1258 0)
(0.141466 3.13323 0)
(0.135217 3.14046 -1.30529e-19)
(0.129112 3.14761 5.28472e-21)
(0.123189 3.15485 1.1036e-19)
(0.117473 3.16227 0)
(0.111902 3.16977 0)
(0.106421 3.17719 6.10157e-20)
(0.101035 3.18451 -1.09025e-19)
(0.0957392 3.19173 5.40838e-20)
(0.0905332 3.19884 0)
(0.0854146 3.20582 0)
(0.0803817 3.21266 -1.21599e-20)
(0.0754337 3.21933 6.95198e-21)
(0.0459661 1.53734 4.07054e-17)
(-0.117164 1.5743 -4.57374e-17)
(-0.0932206 1.57886 5.40508e-17)
(-0.0931824 1.58915 -1.62254e-17)
(-0.0931426 1.60187 3.31396e-19)
(-0.0921502 1.61704 0)
(-0.0900247 1.63574 2.36625e-19)
(-0.086409 1.65923 0)
(-0.0805677 1.68831 0)
(-0.0718807 1.72395 3.576e-19)
(-0.059411 1.76872 1.65321e-19)
(-0.042068 1.82574 0)
(-0.019682 1.89518 0)
(0.00703253 1.9741 2.31487e-19)
(0.0369097 2.05768 -3.17613e-18)
(0.0683986 2.14082 2.4835e-18)
(0.0997802 2.2191 -2.21438e-18)
(0.129566 2.28924 2.06624e-18)
(0.156763 2.34966 -5.63319e-20)
(0.180429 2.3998 -1.69794e-18)
(0.200453 2.4406 1.36735e-18)
(0.217219 2.47363 1.68239e-19)
(0.230884 2.5003 7.83218e-20)
(0.241885 2.52207 0)
(0.250696 2.54011 0)
(0.257771 2.55536 1.06815e-18)
(0.26349 2.56857 -8.22605e-19)
(0.268168 2.58031 -1.09219e-19)
(0.272054 2.59103 -6.56182e-19)
(0.275347 2.60104 7.56799e-19)
(0.278194 2.61054 0)
(0.280704 2.61969 0)
(0.282948 2.62855 7.65533e-20)
(0.284976 2.63721 1.07536e-18)
(0.286819 2.64569 -2.16475e-18)
(0.288495 2.65403 9.60644e-19)
(0.290019 2.66227 6.01216e-20)
(0.291396 2.67042 -1.14546e-19)
(0.292631 2.67849 1.08808e-19)
(0.293725 2.68652 5.15053e-20)
(0.294678 2.6945 0)
(0.295486 2.70247 4.69587e-20)
(0.296149 2.71042 9.0463e-20)
(0.296661 2.71837 -6.02007e-19)
(0.297018 2.72634 7.28547e-21)
(0.297214 2.73434 7.22771e-19)
(0.297245 2.74237 0)
(0.297103 2.75045 -5.02965e-22)
(0.296783 2.7586 -1.43483e-19)
(0.296278 2.76681 0)
(0.295579 2.7751 6.64297e-20)
(0.294679 2.78349 -5.11705e-19)
(0.293571 2.79198 5.02403e-19)
(0.292246 2.80059 0)
(0.290694 2.80931 1.17209e-19)
(0.288907 2.81817 0)
(0.286876 2.82718 -1.09905e-19)
(0.284588 2.83633 -4.20665e-19)
(0.282035 2.84565 4.14736e-19)
(0.279205 2.85513 9.98768e-20)
(0.276087 2.86479 0)
(0.272668 2.87463 -4.61124e-19)
(0.268936 2.88467 9.93011e-19)
(0.264879 2.8949 -9.33881e-21)
(0.260483 2.90533 -1.7944e-19)
(0.255736 2.91598 -9.10539e-20)
(0.250622 2.92683 -6.3144e-19)
(0.245129 2.93789 1.03483e-20)
(0.239243 2.94917 5.93865e-19)
(0.23295 2.96067 1.75365e-21)
(0.226238 2.97239 0)
(0.219092 2.98432 3.83406e-19)
(0.211502 2.99647 1.02902e-19)
(0.203456 3.00884 -4.94901e-19)
(0.195065 3.02126 0)
(0.18658 3.03338 0)
(0.178148 3.04507 -1.01475e-19)
(0.169777 3.05636 2.68847e-19)
(0.161504 3.0673 -7.75326e-19)
(0.153331 3.07786 6.44285e-19)
(0.145242 3.08798 -3.87534e-19)
(0.137269 3.09768 -2.36827e-19)
(0.129417 3.10697 2.70727e-19)
(0.121687 3.1159 -2.62835e-19)
(0.114082 3.1245 4.45482e-19)
(0.106604 3.1328 -2.12404e-19)
(0.0992513 3.14082 1.77925e-19)
(0.0920187 3.14858 -3.36599e-19)
(0.0849026 3.15612 1.46665e-20)
(0.0779071 3.16348 1.3934e-20)
(0.0710502 3.17076 1.38289e-19)
(0.0643605 3.17813 0)
(0.0578828 3.18574 7.95485e-20)
(0.0515587 3.19344 -1.45057e-19)
(0.0453279 3.20107 2.71258e-21)
(0.0392067 3.20859 6.99618e-21)
(0.0331936 3.216 4.52968e-21)
(0.0272858 3.22328 5.35251e-21)
(0.0214821 3.23043 2.07516e-20)
(0.0157821 3.23742 6.57929e-22)
(0.0157079 1.54134 -1.31569e-18)
(-0.153858 1.57924 -1.03677e-16)
(-0.127604 1.58041 8.75552e-20)
(-0.128308 1.58603 1.29821e-18)
(-0.129112 1.5945 2.56431e-17)
(-0.129381 1.60449 1.97104e-17)
(-0.129056 1.61642 -3.00015e-19)
(-0.127993 1.63115 -1.60978e-17)
(-0.125885 1.64955 0)
(-0.122463 1.67216 1.33076e-17)
(-0.117179 1.6994 -1.2096e-17)
(-0.109407 1.73181 0)
(-0.0985988 1.77088 0)
(-0.0838444 1.81901 -2.82422e-19)
(-0.0644227 1.87789 2.56553e-19)
(-0.0406763 1.94649 2.27155e-19)
(-0.0132742 2.02184 6.14704e-18)
(0.0166642 2.09992 -5.53398e-18)
(0.0477396 2.17668 0)
(0.0784459 2.24862 1.31428e-19)
(0.107505 2.31315 4.05139e-18)
(0.134112 2.36909 -6.66564e-18)
(0.157366 2.41605 2.8534e-18)
(0.177246 2.45492 1.68767e-19)
(0.194082 2.48694 2.50231e-18)
(0.207989 2.51324 -2.35002e-18)
(0.219297 2.53509 -2.32454e-18)
(0.228448 2.55346 2.31616e-18)
(0.235834 2.56915 5.67927e-22)
(0.241802 2.58281 -1.7931e-18)
(0.24665 2.59499 1.68763e-18)
(0.250623 2.60611 0)
(0.253922 2.61648 0)
(0.256705 2.62632 -1.3735e-18)
(0.259088 2.63578 1.45848e-18)
(0.261152 2.64496 -1.20795e-18)
(0.262956 2.65393 1.14464e-18)
(0.264537 2.66274 -9.35903e-19)
(0.265918 2.67143 -1.17795e-19)
(0.267115 2.68002 8.49774e-21)
(0.268137 2.68855 1.82028e-18)
(0.26899 2.69703 -1.72982e-18)
(0.269675 2.70549 7.25045e-19)
(0.270192 2.71393 0)
(0.270538 2.72238 0)
(0.27071 2.73084 -8.95479e-20)
(0.270703 2.73934 -6.84923e-19)
(0.270511 2.74788 5.81822e-19)
(0.270129 2.75648 -4.73159e-19)
(0.269549 2.76515 7.68963e-19)
(0.268764 2.7739 7.32474e-19)
(0.267765 2.78274 -7.14043e-19)
(0.266544 2.79168 0)
(0.265091 2.80074 -3.91385e-19)
(0.263396 2.80992 5.15378e-19)
(0.261449 2.81924 0)
(0.259239 2.8287 1.1853e-19)
(0.256755 2.83831 1.14564e-19)
(0.253984 2.84809 -2.23594e-19)
(0.250914 2.85805 -1.07078e-19)
(0.247531 2.86818 2.09125e-19)
(0.243821 2.87851 7.95173e-19)
(0.23977 2.88903 -9.81242e-19)
(0.235363 2.89975 7.42095e-19)
(0.230585 2.91068 -1.09001e-18)
(0.225418 2.92183 7.12418e-19)
(0.219847 2.93319 -8.37594e-19)
(0.213855 2.94477 8.29581e-19)
(0.207425 2.95657 -1.56724e-19)
(0.200541 2.9686 -7.47061e-19)
(0.193184 2.98084 5.9702e-19)
(0.18534 2.99331 0)
(0.176991 3.00599 -1.34134e-19)
(0.168124 3.01889 0)
(0.158857 3.03182 0)
(0.14947 3.04443 0)
(0.140122 3.05658 5.27231e-19)
(0.130829 3.0683 -4.12888e-19)
(0.121632 3.07966 -1.87662e-19)
(0.112532 3.09064 -1.75653e-19)
(0.103514 3.10116 8.08737e-20)
(0.0946073 3.11124 -7.71008e-20)
(0.0858223 3.12091 -2.74327e-19)
(0.0771595 3.1302 2.7339e-19)
(0.0686226 3.13915 2.33997e-19)
(0.0602153 3.14778 -1.80275e-20)
(0.0519388 3.15614 -6.02834e-19)
(0.0437924 3.16425 3.32492e-20)
(0.0357724 3.17214 3.48378e-19)
(0.027875 3.17984 -3.75724e-20)
(0.0201009 3.18739 1.70285e-20)
(0.01246 3.19488 -2.12061e-19)
(0.00497578 3.20248 2.04169e-19)
(-0.00230134 3.2103 -1.02617e-20)
(-0.00941928 3.21822 8.25587e-21)
(-0.0164318 3.22604 9.31822e-20)
(-0.0233102 3.23374 -1.71702e-19)
(-0.030058 3.24131 8.10785e-20)
(-0.0366804 3.24876 3.73296e-20)
(-0.0431795 3.25605 -5.59491e-20)
(-0.0495566 3.26316 1.98431e-20)
(-0.0558122 3.27007 -1.35872e-21)
(-0.0619453 3.27675 -2.93243e-20)
(-0.0679532 3.28315 2.85443e-20)
(-0.0158447 1.54388 8.90221e-17)
(-0.18889 1.58155 0)
(-0.161365 1.58207 7.95223e-17)
(-0.16233 1.58587 6.88741e-19)
(-0.16358 1.59203 -6.18873e-17)
(-0.164499 1.59939 4.58339e-17)
(-0.165169 1.6078 -1.84352e-17)
(-0.165484 1.61763 0)
(-0.165285 1.62947 1.70782e-17)
(-0.164349 1.64397 -3.11777e-17)
(-0.162448 1.66168 1.39311e-17)
(-0.159324 1.68311 -4.09387e-19)
(-0.154636 1.70856 1.18502e-17)
(-0.147827 1.73829 -2.10275e-17)
(-0.138466 1.77319 9.12191e-18)
(-0.125905 1.81491 -5.3815e-19)
(-0.1093 1.86529 7.89125e-18)
(-0.088445 1.92467 -6.70727e-18)
(-0.0637218 1.99168 0)
(-0.0358057 2.06353 5.57487e-18)
(-0.00580495 2.13677 -5.52263e-18)
(0.0249993 2.20812 -2.69794e-19)
(0.0552591 2.27482 0)
(0.08386 2.33477 -4.2308e-19)
(0.11009 2.38707 0)
(0.133133 2.43151 2.54738e-18)
(0.152988 2.46889 1.44562e-19)
(0.169984 2.5002 -2.65894e-18)
(0.184154 2.52637 -1.37965e-19)
(0.195795 2.54845 0)
(0.20529 2.56725 0)
(0.21299 2.58346 0)
(0.219214 2.59767 -1.50673e-18)
(0.224244 2.61038 1.6309e-18)
(0.228319 2.62199 -1.90411e-19)
(0.231643 2.63282 1.43008e-18)
(0.234377 2.64309 -1.18561e-18)
(0.236646 2.65296 1.26456e-18)
(0.238538 2.66255 -1.2007e-18)
(0.240118 2.67193 0)
(0.241429 2.68116 1.32675e-18)
(0.242498 2.69028 -1.01165e-18)
(0.243345 2.69933 7.10018e-19)
(0.243981 2.70834 -6.82984e-19)
(0.244411 2.71732 2.16004e-19)
(0.244639 2.72631 -2.05758e-19)
(0.244664 2.73531 0)
(0.244483 2.74435 -1.36672e-21)
(0.244092 2.75344 0)
(0.243486 2.76258 1.19125e-18)
(0.242658 2.77181 -1.48809e-18)
(0.2416 2.78112 1.5728e-19)
(0.240303 2.79054 -1.20521e-18)
(0.238758 2.80007 1.03212e-18)
(0.236955 2.80972 -1.40034e-19)
(0.234882 2.81951 0)
(0.232528 2.82945 0)
(0.22988 2.83955 -9.98314e-19)
(0.226925 2.84982 2.61415e-19)
(0.223647 2.86026 9.484e-19)
(0.220033 2.8709 6.70544e-19)
(0.216066 2.88172 -8.84796e-19)
(0.21173 2.89276 0)
(0.207007 2.904 0)
(0.201879 2.91546 -1.9555e-19)
(0.196327 2.92714 0)
(0.190332 2.93905 -1.86443e-19)
(0.183873 2.95118 5.18697e-19)
(0.176931 2.96354 -6.92074e-19)
(0.169483 2.97614 3.29693e-19)
(0.16151 2.98895 3.17255e-19)
(0.152989 3.00199 3.04985e-19)
(0.143902 3.01526 0)
(0.134227 3.02874 2.61057e-19)
(0.124095 3.04224 -2.75297e-19)
(0.113806 3.05539 4.83308e-19)
(0.103542 3.06804 -2.44368e-19)
(0.0933186 3.08024 8.43418e-19)
(0.0831855 3.09206 -5.24026e-20)
(0.0731431 3.10349 1.39912e-19)
(0.0631742 3.11446 -7.32852e-19)
(0.0533084 3.12497 5.57306e-19)
(0.0435598 3.13506 -4.85776e-19)
(0.0339298 3.14476 0)
(0.0244227 3.1541 6.75231e-20)
(0.0150428 3.16313 4.71392e-19)
(0.00579316 3.17186 -9.44941e-20)
(-0.00332476 3.18034 -3.61518e-20)
(-0.0123109 3.1886 -3.84402e-19)
(-0.0211668 3.19667 -1.1924e-21)
(-0.0298945 3.20458 2.0138e-19)
(-0.0384943 3.21239 -2.66965e-19)
(-0.0469614 3.22016 2.01846e-19)
(-0.0552675 3.22805 -2.06137e-19)
(-0.0633717 3.23612 1.38343e-19)
(-0.0713069 3.24419 -1.27977e-19)
(-0.0791094 3.25215 0)
(-0.0867493 3.26 0)
(-0.0942388 3.26772 4.77314e-20)
(-0.101586 3.2753 -4.13087e-20)
(-0.108794 3.28271 7.99995e-22)
(-0.115863 3.28993 -2.44224e-22)
(-0.122791 3.2969 -2.74795e-20)
(-0.129574 3.3036 2.66978e-20)
(-0.0473892 1.54537 -4.06503e-18)
(-0.222655 1.58217 2.47899e-16)
(-0.194416 1.58304 -1.78211e-16)
(-0.195434 1.586 5.35568e-17)
(-0.196854 1.59118 0)
(-0.198075 1.59729 0)
(-0.199193 1.60408 -1.25434e-18)
(-0.200189 1.6116 -1.76229e-17)
(-0.200995 1.62011 3.26857e-17)
(-0.201455 1.62998 -1.61658e-17)
(-0.201419 1.64172 0)
(-0.200699 1.65581 2.38581e-23)
(-0.199077 1.67276 -4.33382e-19)
(-0.196336 1.69303 0)
(-0.192219 1.71692 7.20942e-19)
(-0.186342 1.74458 6.44612e-19)
(-0.178169 1.77649 -5.71235e-19)
(-0.167398 1.81355 -5.1564e-19)
(-0.153301 1.85723 0)
(-0.135163 1.90879 0)
(-0.113165 1.96782 3.93546e-19)
(-0.0876754 2.03277 -6.78919e-22)
(-0.0593956 2.10114 3.1144e-19)
(-0.0293929 2.17004 -7.75466e-22)
(0.00114308 2.23676 0)
(0.0309914 2.29907 -2.18577e-19)
(0.0591814 2.35522 -5.84085e-19)
(0.085038 2.40452 -1.76074e-19)
(0.107883 2.44696 0)
(0.127748 2.48319 0)
(0.144883 2.51398 -2.79314e-19)
(0.159306 2.54012 2.63077e-19)
(0.171275 2.56249 1.47864e-18)
(0.181117 2.58176 -2.47005e-19)
(0.189143 2.59852 -2.33631e-19)
(0.195643 2.61332 -1.87959e-18)
(0.200877 2.62662 -1.56362e-18)
(0.205078 2.63881 1.85938e-18)
(0.208446 2.65019 -1.39226e-18)
(0.211146 2.661 1.32487e-18)
(0.213306 2.67139 -3.10371e-19)
(0.215022 2.6815 0)
(0.216363 2.6914 2.49086e-18)
(0.217379 2.70116 -2.11418e-18)
(0.218101 2.71084 -2.48539e-19)
(0.218552 2.72046 2.35814e-19)
(0.218746 2.73006 2.25699e-19)
(0.21869 2.73967 -1.27355e-18)
(0.218388 2.7493 1.64123e-18)
(0.217838 2.75898 0)
(0.217039 2.76872 -3.73358e-19)
(0.215986 2.77855 0)
(0.214671 2.78847 0)
(0.213087 2.7985 -3.2816e-19)
(0.211223 2.80865 0)
(0.20907 2.81895 -3.02622e-19)
(0.206615 2.82939 2.90956e-19)
(0.203845 2.83999 -1.10365e-18)
(0.200745 2.85077 1.35233e-18)
(0.1973 2.86173 1.02183e-18)
(0.193493 2.87288 -1.25552e-18)
(0.189307 2.88424 4.81883e-19)
(0.184724 2.89581 4.47832e-19)
(0.179723 2.9076 -9.01534e-19)
(0.174284 2.91962 8.46078e-19)
(0.168385 2.93187 -8.38527e-19)
(0.162002 2.94436 3.95691e-19)
(0.155112 2.95708 7.54292e-19)
(0.147691 2.97005 -7.51084e-19)
(0.139712 2.98325 -3.52659e-19)
(0.13115 2.99669 -6.82836e-19)
(0.121979 3.01036 3.16049e-19)
(0.112173 3.02426 9.02086e-19)
(0.101706 3.03838 -3.27644e-19)
(0.0907154 3.05252 8.26975e-19)
(0.0795272 3.06627 -1.10623e-18)
(0.0683385 3.07947 4.55721e-21)
(0.0571747 3.09219 -6.80218e-19)
(0.0460855 3.1045 1.12243e-18)
(0.0350788 3.11643 0)
(0.0241376 3.1279 0)
(0.0132823 3.1389 1.79999e-19)
(0.00253433 3.14947 -8.2526e-19)
(-0.00810349 3.15963 6.56308e-19)
(-0.0186269 3.16942 4.92415e-19)
(-0.0290303 3.17888 -4.25143e-19)
(-0.0393093 3.18804 4.10374e-19)
(-0.0494607 3.19693 -4.12916e-19)
(-0.0594813 3.2056 -5.1536e-20)
(-0.0693685 3.21407 4.47305e-20)
(-0.0791191 3.22237 3.9525e-20)
(-0.0887289 3.23055 0)
(-0.0981971 3.23864 0)
(-0.107526 3.24673 2.49261e-20)
(-0.116648 3.25492 2.15884e-20)
(-0.125563 3.26316 1.26391e-19)
(-0.134319 3.27133 -2.39045e-20)
(-0.142898 3.27942 -1.09571e-19)
(-0.151307 3.2874 5.24111e-20)
(-0.159561 3.29527 -5.36803e-20)
(-0.167662 3.30298 -1.05796e-20)
(-0.17561 3.31051 1.02441e-20)
(-0.1834 3.31779 -2.42289e-20)
(-0.191025 3.32477 -1.62604e-20)
(-0.0784412 1.54605 -8.99895e-17)
(-0.25537 1.5816 1.30506e-16)
(-0.226671 1.5831 -1.93496e-16)
(-0.227682 1.58562 6.08188e-17)
(-0.229165 1.59029 1.21388e-18)
(-0.230511 1.59582 -2.72316e-17)
(-0.231834 1.60187 4.29133e-17)
(-0.23314 1.60841 -1.78198e-17)
(-0.234388 1.61548 1.65796e-17)
(-0.235527 1.62322 -1.53894e-17)
(-0.236481 1.63189 0)
(-0.237113 1.64181 4.70583e-19)
(-0.237286 1.65339 -1.52853e-17)
(-0.236831 1.66706 1.43134e-17)
(-0.235539 1.68331 -8.37968e-19)
(-0.23321 1.70256 -1.2356e-17)
(-0.229621 1.72514 1.20113e-17)
(-0.224512 1.75117 1.0827e-17)
(-0.217448 1.78072 -2.3764e-20)
(-0.208074 1.81447 -8.11978e-18)
(-0.195968 1.8534 -4.59801e-19)
(-0.180455 1.8986 4.23225e-19)
(-0.161155 1.95056 -1.16404e-18)
(-0.138286 2.00866 -3.51604e-19)
(-0.112263 2.07139 -5.64475e-18)
(-0.0838137 2.1365 5.04983e-18)
(-0.0539453 2.20153 -1.55013e-21)
(-0.0237708 2.2642 4.44934e-19)
(0.00561463 2.32265 -4.00402e-19)
(0.0333758 2.37548 3.60735e-19)
(0.0588339 2.42219 2.92849e-18)
(0.0814849 2.46289 -2.70745e-18)
(0.101387 2.49811 2.79916e-19)
(0.118672 2.52843 -1.40139e-21)
(0.133363 2.55459 2.49094e-19)
(0.145674 2.57727 2.35617e-19)
(0.155879 2.59704 -3.78808e-18)
(0.164249 2.61442 2.9035e-20)
(0.171039 2.62988 3.62271e-18)
(0.176489 2.64387 0)
(0.180821 2.65675 0)
(0.184233 2.66881 0)
(0.186891 2.68027 -2.88529e-18)
(0.188925 2.69132 2.45193e-18)
(0.190437 2.70208 0)
(0.191501 2.71264 0)
(0.192173 2.72306 -2.3232e-18)
(0.192488 2.73342 1.73735e-18)
(0.192474 2.74374 1.86212e-18)
(0.192146 2.75406 -1.79393e-18)
(0.191513 2.76442 4.22768e-19)
(0.19058 2.77483 0)
(0.189347 2.78531 0)
(0.18781 2.7959 7.38647e-19)
(0.185963 2.8066 1.4018e-18)
(0.183798 2.81743 -1.02776e-18)
(0.181304 2.82841 -3.227e-19)
(0.178469 2.83955 0)
(0.175279 2.85087 -1.47957e-18)
(0.171718 2.86238 2.34485e-20)
(0.167768 2.87408 1.38818e-18)
(0.163411 2.886 -1.05986e-18)
(0.158627 2.89814 5.06701e-19)
(0.153394 2.91051 0)
(0.147687 2.92312 0)
(0.141483 2.93597 4.37742e-19)
(0.134754 2.94907 -2.64988e-20)
(0.127474 2.96243 -2.71461e-20)
(0.119612 2.97604 -4.14534e-19)
(0.111137 2.9899 0)
(0.10202 3.00402 7.44958e-19)
(0.0922269 3.01838 7.20355e-19)
(0.0817256 3.03297 -1.03041e-18)
(0.0704844 3.0478 -6.47902e-19)
(0.0586448 3.06263 0)
(0.0465563 3.07705 -1.73312e-18)
(0.0344332 3.09088 1.41738e-18)
(0.0223101 3.10416 5.01558e-21)
(0.0102317 3.11701 -2.43078e-19)
(-0.00176774 3.12948 2.27212e-19)
(-0.0137018 3.14151 2.14069e-19)
(-0.0255801 3.15306 0)
(-0.0373703 3.16415 0)
(-0.0490658 3.17484 0)
(-0.0606613 3.18514 -6.22198e-19)
(-0.0721495 3.1951 -1.00896e-19)
(-0.0835242 3.20474 1.22811e-18)
(-0.094779 3.2141 -5.80391e-19)
(-0.105906 3.22322 -3.73416e-19)
(-0.116897 3.23212 4.21418e-19)
(-0.127738 3.24084 0)
(-0.138417 3.24939 2.93178e-19)
(-0.148927 3.25783 -2.84042e-19)
(-0.15928 3.26618 0)
(-0.169413 3.27455 -4.72001e-20)
(-0.179326 3.28294 -1.42289e-19)
(-0.189076 3.29131 1.39392e-19)
(-0.198648 3.29964 -8.75773e-20)
(-0.208048 3.3079 8.48321e-20)
(-0.217288 3.31607 0)
(-0.226368 3.3241 -1.98846e-20)
(-0.235283 3.33195 1.57517e-20)
(-0.244022 3.33954 2.0592e-20)
(-0.25257 3.34681 -5.84776e-20)
(-0.26091 3.35371 4.01033e-20)
(-0.108765 1.54601 2.8671e-18)
(-0.287117 1.58007 0)
(-0.258028 1.58222 -9.79153e-17)
(-0.258987 1.58445 6.5542e-17)
(-0.260481 1.58882 -1.07467e-22)
(-0.261873 1.59404 -9.15926e-19)
(-0.263281 1.59974 0)
(-0.264719 1.60583 -1.77254e-17)
(-0.266167 1.6123 1.64556e-17)
(-0.2676 1.61917 0)
(-0.268986 1.62654 8.77503e-19)
(-0.270277 1.63454 0)
(-0.271407 1.6434 8.9781e-23)
(-0.272243 1.65337 -1.40373e-17)
(-0.272659 1.66483 2.79649e-17)
(-0.272514 1.67815 -1.36711e-17)
(-0.271586 1.69379 1.29597e-17)
(-0.269685 1.71215 -2.56583e-17)
(-0.266632 1.73355 1.11091e-17)
(-0.262203 1.7582 6.31648e-19)
(-0.25612 1.7861 -5.63989e-19)
(-0.24796 1.81751 -7.01372e-18)
(-0.237475 1.85303 8.11347e-18)
(-0.224199 1.89348 8.21685e-19)
(-0.207512 1.93963 7.57903e-19)
(-0.187297 1.99149 -6.94468e-19)
(-0.163796 2.04839 6.28043e-19)
(-0.137455 2.10883 0)
(-0.10901 2.1708 -1.48535e-21)
(-0.0794073 2.2322 1.54027e-21)
(-0.0496843 2.29113 -4.09761e-19)
(-0.0208152 2.34602 0)
(0.00649079 2.39582 0)
(0.0315231 2.44019 5.17494e-18)
(0.0539618 2.47933 -3.98165e-18)
(0.0739017 2.51365 0)
(0.0913299 2.5436 -4.01135e-18)
(0.106277 2.56986 6.67232e-18)
(0.118916 2.59293 -4.08016e-18)
(0.129469 2.61329 0)
(0.138164 2.63137 -3.65026e-18)
(0.145224 2.64761 3.10461e-18)
(0.150871 2.6624 7.3347e-19)
(0.155316 2.6761 -3.11773e-18)
(0.15875 2.68897 2.32453e-18)
(0.161335 2.70125 0)
(0.163205 2.71309 2.36792e-18)
(0.164464 2.72464 -2.84154e-18)
(0.165192 2.73599 2.13512e-18)
(0.165448 2.74723 -1.54205e-18)
(0.165276 2.7584 -2.4171e-18)
(0.164703 2.76956 1.8615e-18)
(0.16375 2.78075 -4.42341e-19)
(0.162427 2.792 1.2489e-18)
(0.160738 2.80333 -2.52104e-20)
(0.158682 2.81478 -1.54366e-18)
(0.156256 2.82636 0)
(0.15345 2.83809 -2.09147e-18)
(0.150254 2.85 2.00762e-18)
(0.146652 2.86209 -1.29761e-18)
(0.14263 2.87439 0)
(0.138167 2.8869 5.87429e-19)
(0.133243 2.89964 1.6907e-18)
(0.127834 2.91263 5.20391e-19)
(0.121917 2.92586 -2.77025e-20)
(0.115461 2.93936 -5.191e-19)
(0.108437 2.95312 1.89881e-18)
(0.100813 2.96715 -1.88048e-18)
(0.092557 2.98145 -8.8867e-19)
(0.0836312 2.99603 1.67406e-18)
(0.0739981 3.01087 -1.24876e-18)
(0.0636186 3.02598 -1.56748e-18)
(0.0524526 3.04134 2.21018e-18)
(0.0404599 3.05695 -7.43383e-19)
(0.0277854 3.07256 0)
(0.0147988 3.08772 -6.13518e-19)
(0.00172995 3.10225 6.43122e-19)
(-0.0113761 3.11618 -1.95893e-18)
(-0.0244867 3.1296 1.35198e-18)
(-0.0375213 3.14262 -4.92956e-19)
(-0.0504904 3.15526 -1.12695e-18)
(-0.0634372 3.16743 5.65404e-20)
(-0.0763228 3.17914 5.51087e-20)
(-0.0891344 3.19041 7.91649e-19)
(-0.101866 3.20129 8.64447e-19)
(-0.114509 3.21181 -5.02339e-20)
(-0.127053 3.22201 -4.73448e-19)
(-0.139485 3.2319 1.39118e-19)
(-0.151786 3.24152 -4.72657e-19)
(-0.163934 3.25088 5.76137e-19)
(-0.175908 3.26 0)
(-0.187685 3.26892 3.2301e-19)
(-0.199261 3.27767 -5.51665e-19)
(-0.21065 3.2863 2.66456e-19)
(-0.221794 3.29489 2.19888e-19)
(-0.232757 3.3035 -1.8951e-19)
(-0.243589 3.31213 1.83921e-20)
(-0.254247 3.32075 -8.58665e-20)
(-0.264746 3.32935 8.60688e-20)
(-0.275085 3.33787 7.70725e-21)
(-0.285257 3.34625 3.87969e-21)
(-0.295244 3.35442 0)
(-0.305027 3.36232 6.99587e-22)
(-0.314583 3.36986 -1.83234e-21)
(-0.323889 3.37698 -2.84159e-21)
(-0.332921 3.3836 1.2454e-19)
(-0.341657 3.38967 -1.30679e-19)
(-0.138321 1.54531 -9.34708e-17)
(-0.317906 1.5776 0)
(-0.288426 1.58032 1.09668e-16)
(-0.289299 1.5823 -6.97284e-17)
(-0.290765 1.58648 -1.4065e-18)
(-0.292155 1.59152 1.95689e-18)
(-0.293583 1.59704 2.36346e-17)
(-0.295068 1.60291 -1.97023e-17)
(-0.296591 1.60911 -1.01462e-18)
(-0.298143 1.61563 -1.53053e-17)
(-0.29971 1.62249 1.33223e-17)
(-0.301273 1.62974 7.96819e-19)
(-0.302805 1.63745 7.59449e-23)
(-0.304258 1.64577 7.98055e-19)
(-0.305585 1.65486 8.1116e-19)
(-0.30664 1.66496 1.31219e-17)
(-0.307345 1.67637 -2.9233e-20)
(-0.307524 1.68945 -1.2237e-17)
(-0.306997 1.7046 0)
(-0.305576 1.72223 -7.36482e-19)
(-0.303068 1.74267 -9.53489e-18)
(-0.299289 1.76616 8.75959e-18)
(-0.29403 1.79276 8.99854e-18)
(-0.286991 1.82245 -8.04808e-18)
(-0.277799 1.85558 0)
(-0.266288 1.89265 8.02937e-19)
(-0.251986 1.93426 0)
(-0.234334 1.98089 6.81308e-19)
(-0.213412 2.03226 1.24605e-18)
(-0.189488 2.08765 -5.65416e-19)
(-0.163036 2.14565 5.10986e-19)
(-0.134784 2.20449 -9.24517e-19)
(-0.105611 2.26239 8.3425e-19)
(-0.0764808 2.31779 -6.75964e-18)
(-0.0482394 2.36936 5.48697e-18)
(-0.021507 2.41636 0)
(0.00301604 2.45864 4.57123e-18)
(0.0251915 2.49641 -3.2367e-18)
(0.0451101 2.52996 0)
(0.0626164 2.55973 0)
(0.0777589 2.5862 4.53913e-19)
(0.090677 2.60976 0)
(0.101536 2.63078 -4.09971e-19)
(0.110514 2.64967 0)
(0.117805 2.6668 -2.59232e-18)
(0.123611 2.68254 2.84816e-18)
(0.128129 2.69719 -6.76512e-19)
(0.131541 2.71103 6.38689e-19)
(0.134005 2.72426 0)
(0.135654 2.73705 -5.78006e-19)
(0.136595 2.74955 5.49995e-19)
(0.136912 2.76185 5.28053e-19)
(0.136668 2.77404 -4.46043e-21)
(0.13591 2.78619 0)
(0.134669 2.79835 1.34796e-18)
(0.132965 2.81057 -2.81369e-20)
(0.13081 2.82288 -1.67019e-18)
(0.128208 2.83531 7.86903e-19)
(0.125156 2.84789 -7.45539e-19)
(0.121647 2.86065 7.33068e-19)
(0.117667 2.8736 -1.36881e-18)
(0.113201 2.88677 1.9824e-18)
(0.108231 2.90017 -1.91354e-18)
(0.102735 2.91382 -1.80424e-18)
(0.0966865 2.92773 1.1799e-18)
(0.0900528 2.94192 -5.62063e-19)
(0.0828023 2.95638 -2.10919e-18)
(0.0749011 2.97114 1.05075e-18)
(0.0663113 2.98619 -4.54794e-19)
(0.0569907 3.00153 2.86809e-18)
(0.0468944 3.01717 1.43259e-20)
(0.0359754 3.03309 -1.4235e-20)
(0.0241853 3.04929 -1.61428e-18)
(0.011474 3.06576 1.57118e-18)
(-0.00201271 3.08223 -2.28327e-18)
(-0.0158871 3.09824 -1.37501e-18)
(-0.0299062 3.11356 2.03862e-18)
(-0.0440203 3.12824 -1.22949e-18)
(-0.0581905 3.14232 2.93778e-18)
(-0.0723527 3.15593 -8.51837e-19)
(-0.0864661 3.16918 9.85588e-19)
(-0.100541 3.18204 -9.85232e-19)
(-0.114579 3.19442 -1.09294e-18)
(-0.128568 3.20636 6.53799e-19)
(-0.142501 3.21789 5.57703e-19)
(-0.156366 3.22904 -9.27408e-19)
(-0.170141 3.23985 -1.62364e-19)
(-0.183797 3.25032 2.74428e-19)
(-0.197301 3.26046 -1.21816e-18)
(-0.210618 3.27028 5.09436e-19)
(-0.223726 3.2798 1.08665e-19)
(-0.236613 3.28905 0)
(-0.249298 3.29809 -3.953e-20)
(-0.261763 3.30704 2.57829e-19)
(-0.274051 3.31596 -2.81005e-19)
(-0.286237 3.32493 -1.55479e-19)
(-0.298282 3.33393 3.24159e-19)
(-0.310177 3.34295 -1.42751e-19)
(-0.321916 3.35193 9.56896e-20)
(-0.333484 3.36083 -8.9697e-20)
(-0.34486 3.36956 -6.07162e-20)
(-0.356018 3.37806 4.2172e-20)
(-0.366928 3.38624 -1.5387e-20)
(-0.377559 3.39399 2.74632e-20)
(-0.387879 3.40126 0)
(-0.397859 3.40795 3.63741e-21)
(-0.407474 3.41402 0)
(-0.416703 3.41941 -5.15313e-21)
(-0.167108 1.54398 9.50856e-17)
(-0.347726 1.5742 -2.96265e-16)
(-0.317819 1.57736 -3.32192e-18)
(-0.318588 1.57911 7.33747e-17)
(-0.319999 1.58313 0)
(-0.321359 1.58806 -1.03679e-18)
(-0.322773 1.59348 -2.49671e-17)
(-0.324258 1.59925 3.19116e-20)
(-0.325798 1.60532 1.57682e-17)
(-0.327384 1.61168 9.15599e-19)
(-0.329011 1.61834 1.23491e-17)
(-0.330674 1.62531 -2.24698e-20)
(-0.332362 1.6326 -2.25726e-17)
(-0.334059 1.64027 1.00128e-17)
(-0.335741 1.64839 -1.14938e-17)
(-0.337367 1.65707 1.17711e-17)
(-0.33888 1.66647 0)
(-0.340194 1.67678 -1.536e-18)
(-0.341188 1.68826 1.55722e-18)
(-0.341715 1.70123 -1.55184e-18)
(-0.341626 1.71606 2.40898e-17)
(-0.340696 1.73313 -2.29715e-17)
(-0.338748 1.75277 0)
(-0.335605 1.77526 0)
(-0.331076 1.80074 1.12864e-18)
(-0.324972 1.82919 0)
(-0.31699 1.86055 9.01446e-19)
(-0.306817 1.89521 1.20046e-17)
(-0.294344 1.93356 -1.30123e-17)
(-0.279138 1.97598 1.32774e-18)
(-0.260743 2.02265 1.22531e-18)
(-0.239342 2.07314 1.00709e-17)
(-0.215246 2.12673 -9.21937e-18)
(-0.18895 2.18216 9.26563e-19)
(-0.161152 2.23788 -7.55267e-18)
(-0.132667 2.2924 6.12707e-18)
(-0.104357 2.34443 0)
(-0.07691 2.39289 4.41747e-18)
(-0.0510138 2.43735 -4.67364e-18)
(-0.0270892 2.47781 -5.43403e-19)
(-0.00517957 2.51439 0)
(0.0145817 2.54737 0)
(0.0320863 2.5771 2.72944e-18)
(0.0473556 2.60388 -3.49984e-18)
(0.0604713 2.62801 -8.31715e-19)
(0.0715442 2.64981 -7.92338e-19)
(0.0807169 2.66962 7.49606e-19)
(0.0881591 2.68777 2.13298e-18)
(0.0940535 2.70458 -2.75091e-18)