/*--------------------------------*- C++ -*----------------------------------*\
  =========                 |
  \\      /  F ield         | OpenFOAM: The Open Source CFD Toolbox
   \\    /   O peration     | Website:  https://openfoam.org
    \\  /    A nd           | Version:  10
     \\/     M anipulation  |
\*---------------------------------------------------------------------------*/
FoamFile
{
    format      ascii;
    class       volScalarField;
    location    "77000";
    object      yPlus;
}
// * * * * * * * * * * * * * * * * * * * * * * * * * * * * * * * * * * * * * //

dimensions      [0 0 0 0 0 0 0];

internalField   uniform 0;

boundaryField
{
    right
    {
        type            cyclic;
    }
    left
    {
        type            cyclic;
    }
    outerWall
    {
        type            calculated;
        value           nonuniform List<scalar> 0();
    }
    stirrerWall
    {
        type            calculated;
        value           nonuniform List<scalar> 
398
(
0.604098
0.406575
0.255475
0.178784
0.145097
0.129477
0.121451
0.116811
0.114239
0.113313
0.113945
0.116076
0.119639
0.124514
0.130614
0.137905
0.146376
0.155792
0.1661
0.177108
0.188801
0.201086
0.213766
0.226679
0.239678
0.252522
0.26503
0.276998
0.288159
0.298149
0.306656
0.313898
0.319712
0.323861
0.326489
0.327761
0.327863
0.326796
0.325111
0.323202
0.320391
0.314872
0.306151
0.29587
0.28538
0.273926
0.262471
0.251135
0.239751
0.228649
0.217748
0.207224
0.197121
0.187428
0.17811
0.169096
0.16024
0.151633
0.143389
0.135541
0.128086
0.120995
0.114241
0.107774
0.101614
0.0956262
0.0897696
0.0841333
0.0784994
0.0731225
0.0679157
0.0630589
0.0588437
0.0554302
0.0526499
0.0499092
0.0460419
0.0394791
0.0286899
0.00828045
0.00828045
0.0220761
0.00951493
0.013549
0.017287
0.0226086
0.0279349
0.0326103
0.0360415
0.0383917
0.0397948
0.0403778
0.040286
0.0396567
0.0386076
0.0372349
0.0356186
0.0337788
0.0319149
0.0300109
0.0282047
0.0265623
0.0250281
0.0235912
0.0222501
0.0210117
0.0199126
0.0190018
0.0183417
0.0180204
0.0181625
0.0190712
0.0210363
0.0240602
0.028025
0.0326538
0.0376211
0.0426595
0.0476967
0.052691
0.0577719
0.0628856
0.0681037
0.0734191
0.0790917
0.0849213
0.0909238
0.0975872
0.106334
0.117867
0.131833
0.149314
0.170122
0.194075
0.222243
0.25567
0.293985
0.33701
0.384693
0.436989
0.493908
0.555787
0.623417
0.697956
0.780688
0.872973
0.976948
1.09628
1.23584
1.40165
1.59931
1.83319
2.10514
2.41299
2.74937
3.09385
3.42319
3.72796
4.00284
4.25318
4.47109
4.65918
4.82125
4.96055
5.08105
5.1866
5.28064
5.36778
5.45233
5.53727
5.62402
5.7129
5.80445
5.89715
5.98508
6.05902
6.12286
6.17965
6.22582
6.26148
6.27854
6.28773
6.29025
6.28574
6.27374
6.25395
6.22653
6.19193
6.14838
6.09525
6.03236
5.95951
5.8764
5.78271
5.67806
5.56215
5.43461
5.29665
5.1554
5.00717
4.8502
4.68383
4.50817
4.32371
4.13116
3.93161
3.72665
3.51826
0.0338588
0.0396885
0.025997
0.0296431
0.0593742
0.131281
0.233751
0.330839
0.405561
0.453836
0.478365
0.482555
0.469689
0.439979
0.397146
0.353457
0.320565
0.288636
0.255633
0.222441
0.190755
0.161805
0.136134
0.11378
0.0944642
0.0781559
0.0653136
0.0556115
0.048856
0.0514544
0.0880109
0.205091
0.384785
0.501623
0.550123
0.554599
0.529887
0.513494
0.531276
0.579515
0.644141
0.707564
0.761901
0.808107
0.854166
0.916458
1.04044
1.27523
1.8358
3.50412
6.26574
9.23025
11.1637
11.4143
11.1581
10.8506
11.2845
11.6451
12.2484
12.5301
11.4785
12.9811
11.528
11.7411
11.5825
11.2643
11.7456
12.0764
11.5651
11.8627
12.1621
12.4624
12.7641
13.0679
13.3718
13.6679
13.9516
14.2244
14.4872
14.741
14.9867
15.2253
15.4575
15.6842
15.9061
16.1245
16.3405
16.556
16.7705
16.9837
17.1962
17.4083
17.6204
17.8329
18.0461
18.2602
18.4757
18.6927
18.9118
19.1337
19.3582
19.5853
19.8155
20.049
20.2863
20.5275
20.7733
21.0238
21.2796
21.5411
0.0338588
0.10147
0.158554
0.221563
0.227048
0.214495
0.200983
0.190178
0.226729
0.280054
0.349628
0.436339
0.540987
0.663586
0.802294
0.954482
1.11785
1.28959
1.46666
1.64643
1.82694
2.00697
2.18579
2.3638
2.54317
2.72974
2.91288
3.08674
3.25311
3.41391
3.56744
3.71566
3.85993
4.00179
4.14773
4.30119
4.45185
4.61094
4.78703
4.9328
5.07156
5.2352
5.43058
5.66939
5.95525
6.3197
6.80297
7.46364
8.39593
9.40384
10.5196
11.3261
10.1295
10.0259
10.0663
11.2099
11.4831
11.6828
10.5405
11.5277
11.6301
10.5195
11.6827
11.868
10.6644
11.8862
11.97
11.844
11.6343
10.2782
9.90227
12.0626
10.0282
11.1418
11.1255
7.34687
2.94256
1.14669
0.849414
0.763294
)
;
    }
    top
    {
        type            empty;
    }
    bottom
    {
        type            empty;
    }
    procBoundary1to0
    {
        type            processor;
        value           uniform 0;
    }
}


// ************************************************************************* //
