/*--------------------------------*- C++ -*----------------------------------*\
  =========                 |
  \\      /  F ield         | OpenFOAM: The Open Source CFD Toolbox
   \\    /   O peration     | Website:  https://openfoam.org
    \\  /    A nd           | Version:  10
     \\/     M anipulation  |
\*---------------------------------------------------------------------------*/
FoamFile
{
    format      ascii;
    class       surfaceScalarField;
    location    "18000";
    object      phi;
}
// * * * * * * * * * * * * * * * * * * * * * * * * * * * * * * * * * * * * * //

dimensions      [0 3 -1 0 0 0 0];

internalField   nonuniform List<scalar> 
35536
(
4.86913e-09
-3.22022e-07
2.00943e-08
-1.33315e-07
6.54582e-08
-3.72811e-08
1.35465e-07
5.4974e-08
2.27531e-07
1.52553e-07
3.32462e-07
2.5766e-07
4.36119e-07
3.64176e-07
5.28425e-07
4.62215e-07
6.06169e-07
5.45963e-07
6.70169e-07
6.14942e-07
7.22383e-07
6.7163e-07
7.65112e-07
7.18823e-07
8.00728e-07
7.58908e-07
8.31229e-07
7.93974e-07
8.58116e-07
8.25643e-07
8.82449e-07
8.55073e-07
9.04962e-07
8.83054e-07
9.26162e-07
9.10109e-07
9.46398e-07
9.36587e-07
9.65918e-07
9.62716e-07
9.84897e-07
9.88652e-07
1.00346e-06
1.0145e-06
1.0217e-06
1.04031e-06
1.03968e-06
1.06614e-06
1.05744e-06
1.092e-06
1.07503e-06
1.11791e-06
1.09247e-06
1.14385e-06
1.10976e-06
1.16982e-06
1.12693e-06
1.1958e-06
1.14396e-06
1.22176e-06
1.16087e-06
1.24766e-06
1.17765e-06
1.27348e-06
1.19429e-06
1.29916e-06
1.21079e-06
1.32466e-06
1.22712e-06
1.34993e-06
1.2433e-06
1.3749e-06
1.25929e-06
1.39952e-06
1.27509e-06
1.42371e-06
1.29068e-06
1.4474e-06
1.30605e-06
1.4705e-06
1.32118e-06
1.49295e-06
1.33606e-06
1.51463e-06
1.35067e-06
1.53545e-06
1.36499e-06
1.5553e-06
1.37901e-06
1.57407e-06
1.39271e-06
1.59164e-06
1.40608e-06
1.60788e-06
1.4191e-06
1.62264e-06
1.43175e-06
1.63578e-06
1.44401e-06
1.64713e-06
1.45588e-06
1.65653e-06
1.46732e-06
1.66378e-06
1.47833e-06
1.6687e-06
1.48888e-06
1.67107e-06
1.49895e-06
1.67066e-06
1.50852e-06
1.66725e-06
1.51756e-06
1.66056e-06
1.52604e-06
1.65032e-06
1.53395e-06
1.63624e-06
1.54123e-06
1.618e-06
1.54786e-06
1.59525e-06
1.5538e-06
1.56764e-06
1.55898e-06
1.53478e-06
1.56336e-06
1.49625e-06
1.56687e-06
1.45159e-06
1.56944e-06
1.40034e-06
1.57097e-06
1.34197e-06
1.57136e-06
1.27593e-06
1.57049e-06
1.20162e-06
1.56823e-06
1.1184e-06
1.5644e-06
1.02557e-06
1.5588e-06
9.22371e-07
1.55121e-06
8.07986e-07
1.54136e-06
6.81505e-07
1.52929e-06
5.28917e-07
1.51529e-06
3.67143e-07
1.49939e-06
2.17284e-07
1.4816e-06
7.85174e-08
1.46193e-06
-4.99458e-08
1.4404e-06
-1.68865e-07
1.41704e-06
-2.7896e-07
1.39186e-06
-3.8092e-07
1.36493e-06
-4.754e-07
1.33629e-06
-5.63021e-07
1.30602e-06
-6.44369e-07
1.27423e-06
-7.19994e-07
1.24106e-06
-7.90405e-07
1.20665e-06
-8.56052e-07
1.17119e-06
-9.17277e-07
1.13484e-06
-9.74312e-07
1.0978e-06
-1.02734e-06
1.06025e-06
-1.07655e-06
1.02238e-06
-1.12208e-06
9.84392e-07
-1.16411e-06
9.46494e-07
-1.20275e-06
9.08883e-07
-1.23815e-06
8.71758e-07
-1.27041e-06
8.35311e-07
-1.29963e-06
7.99727e-07
-1.32591e-06
-1.34935e-06
1.01556e-09
-3.23038e-07
9.48078e-09
-1.4178e-07
4.23526e-08
-7.0153e-08
9.66013e-08
7.25326e-10
1.73091e-07
7.60642e-08
2.70347e-07
1.60404e-07
3.80004e-07
2.54519e-07
4.89402e-07
3.52818e-07
5.88636e-07
4.46729e-07
6.73671e-07
5.29908e-07
7.45093e-07
6.00208e-07
8.04528e-07
6.59388e-07
8.53748e-07
7.09689e-07
8.94838e-07
7.52884e-07
9.2978e-07
7.907e-07
9.60213e-07
8.24641e-07
9.87379e-07
8.55888e-07
1.01218e-06
8.85308e-07
1.03526e-06
9.13508e-07
1.05707e-06
9.40906e-07
1.07794e-06
9.67787e-07
1.09809e-06
9.94343e-07
1.1177e-06
1.0207e-06
1.13688e-06
1.04695e-06
1.15573e-06
1.07315e-06
1.17431e-06
1.09932e-06
1.19268e-06
1.12549e-06
1.21085e-06
1.15165e-06
1.22886e-06
1.17779e-06
1.24672e-06
1.20389e-06
1.26445e-06
1.22994e-06
1.28203e-06
1.25589e-06
1.29948e-06
1.28171e-06
1.31678e-06
1.30736e-06
1.33394e-06
1.33277e-06
1.35094e-06
1.3579e-06
1.36777e-06
1.38269e-06
1.38442e-06
1.40706e-06
1.40087e-06
1.43094e-06
1.41711e-06
1.45426e-06
1.43313e-06
1.47693e-06
1.4489e-06
1.49885e-06
1.46441e-06
1.51993e-06
1.47965e-06
1.54007e-06
1.49458e-06
1.55913e-06
1.50921e-06
1.57702e-06
1.5235e-06
1.59359e-06
1.53745e-06
1.6087e-06
1.55102e-06
1.62221e-06
1.5642e-06
1.63395e-06
1.57697e-06
1.64376e-06
1.58931e-06
1.65144e-06
1.60119e-06
1.65681e-06
1.61259e-06
1.65966e-06
1.6235e-06
1.65976e-06
1.63388e-06
1.65687e-06
1.6437e-06
1.65074e-06
1.65293e-06
1.64109e-06
1.66155e-06
1.62762e-06
1.66951e-06
1.61004e-06
1.67677e-06
1.58799e-06
1.68329e-06
1.56112e-06
1.68902e-06
1.52905e-06
1.69389e-06
1.49137e-06
1.69784e-06
1.44764e-06
1.70079e-06
1.39738e-06
1.70266e-06
1.3401e-06
1.70334e-06
1.27525e-06
1.70271e-06
1.20225e-06
1.70063e-06
1.12047e-06
1.69695e-06
1.02925e-06
1.69147e-06
9.27853e-07
1.68396e-06
8.1549e-07
1.67417e-06
6.91294e-07
1.66217e-06
5.40924e-07
1.64823e-06
3.81076e-07
1.6324e-06
2.33114e-07
1.6147e-06
9.62227e-08
1.59513e-06
-3.03815e-08
1.57372e-06
-1.47456e-07
1.55048e-06
-2.55721e-07
1.52544e-06
-3.55872e-07
1.49861e-06
-4.4857e-07
1.47003e-06
-5.3445e-07
1.43978e-06
-6.14112e-07
1.40791e-06
-6.88127e-07
1.37454e-06
-7.57031e-07
1.33979e-06
-8.21302e-07
1.30381e-06
-8.81302e-07
1.26678e-06
-9.37276e-07
1.22885e-06
-9.89417e-07
1.19021e-06
-1.03791e-06
1.15104e-06
-1.08292e-06
1.11154e-06
-1.12461e-06
1.0719e-06
-1.16311e-06
1.03232e-06
-1.19857e-06
9.92989e-07
-1.23108e-06
9.54093e-07
-1.26074e-06
9.15876e-07
-1.2877e-06
-1.31209e-06
-8.23607e-10
-3.22214e-07
3.39463e-09
-1.45999e-07
2.54088e-08
-9.2167e-08
6.42609e-08
-3.81266e-08
1.21704e-07
1.86209e-08
2.00165e-07
8.19436e-08
2.99022e-07
1.55662e-07
4.11407e-07
2.40433e-07
5.2613e-07
3.32007e-07
6.32969e-07
4.23068e-07
7.26669e-07
5.06508e-07
8.0666e-07
5.79397e-07
8.74311e-07
6.42038e-07
9.31186e-07
6.9601e-07
9.78949e-07
7.42937e-07
1.01942e-06
7.84166e-07
1.05431e-06
8.21006e-07
1.085e-06
8.54609e-07
1.11261e-06
8.85904e-07
1.13793e-06
9.15589e-07
1.16155e-06
9.44166e-07
1.1839e-06
9.7199e-07
1.20529e-06
9.99308e-07
1.22596e-06
1.02629e-06
1.24606e-06
1.05305e-06
1.26571e-06
1.07967e-06
1.28502e-06
1.10618e-06
1.30404e-06
1.13263e-06
1.32282e-06
1.15901e-06
1.3414e-06
1.18532e-06
1.3598e-06
1.21154e-06
1.37803e-06
1.23766e-06
1.39611e-06
1.26363e-06
1.41404e-06
1.28943e-06
1.43182e-06
1.315e-06
1.44944e-06
1.34028e-06
1.46689e-06
1.36523e-06
1.48416e-06
1.38978e-06
1.50125e-06
1.41386e-06
1.51814e-06
1.43738e-06
1.53481e-06
1.46026e-06
1.55124e-06
1.48242e-06
1.56742e-06
1.50375e-06
1.58333e-06
1.52415e-06
1.59896e-06
1.54351e-06
1.61427e-06
1.56171e-06
1.62925e-06
1.5786e-06
1.64388e-06
1.59407e-06
1.65814e-06
1.60795e-06
1.672e-06
1.62009e-06
1.68545e-06
1.63031e-06
1.69845e-06
1.63844e-06
1.71099e-06
1.64428e-06
1.72303e-06
1.64762e-06
1.73456e-06
1.64824e-06
1.74553e-06
1.6459e-06
1.75593e-06
1.64034e-06
1.76571e-06
1.6313e-06
1.77484e-06
1.61849e-06
1.78329e-06
1.60159e-06
1.791e-06
1.58028e-06
1.79793e-06
1.55419e-06
1.80402e-06
1.52296e-06
1.80923e-06
1.48617e-06
1.81346e-06
1.4434e-06
1.81666e-06
1.39419e-06
1.81872e-06
1.33803e-06
1.81956e-06
1.27441e-06
1.81905e-06
1.20276e-06
1.81705e-06
1.12247e-06
1.81341e-06
1.03289e-06
1.80795e-06
9.33316e-07
1.80044e-06
8.22992e-07
1.79065e-06
7.01088e-07
1.77864e-06
5.52931e-07
1.76473e-06
3.94993e-07
1.74894e-06
2.489e-07
1.73131e-06
1.1385e-07
1.71186e-06
-1.09324e-08
1.69061e-06
-1.26199e-07
1.66755e-06
-2.32668e-07
1.64271e-06
-3.31033e-07
1.61611e-06
-4.21961e-07
1.58775e-06
-5.06093e-07
1.55768e-06
-5.84043e-07
1.52595e-06
-6.56395e-07
1.49262e-06
-7.23707e-07
1.45781e-06
-7.86486e-07
1.42163e-06
-8.45125e-07
1.38424e-06
-8.99888e-07
1.3458e-06
-9.50976e-07
1.30648e-06
-9.98582e-07
1.26644e-06
-1.04288e-06
1.22588e-06
-1.08405e-06
1.18499e-06
-1.12222e-06
1.14394e-06
-1.15752e-06
1.10292e-06
-1.19006e-06
1.0621e-06
-1.21992e-06
1.02171e-06
-1.24731e-06
-1.27243e-06
-1.648e-09
-3.20567e-07
-6.55764e-10
-1.46991e-07
1.29659e-08
-1.05789e-07
3.909e-08
-6.4251e-08
7.94724e-08
-2.17617e-08
1.36736e-07
2.46803e-08
2.13833e-07
7.85641e-08
3.11248e-07
1.43019e-07
4.24126e-07
2.19128e-07
5.43054e-07
3.0414e-07
6.5754e-07
3.92022e-07
7.60731e-07
4.76206e-07
8.50407e-07
5.52362e-07
9.27361e-07
6.19056e-07
9.93051e-07
6.77247e-07
1.04885e-06
7.28371e-07
1.09624e-06
7.73611e-07
1.13684e-06
8.14011e-07
1.17214e-06
8.50605e-07
1.2034e-06
8.84325e-07
1.23163e-06
9.15942e-07
1.25756e-06
9.46051e-07
1.28178e-06
9.75092e-07
1.30469e-06
1.00338e-06
1.3266e-06
1.03114e-06
1.34774e-06
1.05853e-06
1.36828e-06
1.08565e-06
1.38834e-06
1.11257e-06
1.40801e-06
1.13933e-06
1.42737e-06
1.16596e-06
1.44647e-06
1.19244e-06
1.46534e-06
1.21879e-06
1.484e-06
1.24497e-06
1.50248e-06
1.27095e-06
1.52078e-06
1.2967e-06
1.5389e-06
1.32216e-06
1.55685e-06
1.34729e-06
1.57461e-06
1.37202e-06
1.59219e-06
1.39628e-06
1.60956e-06
1.42001e-06
1.62671e-06
1.44311e-06
1.64364e-06
1.4655e-06
1.66031e-06
1.48708e-06
1.67672e-06
1.50775e-06
1.69284e-06
1.52739e-06
1.70866e-06
1.54589e-06
1.72414e-06
1.56312e-06
1.73928e-06
1.57893e-06
1.75403e-06
1.59319e-06
1.76839e-06
1.60573e-06
1.78233e-06
1.61638e-06
1.79581e-06
1.62496e-06
1.80882e-06
1.63127e-06
1.82131e-06
1.63512e-06
1.83328e-06
1.63627e-06
1.84467e-06
1.6345e-06
1.85547e-06
1.62955e-06
1.86562e-06
1.62115e-06
1.8751e-06
1.60901e-06
1.88387e-06
1.59283e-06
1.89187e-06
1.57228e-06
1.89906e-06
1.547e-06
1.90537e-06
1.51664e-06
1.91076e-06
1.48078e-06
1.91515e-06
1.43902e-06
1.91845e-06
1.39088e-06
1.92059e-06
1.33589e-06
1.92147e-06
1.27354e-06
1.92096e-06
1.20327e-06
1.91893e-06
1.1245e-06
1.91523e-06
1.03658e-06
1.90969e-06
9.38856e-07
1.9021e-06
8.30584e-07
1.89222e-06
7.10974e-07
1.88013e-06
5.65016e-07
1.86616e-06
4.08959e-07
1.85037e-06
2.64697e-07
1.83278e-06
1.31442e-07
1.81341e-06
8.42928e-09
1.7923e-06
-1.05081e-07
1.76943e-06
-2.09804e-07
1.74483e-06
-3.06429e-07
1.71849e-06
-3.95622e-07
1.69042e-06
-4.78026e-07
1.66064e-06
-5.54263e-07
1.62918e-06
-6.24927e-07
1.59606e-06
-6.90592e-07
1.56137e-06
-7.5179e-07
1.5252e-06
-8.08955e-07
1.48769e-06
-8.62378e-07
1.44898e-06
-9.12273e-07
1.40924e-06
-9.58842e-07
1.36863e-06
-1.00228e-06
1.32734e-06
-1.04275e-06
1.28554e-06
-1.08042e-06
1.24343e-06
-1.11541e-06
1.2012e-06
-1.14783e-06
1.15904e-06
-1.17775e-06
1.11711e-06
-1.20538e-06
1.07563e-06
-1.23095e-06
1.03487e-06
-1.25449e-06
9.95097e-07
-1.27585e-06
9.56544e-07
-1.29488e-06
-1.31147e-06
-2.12874e-09
-3.18438e-07
-3.72462e-09
-1.45394e-07
3.88281e-09
-1.13395e-07
2.07686e-08
-8.1136e-08
4.80685e-08
-4.90611e-08
8.77889e-08
-1.50397e-08
1.42603e-07
2.37502e-08
2.15772e-07
6.98498e-08
3.09043e-07
1.25858e-07
4.1976e-07
1.93424e-07
5.40388e-07
2.71394e-07
6.61202e-07
3.55392e-07
7.73931e-07
4.39634e-07
8.74221e-07
5.18766e-07
9.61403e-07
5.90065e-07
1.03683e-06
6.52945e-07
1.10182e-06
7.08625e-07
1.1575e-06
7.58324e-07
1.20524e-06
8.02873e-07
1.24645e-06
8.43113e-07
1.2825e-06
8.79895e-07
1.31454e-06
9.14004e-07
1.34353e-06
9.46108e-07
1.37017e-06
9.76734e-07
1.39503e-06
1.00628e-06
1.41852e-06
1.03504e-06
1.44095e-06
1.06322e-06
1.46254e-06
1.09097e-06
1.48348e-06
1.11839e-06
1.50389e-06
1.14554e-06
1.52388e-06
1.17246e-06
1.54351e-06
1.19916e-06
1.56284e-06
1.22564e-06
1.58191e-06
1.25188e-06
1.60074e-06
1.27787e-06
1.61935e-06
1.30355e-06
1.63775e-06
1.32889e-06
1.65594e-06
1.35383e-06
1.67392e-06
1.3783e-06
1.69169e-06
1.40224e-06
1.70923e-06
1.42557e-06
1.72653e-06
1.44819e-06
1.74358e-06
1.47003e-06
1.76036e-06
1.49097e-06
1.77686e-06
1.5109e-06
1.79304e-06
1.52971e-06
1.80889e-06
1.54727e-06
1.82438e-06
1.56344e-06
1.83949e-06
1.57808e-06
1.8542e-06
1.59102e-06
1.86847e-06
1.6021e-06
1.88229e-06
1.61114e-06
1.89561e-06
1.61795e-06
1.90842e-06
1.62231e-06
1.92067e-06
1.62402e-06
1.93234e-06
1.62283e-06
1.94339e-06
1.6185e-06
1.95378e-06
1.61076e-06
1.96347e-06
1.59932e-06
1.97242e-06
1.58388e-06
1.98058e-06
1.56412e-06
1.98789e-06
1.53969e-06
1.99431e-06
1.51022e-06
1.99976e-06
1.47533e-06
2.00418e-06
1.4346e-06
2.00748e-06
1.38757e-06
2.00959e-06
1.33379e-06
2.0104e-06
1.27273e-06
2.00979e-06
1.20388e-06
2.00764e-06
1.12665e-06
2.00379e-06
1.04043e-06
1.99809e-06
9.44563e-07
1.99032e-06
8.38352e-07
1.98026e-06
7.21037e-07
1.96801e-06
5.77261e-07
1.95392e-06
4.23049e-07
1.93805e-06
2.80574e-07
1.92043e-06
1.49061e-07
1.9011e-06
2.7759e-08
1.88007e-06
-8.40587e-08
1.85737e-06
-1.87099e-07
1.83298e-06
-2.82043e-07
1.80691e-06
-3.69553e-07
1.77916e-06
-4.50271e-07
1.74971e-06
-5.24819e-07
1.71859e-06
-5.93799e-07
1.68579e-06
-6.57792e-07
1.65135e-06
-7.17353e-07
1.61535e-06
-7.72956e-07
1.5779e-06
-8.24931e-07
1.53914e-06
-8.73513e-07
1.49921e-06
-9.18914e-07
1.45828e-06
-9.6134e-07
1.41651e-06
-1.00098e-06
1.37409e-06
-1.038e-06
1.33122e-06
-1.07254e-06
1.28811e-06
-1.10472e-06
1.24495e-06
-1.13459e-06
1.20191e-06
-1.16233e-06
1.15911e-06
-1.18816e-06
1.11679e-06
-1.21217e-06
1.07521e-06
-1.23426e-06
1.0346e-06
-1.25428e-06
-1.27208e-06
-2.40853e-09
-3.16029e-07
-5.6826e-09
-1.42121e-07
-1.99753e-09
-1.17082e-07
8.58015e-09
-9.17145e-08
2.65528e-08
-6.70343e-08
5.33737e-08
-4.18609e-08
9.09477e-08
-1.3824e-08
1.41776e-07
1.90214e-08
2.09139e-07
5.84939e-08
2.95842e-07
1.06721e-07
4.01367e-07
1.6587e-07
5.20528e-07
2.36231e-07
6.45067e-07
3.15095e-07
7.66063e-07
3.97769e-07
8.77053e-07
4.79076e-07
9.75354e-07
5.54644e-07
1.06124e-06
6.22734e-07
1.13613e-06
6.83434e-07
1.20116e-06
7.37852e-07
1.25732e-06
7.86949e-07
1.30583e-06
8.3139e-07
1.34796e-06
8.71866e-07
1.38498e-06
9.09094e-07
1.41796e-06
9.43751e-07
1.44781e-06
9.76432e-07
1.47523e-06
1.00762e-06
1.50078e-06
1.03768e-06
1.52486e-06
1.06689e-06
1.5478e-06
1.09545e-06
1.56984e-06
1.1235e-06
1.59115e-06
1.15114e-06
1.61188e-06
1.17843e-06
1.63213e-06
1.20539e-06
1.65198e-06
1.23204e-06
1.67148e-06
1.25837e-06
1.69067e-06
1.28436e-06
1.70958e-06
1.30998e-06
1.72822e-06
1.33518e-06
1.74662e-06
1.3599e-06
1.76477e-06
1.38409e-06
1.78266e-06
1.40767e-06
1.8003e-06
1.43056e-06
1.81766e-06
1.45266e-06
1.83474e-06
1.47388e-06
1.85152e-06
1.49412e-06
1.86798e-06
1.51325e-06
1.8841e-06
1.53115e-06
1.89985e-06
1.54769e-06
1.91522e-06
1.56271e-06
1.93016e-06
1.57607e-06
1.94467e-06
1.5876e-06
1.9587e-06
1.59711e-06
1.97223e-06
1.60442e-06
1.98523e-06
1.60932e-06
1.99766e-06
1.61159e-06
2.00948e-06
1.61101e-06
2.02067e-06
1.60731e-06
2.03118e-06
1.60025e-06
2.04096e-06
1.58953e-06
2.04998e-06
1.57486e-06
2.05819e-06
1.55591e-06
2.06552e-06
1.53235e-06
2.07193e-06
1.50382e-06
2.07735e-06
1.46992e-06
2.0817e-06
1.43024e-06
2.08491e-06
1.38436e-06
2.0869e-06
1.3318e-06
2.08755e-06
1.27208e-06
2.08676e-06
1.20467e-06
2.08441e-06
1.129e-06
2.08034e-06
1.0445e-06
2.07438e-06
9.50514e-07
2.06636e-06
8.46375e-07
2.05604e-06
7.31355e-07
2.04356e-06
5.89741e-07
2.02928e-06
4.37338e-07
2.01325e-06
2.96602e-07
1.99554e-06
1.66774e-07
1.97617e-06
4.71198e-08
1.95519e-06
-6.30744e-08
1.93259e-06
-1.64504e-07
1.90839e-06
-2.57838e-07
1.88257e-06
-3.43734e-07
1.85513e-06
-4.22826e-07
1.82604e-06
-4.95734e-07
1.79531e-06
-5.63062e-07
1.76291e-06
-6.25395e-07
1.72885e-06
-6.83298e-07
1.69318e-06
-7.37283e-07
1.65598e-06
-7.87733e-07
1.61738e-06
-8.34908e-07
1.5775e-06
-8.79033e-07
1.53648e-06
-9.20328e-07
1.49451e-06
-9.59002e-07
1.45174e-06
-9.9524e-07
1.4084e-06
-1.0292e-06
1.36468e-06
-1.061e-06
1.32082e-06
-1.09073e-06
1.27697e-06
-1.11849e-06
1.23325e-06
-1.14444e-06
1.1898e-06
-1.16873e-06
1.14687e-06
-1.19133e-06
1.1047e-06
-1.21211e-06
-1.23089e-06
-2.5255e-09
-3.13504e-07
-6.7599e-09
-1.37885e-07
-5.59194e-09
-1.18248e-07
8.67544e-10
-9.81729e-08
1.26189e-08
-7.87851e-08
3.05281e-08
-5.97697e-08
5.59549e-08
-3.92504e-08
9.06401e-08
-1.56635e-08
1.36765e-07
1.2369e-08
1.97344e-07
4.61426e-08
2.75754e-07
8.74597e-08
3.73322e-07
1.38664e-07
4.87455e-07
2.00962e-07
6.11864e-07
2.73361e-07
7.38352e-07
3.52589e-07
8.58965e-07
4.3403e-07
9.68649e-07
5.1305e-07
1.06582e-06
5.86265e-07
1.1512e-06
6.52466e-07
1.22616e-06
7.11989e-07
1.29169e-06
7.65862e-07
1.34869e-06
8.14869e-07
1.39822e-06
8.59561e-07
1.44146e-06
9.0051e-07
1.47957e-06
9.38328e-07
1.51357e-06
9.73615e-07
1.54434e-06
1.00691e-06
1.57258e-06
1.03865e-06
1.59882e-06
1.0692e-06
1.62351e-06
1.09882e-06
1.64696e-06
1.12769e-06
1.66943e-06
1.15596e-06
1.69109e-06
1.18372e-06
1.71211e-06
1.21102e-06
1.73258e-06
1.2379e-06
1.75258e-06
1.26436e-06
1.77218e-06
1.29038e-06
1.79142e-06
1.31594e-06
1.81033e-06
1.341e-06
1.82892e-06
1.3655e-06
1.8472e-06
1.38938e-06
1.86519e-06
1.41257e-06
1.88287e-06
1.43498e-06
1.90023e-06
1.45652e-06
1.91727e-06
1.47708e-06
1.93397e-06
1.49655e-06
1.9503e-06
1.51482e-06
1.96626e-06
1.53174e-06
1.9818e-06
1.54717e-06
1.99692e-06
1.56096e-06
2.01158e-06
1.57294e-06
2.02575e-06
1.58294e-06
2.0394e-06
1.59077e-06
2.0525e-06
1.59622e-06
2.06501e-06
1.59908e-06
2.07691e-06
1.59911e-06
2.08814e-06
1.59608e-06
2.09868e-06
1.58971e-06
2.10847e-06
1.57974e-06
2.11747e-06
1.56586e-06
2.12564e-06
1.54775e-06
2.13291e-06
1.52508e-06
2.13923e-06
1.4975e-06
2.14453e-06
1.46461e-06
2.14874e-06
1.42603e-06
2.15178e-06
1.38132e-06
2.15357e-06
1.33002e-06
2.154e-06
1.27165e-06
2.15297e-06
1.2057e-06
2.15034e-06
1.13163e-06
2.14598e-06
1.04886e-06
2.13972e-06
9.56771e-07
2.13139e-06
8.54714e-07
2.12075e-06
7.4199e-07
2.10797e-06
6.02521e-07
2.09342e-06
4.51889e-07
2.07718e-06
3.12844e-07
2.0593e-06
1.84646e-07
2.03985e-06
6.65743e-08
2.01884e-06
-4.20685e-08
1.9963e-06
-1.41964e-07
1.97224e-06
-2.3377e-07
1.94663e-06
-3.18131e-07
1.91948e-06
-3.95674e-07
1.89076e-06
-4.67013e-07
1.86045e-06
-5.32747e-07
1.82851e-06
-5.93462e-07
1.79494e-06
-6.49726e-07
1.75974e-06
-7.02078e-07
1.72296e-06
-7.50955e-07
1.6847e-06
-7.96656e-07
1.64509e-06
-8.39423e-07
1.60425e-06
-8.79487e-07
1.56233e-06
-9.17077e-07
1.51949e-06
-9.52397e-07
1.47591e-06
-9.85626e-07
1.43182e-06
-1.01691e-06
1.38744e-06
-1.04635e-06
1.34297e-06
-1.07402e-06
1.29856e-06
-1.10003e-06
1.25431e-06
-1.12447e-06
1.21039e-06
-1.14741e-06
1.16701e-06
-1.16873e-06
1.1244e-06
-1.18829e-06
-1.20592e-06
-2.57856e-09
-3.10925e-07
-7.34405e-09
-1.3312e-07
-7.70468e-09
-1.17888e-07
-3.80747e-09
-1.02071e-07
3.98463e-09
-8.65776e-08
1.61152e-08
-7.19005e-08
3.34301e-08
-5.65654e-08
5.71276e-08
-3.93612e-08
8.87456e-08
-1.92491e-08
1.30084e-07
4.80447e-09
1.83702e-07
3.3841e-08
2.53052e-07
6.93137e-08
3.40762e-07
1.13252e-07
4.46638e-07
1.67484e-07
5.66784e-07
2.32443e-07
6.94449e-07
3.06365e-07
8.21761e-07
3.85738e-07
9.41808e-07
4.66218e-07
1.05057e-06
5.43704e-07
1.14712e-06
6.15443e-07
1.23243e-06
6.8055e-07
1.30779e-06
7.39509e-07
1.37407e-06
7.93278e-07
1.43208e-06
8.42506e-07
1.48275e-06
8.87652e-07
1.52717e-06
9.29195e-07
1.56641e-06
9.67666e-07
1.60147e-06
1.0036e-06
1.63318e-06
1.03749e-06
1.66224e-06
1.06976e-06
1.6892e-06
1.10073e-06
1.71448e-06
1.13068e-06
1.73843e-06
1.15977e-06
1.7613e-06
1.18815e-06
1.78329e-06
1.21591e-06
1.80454e-06
1.2431e-06
1.82518e-06
1.26974e-06
1.84528e-06
1.29584e-06
1.86492e-06
1.32137e-06
1.88412e-06
1.3463e-06
1.90293e-06
1.37058e-06
1.92136e-06
1.39414e-06
1.93942e-06
1.41692e-06
1.95711e-06
1.43883e-06
1.97444e-06
1.45976e-06
1.99138e-06
1.47961e-06
2.00793e-06
1.49827e-06
2.02406e-06
1.5156e-06
2.03977e-06
1.53146e-06
2.05502e-06
1.54571e-06
2.06978e-06
1.55817e-06
2.08404e-06
1.56868e-06
2.09775e-06
1.57705e-06
2.1109e-06
1.58307e-06
2.12344e-06
1.58654e-06
2.13533e-06
1.58721e-06
2.14655e-06
1.58486e-06
2.15705e-06
1.57922e-06
2.16678e-06
1.57001e-06
2.1757e-06
1.55694e-06
2.18376e-06
1.53969e-06
2.1909e-06
1.51794e-06
2.19706e-06
1.49133e-06
2.20219e-06
1.45949e-06
2.2062e-06
1.42202e-06
2.20902e-06
1.3785e-06
2.21055e-06
1.32848e-06
2.21071e-06
1.27149e-06
2.20938e-06
1.20703e-06
2.20644e-06
1.13457e-06
2.20175e-06
1.05355e-06
2.19514e-06
9.63379e-07
2.18644e-06
8.63415e-07
2.17544e-06
7.52991e-07
2.16231e-06
6.1565e-07
2.14744e-06
4.66754e-07
2.13093e-06
3.29356e-07
2.11285e-06
2.02732e-07
2.09324e-06
8.61794e-08
2.07216e-06
-2.09838e-08
2.04962e-06
-1.19424e-07
2.02563e-06
-2.09786e-07
2.0002e-06
-2.927e-07
1.97331e-06
-3.68784e-07
1.94494e-06
-4.38639e-07
1.91505e-06
-5.0286e-07
1.88362e-06
-5.62027e-07
1.8506e-06
-6.16707e-07
1.81597e-06
-6.6745e-07
1.77976e-06
-7.14742e-07
1.74204e-06
-7.58937e-07
1.70291e-06
-8.00296e-07
1.66248e-06
-8.39062e-07
1.62088e-06
-8.75476e-07
1.57825e-06
-9.09764e-07
1.53475e-06
-9.42123e-07
1.49056e-06
-9.72717e-07
1.44589e-06
-1.00167e-06
1.40095e-06
-1.02908e-06
1.35593e-06
-1.05501e-06
1.31095e-06
-1.0795e-06
1.26617e-06
-1.10263e-06
1.22181e-06
-1.12436e-06
1.17807e-06
-1.14455e-06
1.1352e-06
-1.16305e-06
1.09337e-06
-1.17978e-06
-1.19478e-06
-2.58256e-09
-3.08343e-07
-7.57082e-09
-1.28131e-07
-8.81619e-09
-1.16642e-07
-6.37086e-09
-1.04515e-07
-9.1438e-10
-9.20339e-08
7.68064e-09
-8.04953e-08
1.99012e-08
-6.87857e-08
3.64886e-08
-5.59484e-08
5.84467e-08
-4.12072e-08
8.7069e-08
-2.38178e-08
1.2388e-07
-2.96999e-09
1.70979e-07
2.22151e-08
2.314e-07
5.28312e-08
3.08412e-07
9.04725e-08
4.03648e-07
1.37208e-07
5.15636e-07
1.94377e-07
6.39787e-07
2.61588e-07
7.693e-07
3.36705e-07
8.96785e-07
4.16219e-07
1.01616e-06
4.96065e-07
1.12416e-06
5.72553e-07
1.22031e-06
6.43363e-07
1.30574e-06
7.07846e-07
1.38164e-06
7.66602e-07
1.44878e-06
8.20513e-07
1.50785e-06
8.70122e-07
1.55971e-06
9.15809e-07
1.60533e-06
9.5798e-07
1.64573e-06
9.97096e-07
1.68184e-06
1.03364e-06
1.7145e-06
1.06808e-06
1.74438e-06
1.10079e-06
1.77204e-06
1.13211e-06
1.79791e-06
1.16228e-06
1.82234e-06
1.19149e-06
1.84558e-06
1.21986e-06
1.86785e-06
1.24747e-06
1.88929e-06
1.27439e-06
1.91003e-06
1.30062e-06
1.93016e-06
1.32617e-06
1.94974e-06
1.351e-06
1.96881e-06
1.37507e-06
1.9874e-06
1.39832e-06
2.00555e-06
1.42068e-06
2.02324e-06
1.44206e-06
2.0405e-06
1.46236e-06
2.05731e-06
1.48146e-06
2.07365e-06
1.49925e-06
2.08953e-06
1.51559e-06
2.10491e-06
1.53033e-06
2.11977e-06
1.54331e-06
2.13409e-06
1.55436e-06
2.14785e-06
1.56329e-06
2.16101e-06
1.56991e-06
2.17353e-06
1.57401e-06
2.18539e-06
1.57536e-06
2.19655e-06
1.57371e-06
2.20696e-06
1.56881e-06
2.21658e-06
1.56039e-06
2.22537e-06
1.54815e-06
2.23327e-06
1.53179e-06
2.24024e-06
1.51098e-06
2.2462e-06
1.48537e-06
2.25111e-06
1.45459e-06
2.25487e-06
1.41825e-06
2.25743e-06
1.37594e-06
2.25868e-06
1.32723e-06
2.25853e-06
1.27164e-06
2.25688e-06
1.20869e-06
2.25359e-06
1.13786e-06
2.24853e-06
1.05861e-06
2.24154e-06
9.70364e-07
2.23245e-06
8.72505e-07
2.22106e-06
7.64386e-07
2.20755e-06
6.29161e-07
2.19234e-06
4.81966e-07
2.17552e-06
3.46174e-07
2.15717e-06
2.21075e-07
2.13737e-06
1.05983e-07
2.11616e-06
2.3124e-10
2.09356e-06
-9.68297e-08
2.06961e-06
-1.85831e-07
2.04429e-06
-2.67389e-07
2.01762e-06
-3.42106e-07
1.98955e-06
-4.10574e-07
1.96006e-06
-4.73374e-07
1.92912e-06
-5.3108e-07
1.89667e-06
-5.84254e-07
1.86266e-06
-6.33447e-07
1.82709e-06
-6.79175e-07
1.79001e-06
-7.21854e-07
1.75149e-06
-7.61779e-07
1.71164e-06
-7.99204e-07
1.67054e-06
-8.34378e-07
1.62832e-06
-8.67541e-07
1.5851e-06
-8.98911e-07
1.54106e-06
-9.28669e-07
1.49634e-06
-9.56962e-07
1.45115e-06
-9.83894e-07
1.40568e-06
-1.00953e-06
1.36009e-06
-1.03391e-06
1.31455e-06
-1.05708e-06
1.26926e-06
-1.07908e-06
1.2245e-06
-1.09979e-06
1.18049e-06
-1.11904e-06
1.13742e-06
-1.1367e-06
1.09543e-06
-1.15279e-06
-1.16729e-06
-2.58737e-09
-3.05756e-07
-7.74392e-09
-1.22975e-07
-9.74685e-09
-1.14639e-07
-8.26689e-09
-1.05996e-07
-4.24942e-09
-9.60514e-08
2.20502e-09
-8.69497e-08
1.13288e-08
-7.79095e-08
2.35581e-08
-6.81778e-08
3.95075e-08
-5.71565e-08
5.99889e-08
-4.42992e-08
8.60542e-08
-2.90352e-08
1.18981e-07
-1.07114e-08
1.60399e-07
1.14132e-08
2.12729e-07
3.81427e-08
2.79223e-07
7.07129e-08
3.62623e-07
1.10977e-07
4.63609e-07
1.60602e-07
5.79958e-07
2.20357e-07
7.06711e-07
2.89466e-07
8.37168e-07
3.65608e-07
9.64404e-07
4.45318e-07
1.08301e-06
5.24759e-07
1.19028e-06
6.00569e-07
1.28612e-06
6.70761e-07
1.37176e-06
7.3488e-07
1.44826e-06
7.93619e-07
1.51629e-06
8.47783e-07
1.57644e-06
8.97825e-07
1.62948e-06
9.44058e-07
1.6763e-06
9.86827e-07
1.71784e-06
1.02654e-06
1.75501e-06
1.06362e-06
1.7886e-06
1.09852e-06
1.81929e-06
1.13159e-06
1.84763e-06
1.16315e-06
1.87406e-06
1.19343e-06
1.89892e-06
1.22261e-06
1.92249e-06
1.25082e-06
1.94497e-06
1.27814e-06
1.96652e-06
1.30461e-06
1.98728e-06
1.33024e-06
2.00732e-06
1.35503e-06
2.02673e-06
1.37892e-06
2.04553e-06
1.40187e-06
2.06378e-06
1.42381e-06
2.08148e-06
1.44465e-06
2.09865e-06
1.46429e-06
2.11529e-06
1.48261e-06
2.13139e-06
1.49949e-06
2.14695e-06
1.51477e-06
2.16194e-06
1.52832e-06
2.17635e-06
1.53995e-06
2.19015e-06
1.54949e-06
2.20331e-06
1.55675e-06
2.21581e-06
1.56151e-06
2.22762e-06
1.56355e-06
2.23869e-06
1.56264e-06
2.24899e-06
1.55851e-06
2.25847e-06
1.5509e-06
2.2671e-06
1.53952e-06
2.27482e-06
1.52407e-06
2.28158e-06
1.50422e-06
2.28732e-06
1.47963e-06
2.29197e-06
1.44993e-06
2.29547e-06
1.41475e-06
2.29774e-06
1.37368e-06
2.29868e-06
1.32628e-06
2.29821e-06
1.27211e-06
2.29621e-06
1.21069e-06
2.29256e-06
1.14151e-06
2.28713e-06
1.06405e-06
2.27975e-06
9.77738e-07
2.27026e-06
8.81993e-07
2.25846e-06
7.76187e-07
2.24456e-06
6.43065e-07
2.22898e-06
4.97544e-07
2.21183e-06
3.63321e-07
2.19321e-06
2.39705e-07
2.17317e-06
1.26022e-07
2.15178e-06
2.16203e-08
2.12908e-06
-7.41306e-08
2.1051e-06
-1.6185e-07
2.07985e-06
-2.42137e-07
2.05332e-06
-3.15581e-07
2.02551e-06
-3.82759e-07
1.99637e-06
-4.44239e-07
1.96587e-06
-5.00582e-07
1.93396e-06
-5.52343e-07
1.90058e-06
-6.00064e-07
1.86568e-06
-6.44274e-07
1.82927e-06
-6.85444e-07
1.79141e-06
-7.23921e-07
1.75218e-06
-7.59975e-07
1.71166e-06
-7.93857e-07
1.66994e-06
-8.25821e-07
1.62713e-06
-8.56098e-07
1.58335e-06
-8.84895e-07
1.53877e-06
-9.12376e-07
1.49354e-06
-9.3867e-07
1.44787e-06
-9.63857e-07
1.40194e-06
-9.87982e-07
1.35593e-06
-1.01107e-06
1.31e-06
-1.03315e-06
1.2644e-06
-1.05419e-06
1.21939e-06
-1.07403e-06
1.17521e-06
-1.09252e-06
1.13202e-06
-1.10961e-06
1.08999e-06
-1.12525e-06
1.04923e-06
-1.13939e-06
-1.15196e-06
-2.62283e-09
-3.03133e-07
-8.07444e-09
-1.17523e-07
-1.0975e-08
-1.11739e-07
-1.05502e-08
-1.06421e-07
-7.79309e-09
-9.88087e-08
-2.95457e-09
-9.17884e-08
4.0316e-09
-8.48958e-08
1.34017e-08
-7.75479e-08
2.55304e-08
-6.92852e-08
4.0923e-08
-5.96919e-08
6.02322e-08
-4.83443e-08
8.42955e-08
-3.47746e-08
1.14145e-07
-1.8436e-08
1.50986e-07
1.30208e-09
1.96601e-07
2.50975e-08
2.53757e-07
5.38213e-08
3.25597e-07
8.87626e-08
4.14299e-07
1.31655e-07
5.19816e-07
1.83949e-07
6.39408e-07
2.46017e-07
7.67913e-07
3.16813e-07
8.9878e-07
3.93892e-07
1.02551e-06
4.73837e-07
1.14327e-06
5.53004e-07
1.24984e-06
6.28311e-07
1.34541e-06
6.98045e-07
1.43127e-06
7.61925e-07
1.50837e-06
8.20724e-07
1.57727e-06
8.75162e-07
1.63847e-06
9.2562e-07
1.69265e-06
9.72355e-07
1.74063e-06
1.01565e-06
1.78327e-06
1.05587e-06
1.82146e-06
1.09341e-06
1.85594e-06
1.12866e-06
1.88739e-06
1.16198e-06
1.91635e-06
1.19366e-06
1.94326e-06
1.22391e-06
1.96847e-06
1.25293e-06
1.99227e-06
1.28082e-06
2.01486e-06
1.30765e-06
2.03641e-06
1.33347e-06
2.05705e-06
1.35828e-06
2.07687e-06
1.38205e-06
2.09595e-06
1.40474e-06
2.11433e-06
1.42627e-06
2.13205e-06
1.44657e-06
2.14913e-06
1.46553e-06
2.16558e-06
1.48304e-06
2.1814e-06
1.49895e-06
2.19659e-06
1.51313e-06
2.21113e-06
1.52541e-06
2.22501e-06
1.53561e-06
2.23821e-06
1.54355e-06
2.2507e-06
1.54902e-06
2.26246e-06
1.55179e-06
2.27345e-06
1.55165e-06
2.28363e-06
1.54832e-06
2.29298e-06
1.54156e-06
2.30143e-06
1.53106e-06
2.30896e-06
1.51655e-06
2.3155e-06
1.49768e-06
2.32099e-06
1.47413e-06
2.32539e-06
1.44554e-06
2.3286e-06
1.41153e-06
2.33057e-06
1.37171e-06
2.3312e-06
1.32565e-06
2.3304e-06
1.27291e-06
2.32805e-06
1.21303e-06
2.32405e-06
1.14552e-06
2.31824e-06
1.06985e-06
2.31048e-06
9.85495e-07
2.3006e-06
8.91875e-07
2.2884e-06
7.88387e-07
2.27411e-06
6.57361e-07
2.25816e-06
5.13488e-07
2.24068e-06
3.80804e-07
2.22175e-06
2.58633e-07
2.20146e-06
1.46315e-07
2.17987e-06
4.32126e-08
2.15703e-06
-5.12898e-08
2.13298e-06
-1.37797e-07
2.10773e-06
-2.16893e-07
2.0813e-06
-2.89151e-07
2.05368e-06
-3.55134e-07
2.02483e-06
-4.15394e-07
1.99473e-06
-4.70479e-07
1.96331e-06
-5.20927e-07
1.93052e-06
-5.67274e-07
1.89629e-06
-6.10042e-07
1.86058e-06
-6.49732e-07
1.82341e-06
-6.86757e-07
1.78486e-06
-7.21421e-07
1.74498e-06
-7.53981e-07
1.70386e-06
-7.84691e-07
1.66156e-06
-8.138e-07
1.6182e-06
-8.41534e-07
1.5739e-06
-8.68083e-07
1.52883e-06
-8.93599e-07
1.48316e-06
-9.18188e-07
1.4371e-06
-9.41914e-07
1.39083e-06
-9.64802e-07
1.34454e-06
-9.86857e-07
1.2984e-06
-1.00805e-06
1.25267e-06
-1.02829e-06
1.20759e-06
-1.04744e-06
1.16338e-06
-1.0654e-06
1.12022e-06
-1.08209e-06
1.07825e-06
-1.09742e-06
1.0376e-06
-1.11131e-06
9.9837e-07
-1.12369e-06
9.60642e-07
-1.1345e-06
9.24472e-07
-1.14372e-06
-1.15132e-06
-2.66885e-09
-3.00464e-07
-8.52364e-09
-1.11668e-07
-1.24804e-08
-1.07782e-07
-1.33779e-08
-1.05523e-07
-1.20256e-08
-1.00161e-07
-8.76958e-09
-9.50443e-08
-3.64786e-09
-9.00174e-08
3.45286e-09
-8.46485e-08
1.27568e-08
-7.8589e-08
2.4593e-08
-7.15279e-08
3.93918e-08
-6.31429e-08
5.76925e-08
-5.30751e-08
8.01673e-08
-4.09106e-08
1.07628e-07
-2.61587e-08
1.40996e-07
-8.2703e-09
1.81523e-07
1.32945e-08
2.31218e-07
3.90675e-08
2.92957e-07
6.99161e-08
3.69652e-07
1.07253e-07
4.62968e-07
1.52701e-07
5.72294e-07
2.07486e-07
6.94489e-07
2.71697e-07
8.24264e-07
3.44063e-07
9.55237e-07
4.22031e-07
1.08131e-06
5.02234e-07
1.19817e-06
5.81193e-07
1.304e-06
6.56088e-07
1.39929e-06
7.25439e-07
1.48533e-06
7.89125e-07
1.56295e-06
8.47994e-07
1.63263e-06
9.02675e-07
1.69478e-06
9.53499e-07
1.75e-06
1.00066e-06
1.79901e-06
1.0444e-06
1.84265e-06
1.08502e-06
1.88173e-06
1.1229e-06
1.917e-06
1.15839e-06
1.94909e-06
1.19182e-06
1.97855e-06
1.22347e-06
2.00581e-06
1.25355e-06
2.03124e-06
1.28222e-06
2.05512e-06
1.3096e-06
2.07767e-06
1.33574e-06
2.09905e-06
1.36067e-06
2.1194e-06
1.38438e-06
2.13882e-06
1.40685e-06
2.15739e-06
1.42801e-06
2.17515e-06
1.44778e-06
2.19214e-06
1.46605e-06
2.20838e-06
1.48271e-06
2.22389e-06
1.49762e-06
2.23867e-06
1.51063e-06
2.25271e-06
1.52157e-06
2.26601e-06
1.53025e-06
2.27854e-06
1.53649e-06
2.29029e-06
1.54005e-06
2.30122e-06
1.54071e-06
2.31131e-06
1.53823e-06
2.32052e-06
1.53235e-06
2.32881e-06
1.52277e-06
2.33614e-06
1.50921e-06
2.34247e-06
1.49136e-06
2.34772e-06
1.46887e-06
2.35186e-06
1.44141e-06
2.3548e-06