/*--------------------------------*- C++ -*----------------------------------*\
  =========                 |
  \\      /  F ield         | OpenFOAM: The Open Source CFD Toolbox
   \\    /   O peration     | Website:  https://openfoam.org
    \\  /    A nd           | Version:  10
     \\/     M anipulation  |
\*---------------------------------------------------------------------------*/
FoamFile
{
    format      ascii;
    class       volVectorField;
    location    "18000";
    object      Urel;
}
// * * * * * * * * * * * * * * * * * * * * * * * * * * * * * * * * * * * * * //

dimensions      [0 1 -1 0 0 0 0];

internalField   nonuniform List<vector> 
17969
(
(0.142308 -0.132009 0)
(-0.0236915 -0.0518408 0)
(0.000279214 -0.00672312 -1.18593e-17)
(0.00616672 0.0332876 1.37062e-17)
(0.00908564 0.0731739 -4.71506e-18)
(0.0135031 0.112629 -3.69894e-18)
(0.0186753 0.148008 2.80888e-18)
(0.0233789 0.176004 0)
(0.0273368 0.196484 1.13825e-19)
(0.030636 0.210924 0)
(0.0333113 0.22076 0)
(0.035463 0.22726 0)
(0.0372094 0.231476 0)
(0.0386566 0.234163 -7.68223e-19)
(0.0398878 0.235825 7.05068e-19)
(0.0409633 0.236785 0)
(0.0419249 0.237247 -5.07305e-19)
(0.0428015 0.237343 4.52889e-19)
(0.043613 0.237161 -4.05483e-19)
(0.0443734 0.236756 3.6881e-19)
(0.0450923 0.236168 0)
(0.0457766 0.235425 0)
(0.0464313 0.234545 -3.58141e-20)
(0.0470599 0.233541 0)
(0.0476649 0.232423 0)
(0.0482479 0.231197 2.33877e-19)
(0.0488102 0.229868 -4.42267e-19)
(0.0493524 0.22844 2.09848e-19)
(0.0498749 0.226913 1.98298e-19)
(0.0503779 0.22529 -2.46573e-20)
(0.0508612 0.223571 -2.2639e-19)
(0.0513248 0.221755 0)
(0.0517681 0.219843 1.65227e-19)
(0.0521908 0.217833 -3.58023e-19)
(0.0525925 0.215726 9.60204e-22)
(0.0529725 0.21352 2.947e-19)
(0.0533303 0.211213 -1.42549e-19)
(0.0536652 0.208805 -1.70934e-19)
(0.0539768 0.206295 9.982e-20)
(0.0542643 0.20368 0)
(0.0545273 0.20096 3.10009e-20)
(0.0547651 0.198133 3.00158e-20)
(0.0549773 0.195196 2.31485e-19)
(0.0551633 0.192149 -2.26344e-19)
(0.0553226 0.18899 -2.1746e-19)
(0.0554549 0.185717 -5.09399e-20)
(0.0555597 0.182327 2.06667e-19)
(0.0556367 0.178819 1.98483e-19)
(0.0556855 0.175192 -2.16095e-21)
(0.0557059 0.171441 -1.89145e-19)
(0.0556977 0.167566 -2.27147e-19)
(0.0556605 0.163564 2.22781e-19)
(0.0555942 0.159432 0)
(0.0554987 0.155167 0)
(0.0553737 0.150766 4.06153e-20)
(0.055219 0.146227 2.35277e-19)
(0.0550345 0.141546 -1.54279e-19)
(0.05482 0.136719 0)
(0.0545752 0.131744 0)
(0.0542998 0.126615 6.85601e-20)
(0.0539935 0.121329 -1.37085e-19)
(0.0536558 0.115881 0)
(0.0532861 0.110266 0)
(0.0528838 0.10448 -6.1875e-20)
(0.052448 0.0985176 -1.18218e-19)
(0.0519775 0.0923723 6.11265e-20)
(0.0514712 0.0860384 1.137e-19)
(0.0509274 0.0795093 0)
(0.0503441 0.0727778 0)
(0.049719 0.0658364 0)
(0.0490493 0.0586763 9.53282e-20)
(0.0483315 0.0512883 -5.83684e-21)
(0.0475615 0.0436617 -1.83437e-19)
(0.0467365 0.0357843 0)
(0.0458632 0.0277586 8.08828e-20)
(0.0449601 0.0198041 7.56691e-20)
(0.0440393 0.0120259 -7.03564e-20)
(0.0431024 0.00441306 0)
(0.0421492 -0.00304649 0)
(0.0411789 -0.0103655 0)
(0.0401914 -0.0175578 0)
(0.0391868 -0.0246376 0)
(0.0381654 -0.0316201 8.38119e-20)
(0.0371282 -0.0385208 -1.39186e-19)
(0.0360761 -0.0453558 9.37356e-20)
(0.0350113 -0.0521412 -1.66251e-20)
(0.0339363 -0.058893 0)
(0.032854 -0.0656252 0)
(0.0317678 -0.0723461 0)
(0.0306817 -0.0790578 -3.03228e-20)
(0.0295994 -0.0857592 4.04364e-20)
(0.0285244 -0.0924487 3.12062e-20)
(0.0274605 -0.0991243 -3.0493e-20)
(0.0264117 -0.105783 2.21515e-20)
(0.0253817 -0.112423 -4.20804e-20)
(0.0243744 -0.119038 1.55349e-20)
(0.0233937 -0.125624 0)
(0.0224431 -0.132175 -7.20924e-21)
(0.0215265 -0.138683 6.98609e-21)
(0.0206465 -0.145143 3.39655e-22)
(0.146483 -0.129769 0)
(-0.0240515 -0.0571759 -3.20057e-17)
(0.000499776 -0.0222748 2.4309e-17)
(0.00443662 0.00934844 4.88208e-19)
(0.00610951 0.0411976 2.08247e-17)
(0.0092205 0.0748413 -3.20493e-17)
(0.0137269 0.10933 1.29958e-17)
(0.0186136 0.14131 1.04776e-17)
(0.0232077 0.167741 -8.62171e-18)
(0.0271993 0.187775 -7.20718e-18)
(0.0306242 0.202446 1.52045e-20)
(0.0335028 0.212964 5.06591e-18)
(0.0358804 0.220263 0)
(0.037841 0.225202 0)
(0.0394746 0.228478 -3.24168e-18)
(0.0408609 0.2306 2.86636e-18)
(0.0420634 0.231913 0)
(0.0431295 0.232649 -2.14301e-18)
(0.0440931 0.23296 1.9765e-18)
(0.0449786 0.232948 0)
(0.045803 0.232681 -1.55598e-18)
(0.0465788 0.232207 1.33698e-18)
(0.0473146 0.231559 4.08637e-20)
(0.0480168 0.230759 0)
(0.0486901 0.229823 1.12222e-18)
(0.0493376 0.228764 -7.03984e-20)
(0.0499618 0.22759 -1.97215e-18)
(0.0505643 0.226306 9.31221e-19)
(0.0511461 0.224916 -5.4918e-20)
(0.051708 0.223423 8.56799e-19)
(0.0522503 0.221829 -7.44788e-19)
(0.0527731 0.220135 0)
(0.0532763 0.21834 6.29312e-19)
(0.0537598 0.216446 -5.63439e-19)
(0.0542231 0.214451 0)
(0.0546659 0.212354 7.96204e-20)
(0.0550876 0.210155 -7.65949e-20)
(0.0554876 0.207853 -5.50948e-19)
(0.0558655 0.205446 1.17309e-18)
(0.0562206 0.202933 -7.2842e-20)
(0.0565523 0.200312 -5.65557e-19)
(0.05686 0.197582 -6.06733e-19)
(0.0571432 0.194741 9.91959e-19)
(0.0574012 0.191788 -1.08027e-18)
(0.0576337 0.18872 9.29869e-19)
(0.05784 0.185536 -3.96382e-19)
(0.0580197 0.182234 4.34364e-19)
(0.0581724 0.178811 -9.52457e-19)
(0.0582977 0.175266 8.20967e-19)
(0.0583953 0.171597 -7.96313e-19)
(0.0584647 0.1678 3.40227e-19)
(0.0585058 0.163874 -4.68139e-20)
(0.0585182 0.159816 0)
(0.0585018 0.155624 0)
(0.0584562 0.151293 -4.27696e-20)
(0.0583814 0.146822 -8.29993e-20)
(0.058277 0.142208 3.19739e-19)
(0.0581428 0.137446 -4.71911e-19)
(0.0579787 0.132534 -6.01221e-19)
(0.0577842 0.127467 8.46711e-20)
(0.0575592 0.122241 5.76163e-19)
(0.057303 0.116853 6.85385e-19)
(0.0570153 0.111298 -6.75771e-19)
(0.0566955 0.105572 6.47936e-20)
(0.0563426 0.099668 0)
(0.0559559 0.0935824 6.09172e-20)
(0.055534 0.0873091 4.62954e-19)
(0.0550757 0.080842 -4.60648e-19)
(0.0545791 0.0741748 -2.19189e-19)
(0.0540422 0.0673002 -2.03388e-19)
(0.0534623 0.0602107 4.14098e-19)
(0.0528364 0.0528978 2.93202e-19)
(0.0521609 0.0453519 3.66754e-19)
(0.0514332 0.0375622 -3.65962e-19)
(0.0506592 0.0296313 -8.42739e-20)
(0.0498549 0.0217771 -7.88873e-20)
(0.0490313 0.0141042 7.33946e-20)
(0.04819 0.00660187 1.36818e-19)
(0.0473312 -0.00074141 3.72647e-19)
(0.0464542 -0.00793824 -1.40663e-20)
(0.0455587 -0.0150023 -2.22248e-19)
(0.044645 -0.0219483 -4.97083e-20)
(0.0437132 -0.0287917 0)
(0.042764 -0.035549 2.10576e-20)
(0.0417982 -0.0422375 -1.91235e-20)
(0.0408176 -0.0488749 1.74613e-20)
(0.0398245 -0.0554793 0)
(0.0388213 -0.0620674 0)
(0.0378112 -0.0686493 -1.97452e-19)
(0.0367981 -0.0752283 7.6386e-21)
(0.0357853 -0.0818048 1.72084e-19)
(0.0347764 -0.0883788 0)
(0.033775 -0.0949499 0)
(0.032785 -0.101517 9.4911e-20)
(0.0318102 -0.10808 -1.67328e-19)
(0.0308545 -0.114634 8.17892e-20)
(0.0299214 -0.121177 0)
(0.029014 -0.127704 0)
(0.0281374 -0.13421 -1.66883e-20)
(0.0272959 -0.14069 1.04258e-20)
(0.150027 -0.1263 4.07371e-17)
(-0.023677 -0.060269 -6.54579e-17)
(0.00131792 -0.0329023 1.01179e-16)
(0.00381267 -0.00826163 -3.50773e-17)
(0.00443303 0.0162512 7.08361e-19)
(0.00627084 0.0424484 0)
(0.00950475 0.0713462 4.50575e-19)
(0.0137172 0.101972 0)
(0.0183611 0.131563 0)
(0.0229642 0.157288 5.16345e-19)
(0.0270798 0.177474 2.13806e-19)
(0.0306765 0.192745 0)
(0.0338141 0.204187 0)
(0.0364512 0.212509 2.7611e-19)
(0.0386654 0.218389 -3.83312e-18)
(0.040527 0.222443 3.03668e-18)
(0.0421049 0.225175 -2.74001e-18)
(0.0434633 0.226957 2.58179e-18)
(0.0446549 0.228051 -7.13726e-20)
(0.0457198 0.228637 -2.16387e-18)
(0.0466878 0.22884 1.72362e-18)
(0.0475805 0.228743 2.07803e-19)
(0.0484137 0.228404 9.48117e-20)
(0.049199 0.227866 0)
(0.0499447 0.227157 0)
(0.050657 0.226297 1.26476e-18)
(0.0513402 0.225301 -9.76043e-19)
(0.0519976 0.22418 -1.3035e-19)
(0.0526317 0.222941 -7.93989e-19)
(0.0532439 0.22159 9.27559e-19)
(0.0538354 0.22013 0)
(0.0544069 0.218563 0)
(0.0549588 0.216891 9.89231e-20)
(0.0554912 0.215116 1.41199e-18)
(0.056004 0.213236 -2.88909e-18)
(0.056497 0.211252 1.30167e-18)
(0.0569698 0.209163 8.29197e-20)
(0.057422 0.206968 -1.5952e-19)
(0.0578532 0.204667 1.53465e-19)
(0.0582627 0.202257 7.3815e-20)
(0.0586501 0.199738 0)
(0.0590147 0.197108 6.86726e-20)
(0.059356 0.194365 1.32811e-19)
(0.0596733 0.191507 -8.93344e-19)
(0.0599661 0.188534 9.25486e-21)
(0.0602338 0.185442 1.0848e-18)
(0.060476 0.18223 0)
(0.0606922 0.178896 -1.61169e-22)
(0.0608818 0.175437 -2.18079e-19)
(0.0610446 0.171852 0)
(0.06118 0.168138 1.02237e-19)
(0.0612878 0.164293 -7.88306e-19)
(0.0613676 0.160314 7.74222e-19)
(0.0614191 0.156198 0)
(0.0614421 0.151942 1.80888e-19)
(0.0614364 0.147544 0)
(0.0614016 0.143001 -1.70033e-19)
(0.0613376 0.138309 -6.53391e-19)
(0.061244 0.133464 6.44229e-19)
(0.0611206 0.128464 1.54841e-19)
(0.0609671 0.123304 0)
(0.060783 0.117981 -7.19577e-19)
(0.060568 0.11249 1.54639e-18)
(0.0603214 0.106827 -1.29351e-20)
(0.0600426 0.100987 -2.7681e-19)
(0.0597306 0.0949656 -1.40788e-19)
(0.0593846 0.088757 -9.83609e-19)
(0.059003 0.0823559 1.44994e-20)
(0.0585845 0.0757564 9.23474e-19)
(0.0581271 0.068952 5.3159e-22)
(0.0576285 0.0619358 0)
(0.0570859 0.0547002 5.95732e-19)
(0.0564959 0.0472367 1.61558e-19)
(0.0558566 0.0395358 -7.63617e-19)
(0.0551729 0.0317001 0)
(0.0544584 0.0239459 0)
(0.0537232 0.0163771 -1.53892e-19)
(0.0529692 0.00898395 4.12899e-19)
(0.0521967 0.00175531 -1.19313e-18)
(0.0514051 -0.00532095 9.79802e-19)
(0.0505943 -0.0122582 -5.79347e-19)
(0.0497643 -0.0190712 -3.5097e-19)
(0.0489153 -0.0257754 3.96236e-19)
(0.0480477 -0.0323879 -3.83295e-19)
(0.0471623 -0.0389268 6.4515e-19)
(0.0462605 -0.0454111 -3.06605e-19)
(0.0453443 -0.0518606 2.57516e-19)
(0.0444159 -0.0582944 -4.87668e-19)
(0.0434782 -0.0647251 2.10285e-20)
(0.0425347 -0.0711575 2.02372e-20)
(0.0415888 -0.0775936 2.04617e-19)
(0.0406439 -0.0840346 0)
(0.0397038 -0.090482 1.21234e-19)
(0.038772 -0.0969364 -2.20255e-19)
(0.0378526 -0.103397 4.70349e-21)
(0.0369492 -0.109864 1.08129e-20)
(0.0360647 -0.116332 7.45235e-21)
(0.0352035 -0.122798 8.65296e-21)
(0.03437 -0.129269 2.83588e-20)
(0.0335678 -0.135751 8.22842e-22)
(0.153039 -0.122382 -1.29284e-18)
(-0.0230028 -0.0618176 -1.31649e-16)
(0.00239766 -0.0396902 1.54836e-19)
(0.00384541 -0.0203604 2.22719e-18)
(0.00369736 -0.00159704 4.68393e-17)
(0.0045601 0.0180443 3.57268e-17)
(0.00652941 0.0398903 -5.32158e-19)
(0.00951273 0.0647809 -2.65402e-17)
(0.0133947 0.092088 0)
(0.0178524 0.119626 1.94193e-17)
(0.0224309 0.144754 -1.63314e-17)
(0.0267587 0.165608 0)
(0.0305972 0.181888 0)
(0.0339845 0.194381 -3.21198e-19)
(0.0369316 0.203863 2.83144e-19)
(0.0394457 0.21086 2.49155e-19)
(0.0415846 0.21588 6.79486e-18)
(0.0434045 0.219393 -6.21121e-18)
(0.044964 0.221784 0)
(0.0463184 0.223345 1.52683e-19)
(0.0475138 0.22429 4.77577e-18)
(0.0485864 0.224768 -7.99776e-18)
(0.0495635 0.224885 3.46213e-18)
(0.0504655 0.224716 2.03233e-19)
(0.0513076 0.224312 2.97296e-18)
(0.052101 0.22371 -2.75219e-18)
(0.0528539 0.222937 -2.69729e-18)
(0.0535726 0.222013 2.66996e-18)
(0.0542615 0.220951 1.40544e-22)
(0.054924 0.21976 -2.07278e-18)
(0.0555625 0.218449 1.96268e-18)
(0.0561786 0.217021 0)
(0.0567736 0.215482 0)
(0.0573482 0.213832 -1.66094e-18)
(0.0579028 0.212073 1.79015e-18)
(0.0584376 0.210205 -1.50969e-18)
(0.0589526 0.20823 1.45328e-18)
(0.0594475 0.206145 -1.20933e-18)
(0.0599221 0.203951 -1.56631e-19)
(0.0603759 0.201647 9.6677e-21)
(0.0608085 0.199232 2.46018e-18)
(0.0612193 0.196703 -2.36889e-18)
(0.0616079 0.19406 1.00385e-18)
(0.0619736 0.1913 0)
(0.0623159 0.188423 0)
(0.0626342 0.185426 -1.28259e-19)
(0.0629279 0.182307 -9.87336e-19)
(0.0631967 0.179063 8.44426e-19)
(0.0634399 0.175694 -6.91213e-19)
(0.0636571 0.172196 1.1282e-18)
(0.0638478 0.168568 1.08176e-18)
(0.0640117 0.164806 -1.05781e-18)
(0.0641485 0.160908 0)
(0.0642577 0.156872 -5.86466e-19)
(0.0643391 0.152695 7.70671e-19)
(0.0643924 0.148374 0)
(0.0644173 0.143905 1.79221e-19)
(0.0644136 0.139286 1.73586e-19)
(0.064381 0.134514 -3.36862e-19)
(0.0643192 0.129584 -1.62784e-19)
(0.0642279 0.124494 3.15818e-19)
(0.0641067 0.119239 1.20852e-18)
(0.0639552 0.113816 -1.49021e-18)
(0.0637729 0.10822 1.12952e-18)
(0.0635592 0.102447 -1.65757e-18)
(0.0633133 0.0964931 1.08204e-18)
(0.0630341 0.0903523 -1.27435e-18)
(0.0627207 0.08402 1.25891e-18)
(0.0623715 0.0774908 -2.39455e-19)
(0.0619849 0.0707589 -1.13785e-18)
(0.0615587 0.0638179 9.04817e-19)
(0.0610902 0.0566612 0)
(0.0605767 0.0492812 -2.04176e-19)
(0.0600163 0.0416695 0)
(0.0594132 0.0339288 0)
(0.0587791 0.0262737 0)
(0.0581232 0.0188079 7.85907e-19)
(0.0574475 0.0115221 -6.14851e-19)
(0.0567525 0.00440615 -2.78456e-19)
(0.0560379 -0.00255161 -2.57409e-19)
(0.0553033 -0.00936406 1.18354e-19)
(0.0545489 -0.0160454 -1.09562e-19)
(0.0537748 -0.0226114 -3.88907e-19)
(0.0529813 -0.0290789 3.83136e-19)
(0.052169 -0.0354666 3.26692e-19)
(0.0513391 -0.0417941 -2.45059e-20)
(0.0504931 -0.0480828 -8.38404e-19)
(0.0496332 -0.0543536 4.5853e-20)
(0.0487617 -0.0606223 4.86979e-19)
(0.047882 -0.066896 -5.21542e-20)
(0.0469975 -0.0731778 2.32567e-20)
(0.0461116 -0.0794707 -3.02268e-19)
(0.0452279 -0.0857778 2.96689e-19)
(0.0443504 -0.0921013 -1.48096e-20)
(0.0434831 -0.0984426 1.21751e-20)
(0.0426299 -0.104801 1.31783e-19)
(0.0417941 -0.111175 -2.37754e-19)
(0.0409812 -0.11756 1.10039e-19)
(0.0401946 -0.123967 4.48294e-20)
(0.0394373 -0.130409 -6.09381e-20)
(0.0387151 -0.136873 7.46042e-21)
(0.0380319 -0.143333 9.87686e-21)
(0.0373908 -0.149757 -5.39697e-20)
(0.0367937 -0.156118 5.17988e-20)
(0.155699 -0.118262 8.67153e-17)
(-0.0222827 -0.0621396 0)
(0.00347126 -0.0435689 1.07842e-16)
(0.00429349 -0.0282543 9.77792e-19)
(0.00358193 -0.0138394 -9.58735e-17)
(0.00379068 0.000888243 7.46277e-17)
(0.00483252 0.0169589 -2.98037e-17)
(0.00663717 0.0352627 0)
(0.00930237 0.0565853 2.54295e-17)
(0.012854 0.0807477 -4.44946e-17)
(0.0170774 0.106179 1.89704e-17)
(0.0216079 0.130654 -5.25408e-19)
(0.0261012 0.152215 1.41727e-17)
(0.0302277 0.169731 -2.40494e-17)
(0.0338983 0.183469 1.01576e-17)
(0.0371758 0.194187 -5.81194e-19)
(0.0400239 0.20243 8.27162e-18)
(0.0424829 0.208596 -6.92726e-18)
(0.0445961 0.213077 0)
(0.0464094 0.216245 5.84742e-18)
(0.0479745 0.218414 -5.90226e-18)
(0.049341 0.219827 -2.93966e-19)
(0.0505508 0.220666 0)
(0.0516378 0.221062 -4.80077e-19)
(0.052628 0.221108 0)
(0.0535413 0.220873 2.99523e-18)
(0.0543927 0.220405 1.7083e-19)
(0.0551936 0.219738 -3.07211e-18)
(0.0559523 0.218899 -1.58124e-19)
(0.0566751 0.217904 0)
(0.0573669 0.216769 0)
(0.058031 0.215501 0)
(0.05867 0.214109 -1.7092e-18)
(0.0592859 0.212597 1.85919e-18)
(0.0598798 0.210968 -2.19611e-19)
(0.0604526 0.209224 1.6658e-18)
(0.0610047 0.207367 -1.39835e-18)
(0.0615366 0.205398 1.51467e-18)
(0.0620481 0.203315 -1.45883e-18)
(0.062539 0.201119 0)
(0.0630093 0.198809 1.6644e-18)
(0.0634583 0.196384 -1.28792e-18)
(0.0638859 0.193842 9.19504e-19)
(0.0642913 0.191182 -8.95336e-19)
(0.0646742 0.188403 2.86106e-19)
(0.0650341 0.185501 -2.75838e-19)
(0.0653702 0.182476 0)
(0.0656823 0.179325 -4.06231e-22)
(0.0659697 0.176047 0)
(0.066232 0.172638 1.666e-18)
(0.0664687 0.169097 -2.09503e-18)
(0.0666794 0.165421 2.23717e-19)
(0.0668637 0.161607 -1.72091e-18)
(0.0670213 0.157653 1.47823e-18)
(0.0671518 0.153557 -2.02501e-19)
(0.0672549 0.149314 0)
(0.0673303 0.144923 0)
(0.0673779 0.14038 -1.45649e-18)
(0.0673972 0.135682 3.80442e-19)
(0.067388 0.130826 1.38807e-18)
(0.0673501 0.125808 9.84669e-19)
(0.067283 0.120624 -1.29992e-18)
(0.0671864 0.115272 0)
(0.0670597 0.109746 0)
(0.0669025 0.104042 -2.89966e-19)
(0.066714 0.0981576 0)
(0.0664934 0.0920869 -2.71442e-19)
(0.0662395 0.0858255 7.66736e-19)
(0.0659511 0.0793685 -1.02117e-18)
(0.0656265 0.0727105 4.84181e-19)
(0.065264 0.065846 4.65417e-19)
(0.0648609 0.058769 4.46743e-19)
(0.0644146 0.0514728 0)
(0.0639237 0.0439501 3.86818e-19)
(0.0633917 0.0363035 -4.03098e-19)
(0.0628284 0.0287463 7.02583e-19)
(0.0622423 0.0213813 -3.53808e-19)
(0.0616357 0.0142004 1.21842e-18)
(0.0610091 0.00719418 -6.81176e-20)
(0.0603623 0.000351673 2.04741e-19)
(0.059695 -0.00633925 -1.02693e-18)
(0.0590075 -0.0128923 7.73393e-19)
(0.0582998 -0.0193227 -6.62741e-19)
(0.057572 -0.0256472 0)
(0.0568247 -0.0318844 8.95154e-20)
(0.0560588 -0.0380544 6.28381e-19)
(0.0552756 -0.044179 -1.24652e-19)
(0.0544769 -0.050281 -4.81846e-20)
(0.0536646 -0.0563795 -5.14859e-19)
(0.0528421 -0.0624845 -3.87473e-22)
(0.0520126 -0.0686007 2.71438e-19)
(0.0511796 -0.0747327 -3.63578e-19)
(0.0503467 -0.0808853 2.76474e-19)
(0.0495181 -0.0870628 -2.87415e-19)
(0.048698 -0.0932684 1.91888e-19)
(0.047891 -0.0995036 -1.77227e-19)
(0.0471007 -0.105768 0)
(0.0463335 -0.112057 0)
(0.0455927 -0.118381 5.37889e-20)
(0.0448815 -0.124756 -4.65328e-20)
(0.0442037 -0.131178 3.08674e-22)
(0.043563 -0.137624 -9.96892e-23)
(0.0429621 -0.144066 -5.67633e-20)
(0.0424034 -0.150473 5.45535e-20)
(0.15813 -0.114035 -3.93491e-18)
(-0.0216408 -0.0615956 2.87196e-16)
(0.0045042 -0.0455696 -2.27857e-16)
(0.00495263 -0.0332424 7.01727e-17)
(0.00390977 -0.0219591 0)
(0.00366085 -0.0108155 0)
(0.00408202 0.0010956 -1.91286e-18)
(0.00506608 0.0144237 -2.67891e-17)
(0.00664885 0.0297532 4.82732e-17)
(0.00898688 0.0478223 -2.3077e-17)
(0.0121753 0.0689035 0)
(0.0161047 0.0920483 -1.64556e-22)
(0.0205157 0.115515 -5.35108e-19)
(0.0250623 0.137395 0)
(0.0294887 0.156263 7.83756e-19)
(0.0334889 0.17145 6.72111e-19)
(0.0370674 0.183472 -5.96337e-19)
(0.0402928 0.193005 -5.36303e-19)
(0.0430989 0.200423 0)
(0.0455415 0.206037 0)
(0.0476582 0.21016 3.89532e-19)
(0.049487 0.213099 -3.24969e-22)
(0.0510735 0.215117 3.15962e-19)
(0.052463 0.216425 -2.82987e-22)
(0.0536949 0.217184 0)
(0.0548014 0.217511 -2.36195e-19)
(0.0558081 0.217494 -6.47353e-19)
(0.0567348 0.217195 -1.98591e-19)
(0.0575966 0.216662 0)
(0.058405 0.215928 0)
(0.0591688 0.215016 -3.16014e-19)
(0.0598946 0.213946 2.95283e-19)
(0.0605875 0.21273 1.65401e-18)
(0.061251 0.211377 -2.72846e-19)
(0.0618881 0.209896 -2.57939e-19)
(0.0625007 0.208289 -2.09843e-18)
(0.0630901 0.206561 -1.75819e-18)
(0.0636574 0.204715 2.10308e-18)
(0.0642032 0.202749 -1.5926e-18)
(0.0647278 0.200667 1.53144e-18)
(0.0652312 0.198466 -3.6445e-19)
(0.0657133 0.196148 0)
(0.0661741 0.19371 3.00217e-18)
(0.0666131 0.191152 -2.5827e-18)
(0.0670299 0.188471 -3.08719e-19)
(0.0674242 0.185668 2.96967e-19)
(0.0677955 0.182738 2.86363e-19)
(0.0681433 0.179682 -1.64238e-18)
(0.0684671 0.176495 2.13781e-18)
(0.0687666 0.173177 0)
(0.0690411 0.169725 -4.95263e-19)
(0.0692904 0.166136 0)
(0.069514 0.162408 0)
(0.0697116 0.158538 -4.46157e-19)
(0.0698828 0.154524 0)
(0.0700274 0.150362 -4.16648e-19)
(0.070145 0.146051 4.02707e-19)
(0.0702354 0.141585 -1.54218e-18)
(0.0702983 0.136964 1.89301e-18)
(0.0703335 0.132183 1.43929e-18)
(0.0703406 0.127239 -1.7695e-18)
(0.0703194 0.122128 6.79105e-19)
(0.0702694 0.116848 6.3986e-19)
(0.0701903 0.111393 -1.28035e-18)
(0.0700815 0.105761 1.20613e-18)
(0.0699423 0.0999479 -1.1941e-18)
(0.0697719 0.0939487 5.67421e-19)
(0.0695694 0.0877596 1.07813e-18)
(0.0693335 0.0813758 -1.07097e-18)
(0.0690627 0.0747928 -5.06105e-19)
(0.0687553 0.0680054 -9.73643e-19)
(0.0684089 0.0610083 4.48735e-19)
(0.0680211 0.0537957 1.2836e-18)
(0.0675905 0.0463613 -4.6494e-19)
(0.0671201 0.0388076 1.16621e-18)
(0.0666183 0.0313462 -1.54894e-18)
(0.0660928 0.0240796 1.26464e-21)
(0.065546 0.0170005 -9.4822e-19)
(0.0649787 0.0101003 1.56263e-18)
(0.0643907 0.00336911 0)
(0.063782 -0.0032045 0)
(0.0631527 -0.00963345 2.40926e-19)
(0.0625028 -0.0159323 -1.08189e-18)
(0.0618324 -0.0221174 8.47542e-19)
(0.061142 -0.0282068 6.30115e-19)
(0.0604322 -0.0342206 -5.43079e-19)
(0.0597042 -0.0401808 5.24095e-19)
(0.0589596 -0.0461112 -5.26859e-19)
(0.0582001 -0.0520338 -6.51624e-20)
(0.0574285 -0.0579624 5.8121e-20)
(0.0566481 -0.0639039 5.16627e-20)
(0.0558624 -0.0698642 0)
(0.055075 -0.0758502 0)
(0.0542904 -0.0818685 3.35552e-20)
(0.053513 -0.0879246 2.83731e-20)
(0.0527478 -0.0940224 1.64874e-19)
(0.0519995 -0.100163 -3.54909e-20)
(0.0512738 -0.106346 -1.36536e-19)
(0.0505757 -0.112573 5.51035e-20)
(0.0499086 -0.118859 -5.63099e-20)
(0.0492747 -0.125211 6.62071e-21)
(0.0486775 -0.131613 -7.76609e-21)
(0.0481192 -0.138039 -5.64114e-20)
(0.0476017 -0.14446 -2.45124e-20)
(0.160369 -0.109786 -8.69152e-17)
(-0.0211081 -0.0605328 1.49396e-16)
(0.00545898 -0.0463275 -2.41049e-16)
(0.00570279 -0.0362585 7.6171e-17)
(0.00446948 -0.0272237 1.54377e-18)
(0.00395442 -0.0186022 -3.62549e-17)
(0.00397216 -0.00964943 6.06812e-17)
(0.00439319 0.000183549 -2.62838e-17)
(0.00526697 0.0113377 2.45518e-17)
(0.00664327 0.0241642 -2.22903e-17)
(0.00865523 0.0393202 0)
(0.0114583 0.057404 6.44985e-19)
(0.0150246 0.0780249 -1.98282e-17)
(0.0192018 0.0999823 1.7425e-17)
(0.0237324 0.121638 -9.58901e-19)
(0.0282937 0.141398 -1.32594e-17)
(0.0326659 0.1582 1.21049e-17)
(0.0366077 0.171762 1.0494e-17)
(0.0401509 0.182613 -2.91791e-20)
(0.0433484 0.191305 -8.06123e-18)
(0.0461489 0.198137 -4.5628e-19)
(0.0486026 0.20336 4.12836e-19)
(0.0507417 0.207231 -1.12173e-18)
(0.0525995 0.210007 -3.39066e-19)
(0.0542171 0.211915 -5.5165e-18)
(0.0556366 0.213143 5.03281e-18)
(0.0568955 0.213835 -5.65775e-22)
(0.0580251 0.214101 4.65242e-19)
(0.0590507 0.214023 -4.2769e-19)
(0.0599922 0.213661 3.94244e-19)
(0.0608651 0.213059 3.27353e-18)
(0.0616813 0.212252 -3.05534e-18)
(0.0624499 0.211263 3.1557e-19)
(0.0631779 0.21011 -3.84132e-22)
(0.0638706 0.208806 2.77116e-19)
(0.0645319 0.20736 2.60896e-19)
(0.0651649 0.20578 -4.1769e-18)
(0.0657717 0.20407 2.64099e-20)
(0.0663539 0.202234 3.99739e-18)
(0.0669126 0.200274 0)
(0.0674484 0.19819 0)
(0.0679619 0.195984 0)
(0.068453 0.193655 -3.27977e-18)
(0.0689219 0.191202 2.81369e-18)
(0.0693685 0.188624 0)
(0.0697924 0.185921 0)
(0.0701934 0.183089 -2.77009e-18)
(0.0705712 0.180129 2.09332e-18)
(0.0709253 0.177036 2.27505e-18)
(0.0712554 0.17381 -2.21495e-18)
(0.0715611 0.170449 5.29908e-19)
(0.071842 0.166949 0)
(0.0720978 0.163308 0)
(0.0723282 0.159523 9.5086e-19)
(0.0725327 0.155593 1.82149e-18)
(0.0727113 0.151513 -1.34202e-18)
(0.0728635 0.147282 -4.26891e-19)
(0.0729892 0.142896 0)
(0.0730882 0.138352 -1.9766e-18)
(0.07316 0.133648 2.88919e-20)
(0.0732046 0.128779 1.86998e-18)
(0.0732216 0.123743 -1.43292e-18)
(0.0732107 0.118536 6.90578e-19)
(0.0731714 0.113154 0)
(0.0731034 0.107595 0)
(0.0730059 0.101854 6.02693e-19)
(0.0728781 0.0959269 -3.38451e-20)
(0.0727193 0.0898107 -3.47873e-20)
(0.0725282 0.0835009 -5.70265e-19)
(0.0723033 0.0769932 0)
(0.0720431 0.0702831 1.02064e-18)
(0.0717452 0.0633658 9.79856e-19)
(0.0714073 0.0562363 -1.40524e-18)
(0.0710283 0.0488892 -8.88862e-19)
(0.0706106 0.0414269 0)
(0.0701613 0.0340591 -2.33255e-18)
(0.0696875 0.026888 1.88803e-18)
(0.0691917 0.0199074 1.32928e-21)
(0.0686748 0.0131094 -3.2151e-19)
(0.068137 0.00648506 2.98307e-19)
(0.0675782 2.39258e-05 2.75786e-19)
(0.0669985 -0.00628605 0)
(0.066398 -0.0124586 0)
(0.0657769 -0.0185091 0)
(0.0651354 -0.0244553 -7.6237e-19)
(0.0644741 -0.0303166 -1.24362e-19)
(0.0637941 -0.0361148 1.49247e-18)
(0.0630967 -0.0418739 -7.06738e-19)
(0.0623835 -0.047618 -4.54512e-19)
(0.0616568 -0.0533654 5.18798e-19)
(0.0609199 -0.0591256 0)
(0.0601763 -0.0649062 3.64444e-19)
(0.0594296 -0.0707156 -3.59486e-19)
(0.0586842 -0.0765628 0)
(0.0579449 -0.0824562 -6.04927e-20)
(0.0572168 -0.0884025 -1.77755e-19)
(0.0565053 -0.0944062 1.74318e-19)
(0.0558157 -0.100469 -9.78577e-20)
(0.0551544 -0.10659 9.53879e-20)
(0.0545257 -0.112776 0)
(0.0539321 -0.119036 3.478e-21)
(0.0533758 -0.125368 -4.82719e-21)
(0.0528586 -0.131751 5.54747e-20)
(0.0523814 -0.138155 -1.40278e-19)
(0.0519462 -0.14455 8.80952e-20)
(0.162417 -0.105557 2.7617e-18)
(-0.0206993 -0.0591746 0)
(0.00632487 -0.0463051 -1.21392e-16)
(0.00647762 -0.0380246 8.05717e-17)
(0.0051507 -0.0306321 -8.74699e-23)
(0.00449437 -0.023784 -1.14605e-18)
(0.00427518 -0.0168857 0)
(0.00435858 -0.00950013 -2.4554e-17)
(0.00475004 -0.00127492 2.38575e-17)
(0.00550786 0.00810625 0)
(0.0066969 0.0189097 1.28035e-18)
(0.00841016 0.0316281 0)
(0.0108122 0.0468991 -2.13004e-22)
(0.0139677 0.0648467 -1.88734e-17)
(0.0178182 0.0848163 3.51252e-17)
(0.0221813 0.105566 -1.58796e-17)
(0.0267947 0.125613 1.39835e-17)
(0.0313728 0.143659 -2.58503e-17)
(0.035712 0.158912 1.05248e-17)
(0.0396266 0.171283 5.77345e-19)
(0.0431614 0.181272 -5.22411e-19)
(0.046355 0.189338 -6.65889e-18)
(0.0491695 0.195735 7.84479e-18)
(0.051649 0.200666 7.9282e-19)
(0.0538214 0.204347 7.22097e-19)
(0.0557158 0.206997 -6.58457e-19)
(0.0573701 0.208818 5.99685e-19)
(0.0588238 0.209977 0)
(0.0601129 0.210607 -6.01288e-22)
(0.0612679 0.210813 5.65869e-22)
(0.0623142 0.210672 -4.24568e-19)
(0.0632718 0.210242 0)
(0.0641565 0.209568 0)
(0.0649808 0.208683 5.73558e-18)
(0.065754 0.207609 -4.43693e-18)
(0.0664835 0.206366 0)
(0.0671749 0.204966 -4.43094e-18)
(0.0678325 0.203419 7.32814e-18)
(0.0684594 0.201732 -4.4628e-18)
(0.0690581 0.19991 0)
(0.0696302 0.197956 -3.98236e-18)
(0.070177 0.195872 3.39016e-18)
(0.0706993 0.193659 8.0395e-19)
(0.0711976 0.191318 -3.43729e-18)
(0.0716723 0.188849 2.57753e-18)
(0.0721235 0.18625 0)
(0.072551 0.18352 2.67195e-18)
(0.0729549 0.180659 -3.2326e-18)
(0.073335 0.177663 2.45767e-18)
(0.0736909 0.174532 -1.7933e-18)
(0.0740225 0.171262 -2.83908e-18)
(0.0743295 0.167852 2.20856e-18)
(0.0746116 0.1643 -5.28607e-19)
(0.0748685 0.160603 1.51187e-18)
(0.0751002 0.156757 -2.83937e-20)
(0.0753062 0.152761 -1.90221e-18)
(0.0754864 0.148612 0)
(0.0756407 0.144306 -2.61726e-18)
(0.0757688 0.139841 2.53573e-18)
(0.0758705 0.135214 -1.64582e-18)
(0.0759456 0.130421 0)
(0.0759939 0.12546 7.56983e-19)
(0.076015 0.120327 2.17624e-18)
(0.0760086 0.115019 6.71831e-19)
(0.0759743 0.109533 -3.38255e-20)
(0.0759114 0.103865 -6.71279e-19)
(0.0758193 0.0980109 2.47914e-18)
(0.075697 0.091968 -2.45535e-18)
(0.0755434 0.0857323 -1.16253e-18)
(0.0753572 0.0793 2.19388e-18)
(0.0751366 0.0726669 -1.64347e-18)
(0.0748796 0.065829 -2.05143e-18)
(0.0745838 0.0587819 2.89858e-18)
(0.0742483 0.0515209 -9.74487e-19)
(0.073875 0.0441482 0)
(0.0734698 0.0368718 -7.87367e-19)
(0.0730392 0.0297935 8.17346e-19)
(0.0725861 0.0229078 -2.49247e-18)
(0.0721114 0.0162079 1.7229e-18)
(0.0716154 0.00968566 -6.26332e-19)
(0.0710982 0.00333176 -1.41172e-18)
(0.07056 -0.00286495 6.848e-20)
(0.0700008 -0.00891717 6.59505e-20)
(0.069421 -0.0148395 9.39677e-19)
(0.0688207 -0.0206485 1.0126e-18)
(0.0682005 -0.026363 -5.93328e-20)
(0.0675612 -0.0320042 -5.5277e-19)
(0.0669042 -0.0375954 1.6003e-19)
(0.066231 -0.0431621 -5.52168e-19)
(0.0655435 -0.0487264 6.79709e-19)
(0.0648448 -0.0543019 0)
(0.0641384 -0.0598974 3.87443e-19)
(0.063428 -0.065523 -6.7309e-19)
(0.062718 -0.0711898 3.3095e-19)
(0.0620131 -0.0769084 2.69596e-19)
(0.0613185 -0.0826888 -2.33586e-19)
(0.0606395 -0.0885387 2.12057e-20)
(0.0599819 -0.0944634 -9.10187e-20)
(0.0593513 -0.100466 9.34047e-20)
(0.058753 -0.106545 6.24019e-21)
(0.0581908 -0.112706 1.56749e-21)
(0.0576668 -0.118948 0)
(0.0571836 -0.125259 3.08667e-21)
(0.0567424 -0.131616 -4.76724e-21)
(0.0563458 -0.137994 -6.27406e-21)
(0.0559957 -0.144377 2.51983e-19)
(0.0556934 -0.150757 -2.66322e-19)
(0.164285 -0.101382 -8.98451e-17)
(-0.0203962 -0.0576874 0)
(0.0071028 -0.0458534 1.37432e-16)
(0.00726162 -0.0390579 -8.63229e-17)
(0.00591227 -0.032897 -1.6949e-18)
(0.00519514 -0.027309 2.35874e-18)
(0.00485377 -0.0218314 2.92597e-17)
(0.00474349 -0.0161124 -2.55216e-17)
(0.00485379 -0.00988418 -1.38547e-18)
(0.00521208 -0.00290836 -2.1975e-17)
(0.00586523 0.00505287 1.97211e-17)
(0.00688143 0.0142276 1.18465e-18)
(0.00832966 0.0249329 -1.32099e-22)
(0.010352 0.0377244 1.16177e-18)
(0.0130726 0.0530513 1.14597e-18)
(0.0165101 0.0707226 1.75003e-17)
(0.0205736 0.0899565 -4.56706e-20)
(0.0250703 0.109561 -1.3748e-17)
(0.0297422 0.128232 0)
(0.0343355 0.144894 -7.05693e-19)
(0.0386558 0.158934 -8.57973e-18)
(0.0425588 0.170379 7.63718e-18)
(0.0460991 0.179693 7.91365e-18)
(0.0493035 0.187267 -7.29833e-18)
(0.0521436 0.193318 0)
(0.054658 0.198013 7.6562e-19)
(0.0568704 0.201536 0)
(0.0588069 0.204078 6.42485e-19)
(0.0605021 0.205819 1.17623e-18)
(0.0619934 0.206911 -5.39012e-19)
(0.0633155 0.20748 4.95244e-19)
(0.0644983 0.207622 -9.1341e-19)
(0.0655671 0.207414 8.43527e-19)
(0.066542 0.206912 -7.0087e-18)
(0.0674393 0.206159 5.82065e-18)
(0.0682718 0.205188 0)
(0.0690492 0.204023 5.03586e-18)
(0.0697793 0.202682 -3.56777e-18)
(0.070468 0.201179 0)
(0.0711198 0.199522 0)
(0.0717381 0.197719 4.94738e-19)
(0.0723257 0.195775 0)
(0.0728843 0.193694 -4.44249e-19)
(0.0734154 0.191476 0)
(0.07392 0.189124 -2.80144e-18)
(0.0743989 0.186637 3.08308e-18)
(0.0748524 0.184015 -7.3313e-19)
(0.0752809 0.181258 6.99664e-19)
(0.0756845 0.178363 0)
(0.0760632 0.175329 -6.41596e-19)
(0.076417 0.172155 6.15259e-19)
(0.0767459 0.168839 5.91615e-19)
(0.0770497 0.165377 -1.12065e-21)
(0.0773284 0.161768 0)
(0.0775818 0.158009 1.55761e-18)
(0.0778098 0.154098 -3.06421e-20)
(0.0780123 0.150031 -1.95707e-18)
(0.0781893 0.145807 9.33388e-19)
(0.0783406 0.141422 -8.84536e-19)
(0.078466 0.136873 8.81218e-19)
(0.0785654 0.132157 -1.65135e-18)
(0.0786387 0.127271 2.4078e-18)
(0.0786856 0.122213 -2.33529e-18)
(0.0787058 0.116979 -2.21407e-18)
(0.0786988 0.111566 1.45004e-18)
(0.0786641 0.105971 -6.89853e-19)
(0.0786011 0.10019 -2.61236e-18)
(0.0785089 0.0942205 1.30963e-18)
(0.0783863 0.0880588 -5.70952e-19)
(0.078232 0.0817015 3.56141e-18)
(0.0780444 0.0751451 3.42619e-21)
(0.0778213 0.0683859 -3.39304e-21)
(0.0775605 0.0614202 -2.01229e-18)
(0.077261 0.0542441 1.95335e-18)
(0.0769244 0.0469592 -2.81791e-18)
(0.0765555 0.039772 -1.69347e-18)
(0.0761605 0.0327836 2.48448e-18)
(0.0757422 0.0259895 -1.48101e-18)
(0.0753018 0.0193836 3.5448e-18)
(0.0748399 0.0129589 -1.02865e-18)
(0.0743565 0.00670685 1.18285e-18)
(0.0738517 0.000617416 -1.16319e-18)
(0.0733261 -0.00532106 -1.26567e-18)
(0.0727797 -0.011122 7.50617e-19)
(0.0722129 -0.0168011 6.2808e-19)
(0.0716262 -0.022376 -1.03998e-18)
(0.0710203 -0.027867 -1.83881e-19)
(0.0703965 -0.0332969 3.07173e-19)
(0.0697562 -0.0386907 -1.37617e-18)
(0.0691013 -0.0440735 5.80822e-19)
(0.0684344 -0.0494636 1.24117e-19)
(0.067759 -0.0548725 0)