/*--------------------------------*- C++ -*----------------------------------*\
  =========                 |
  \\      /  F ield         | OpenFOAM: The Open Source CFD Toolbox
   \\    /   O peration     | Website:  https://openfoam.org
    \\  /    A nd           | Version:  10
     \\/     M anipulation  |
\*---------------------------------------------------------------------------*/
FoamFile
{
    format      ascii;
    class       volScalarField;
    location    "69000";
    object      nut;
}
// * * * * * * * * * * * * * * * * * * * * * * * * * * * * * * * * * * * * * //

dimensions      [0 2 -1 0 0 0 0];

internalField   nonuniform List<scalar> 
17808
(
2.63675e-06
1.87782e-05
3.2707e-05
4.6383e-05
6.08404e-05
7.58437e-05
9.12907e-05
0.000107131
0.000123336
0.000139892
0.00015679
0.000174026
0.000191598
0.000209508
0.000227757
0.000246349
0.000265286
0.000284574
0.000304217
0.000324221
0.000344589
0.000365329
0.000386446
0.000407945
0.000429834
0.000452119
0.000474806
0.000497901
0.000521412
0.000545346
0.000569709
0.000594508
0.000619751
0.000645445
0.000671597
0.000698215
0.000725306
0.000752877
0.000780936
0.00080949
0.000838547
0.000868115
0.0008982
0.00092881
0.000959952
0.000991635
0.00102386
0.00105665
0.00108999
0.0011239
0.00115839
0.00119346
0.00122911
0.00126536
0.00130221
0.00133966
0.00137772
0.00141639
0.00145568
0.0014956
0.00153614
0.00157731
0.00161912
0.00166156
0.00170462
0.00174832
0.00179265
0.0018376
0.00188318
0.00192938
0.0019762
0.00202364
0.00207168
0.00212031
0.00216953
0.00221933
0.00226969
0.00232061
0.00237205
0.00242401
0.00247646
0.00252938
0.00258275
0.00263654
0.00269072
0.00274525
0.00280011
0.00285526
0.00291064
0.00296623
0.00302197
0.0030778
2.6258e-06
1.90865e-05
3.26923e-05
4.63696e-05
6.08237e-05
7.58236e-05
9.12678e-05
0.000107105
0.000123309
0.000139863
0.000156759
0.000173994
0.000191566
0.000209476
0.000227725
0.000246316
0.000265254
0.000284542
0.000304185
0.000324188
0.000344557
0.000365297
0.000386414
0.000407915
0.000429804
0.000452089
0.000474776
0.000497872
0.000521383
0.000545317
0.000569681
0.000594481
0.000619724
0.000645419
0.000671571
0.000698189
0.000725281
0.000752852
0.000780912
0.000809466
0.000838524
0.000868091
0.000898177
0.000928787
0.00095993
0.000991613
0.00102384
0.00105663
0.00108997
0.00112388
0.00115837
0.00119344
0.00122909
0.00126534
0.00130219
0.00133964
0.0013777
0.00141637
0.00145567
0.00149558
0.00153613
0.0015773
0.0016191
0.00166154
0.00170461
0.00174831
0.00179263
0.00183759
0.00188317
0.00192937
0.00197619
0.00202362
0.00207166
0.0021203
0.00216952
0.00221932
0.00226968
0.0023206
0.00237204
0.002424
0.00247645
0.00252937
0.00258274
0.00263653
0.00269071
0.00274525
0.00280011
0.00285525
0.00291064
0.00296623
0.00302196
0.0030778
2.62003e-06
1.91614e-05
3.26736e-05
4.63523e-05
6.08044e-05
7.5803e-05
9.12459e-05
0.000107082
0.000123285
0.000139838
0.000156734
0.000173968
0.00019154
0.000209449
0.000227698
0.000246289
0.000265227
0.000284515
0.000304159
0.000324162
0.000344531
0.000365271
0.000386389
0.000407889
0.000429779
0.000452064
0.000474751
0.000497847
0.000521359
0.000545293
0.000569657
0.000594457
0.000619701
0.000645396
0.000671549
0.000698167
0.000725259
0.000752831
0.00078089
0.000809445
0.000838503
0.000868071
0.000898157
0.000928768
0.000959911
0.000991594
0.00102382
0.00105661
0.00108995
0.00112387
0.00115835
0.00119342
0.00122908
0.00126532
0.00130217
0.00133962
0.00137768
0.00141636
0.00145565
0.00149557
0.00153611
0.00157729
0.00161909
0.00166153
0.0017046
0.00174829
0.00179262
0.00183757
0.00188316
0.00192936
0.00197618
0.00202361
0.00207165
0.00212029
0.00216951
0.00221931
0.00226968
0.00232059
0.00237203
0.00242399
0.00247644
0.00252937
0.00258274
0.00263653
0.00269071
0.00274524
0.00280011
0.00285525
0.00291064
0.00296622
0.00302196
0.0030778
2.61876e-06
1.91427e-05
3.26601e-05
4.63375e-05
6.07875e-05
7.57848e-05
9.12264e-05
0.000107062
0.000123263
0.000139816
0.000156711
0.000173945
0.000191517
0.000209426
0.000227675
0.000246266
0.000265204
0.000284492
0.000304136
0.000324139
0.000344509
0.000365249
0.000386366
0.000407867
0.000429757
0.000452042
0.00047473
0.000497826
0.000521338
0.000545272
0.000569636
0.000594436
0.000619681
0.000645375
0.000671529
0.000698147
0.000725239
0.000752811
0.000780871
0.000809426
0.000838484
0.000868053
0.000898139
0.00092875
0.000959893
0.000991576
0.00102381
0.00105659
0.00108994
0.00112385
0.00115834
0.0011934
0.00122906
0.00126531
0.00130216
0.00133961
0.00137767
0.00141634
0.00145564
0.00149556
0.0015361
0.00157727
0.00161908
0.00166151
0.00170458
0.00174828
0.00179261
0.00183756
0.00188314
0.00192935
0.00197617
0.0020236
0.00207164
0.00212028
0.00216951
0.00221931
0.00226967
0.00232058
0.00237203
0.00242398
0.00247644
0.00252936
0.00258273
0.00263652
0.0026907
0.00274524
0.0028001
0.00285525
0.00291064
0.00296622
0.00302196
0.0030778
2.61815e-06
1.91347e-05
3.2652e-05
4.63273e-05
6.07762e-05
7.57725e-05
9.12128e-05
0.000107047
0.000123247
0.000139799
0.000156693
0.000173927
0.000191497
0.000209406
0.000227655
0.000246246
0.000265184
0.000284472
0.000304116
0.000324119
0.000344489
0.000365229
0.000386347
0.000407847
0.000429737
0.000452023
0.00047471
0.000497807
0.000521319
0.000545254
0.000569618
0.000594418
0.000619662
0.000645357
0.000671511
0.00069813
0.000725221
0.000752794
0.000780854
0.000809409
0.000838467
0.000868036
0.000898122
0.000928733
0.000959877
0.00099156
0.00102379
0.00105658
0.00108992
0.00112383
0.00115832
0.00119339
0.00122905
0.00126529
0.00130214
0.00133959
0.00137766
0.00141633
0.00145563
0.00149554
0.00153609
0.00157726
0.00161907
0.0016615
0.00170457
0.00174827
0.0017926
0.00183755
0.00188313
0.00192934
0.00197616
0.0020236
0.00207164
0.00212027
0.0021695
0.0022193
0.00226966
0.00232057
0.00237202
0.00242398
0.00247643
0.00252936
0.00258273
0.00263652
0.0026907
0.00274524
0.0028001
0.00285525
0.00291063
0.00296622
0.00302196
0.0030778
2.61748e-06
1.91321e-05
3.26464e-05
4.63193e-05
6.07678e-05
7.57632e-05
9.12024e-05
0.000107035
0.000123234
0.000139785
0.000156679
0.000173911
0.000191482
0.00020939
0.000227638
0.000246229
0.000265167
0.000284455
0.000304098
0.000324102
0.000344471
0.000365212
0.00038633
0.00040783
0.00042972
0.000452006
0.000474694
0.00049779
0.000521302
0.000545237
0.000569601
0.000594402
0.000619646
0.000645341
0.000671495
0.000698114
0.000725205
0.000752778
0.000780838
0.000809394
0.000838452
0.00086802
0.000898107
0.000928718
0.000959862
0.000991546
0.00102378
0.00105656
0.00108991
0.00112382
0.00115831
0.00119338
0.00122903
0.00126528
0.00130213
0.00133958
0.00137764
0.00141632
0.00145561
0.00149553
0.00153608
0.00157725
0.00161905
0.00166149
0.00170456
0.00174826
0.00179259
0.00183754
0.00188312
0.00192933
0.00197615
0.00202359
0.00207163
0.00212026
0.00216949
0.00221929
0.00226965
0.00232057
0.00237201
0.00242397
0.00247643
0.00252935
0.00258272
0.00263651
0.0026907
0.00274524
0.0028001
0.00285524
0.00291063
0.00296622
0.00302196
0.0030778
2.61715e-06
1.91281e-05
3.26422e-05
4.63125e-05
6.07605e-05
7.5755e-05
9.11934e-05
0.000107025
0.000123224
0.000139773
0.000156666
0.000173898
0.000191468
0.000209376
0.000227624
0.000246214
0.000265152
0.00028444
0.000304083
0.000324087
0.000344456
0.000365196
0.000386314
0.000407815
0.000429705
0.00045199
0.000474678
0.000497775
0.000521287
0.000545222
0.000569586
0.000594387
0.000619631
0.000645326
0.00067148
0.000698099
0.000725191
0.000752764
0.000780824
0.000809379
0.000838438
0.000868007
0.000898093
0.000928705
0.000959848
0.000991532
0.00102376
0.00105655
0.00108989
0.00112381
0.00115829
0.00119336
0.00122902
0.00126527
0.00130212
0.00133957
0.00137763
0.00141631
0.0014556
0.00149552
0.00153607
0.00157724
0.00161904
0.00166148
0.00170455
0.00174825
0.00179258
0.00183753
0.00188311
0.00192932
0.00197614
0.00202358
0.00207162
0.00212026
0.00216948
0.00221928
0.00226965
0.00232056
0.00237201
0.00242397
0.00247642
0.00252935
0.00258272
0.00263651
0.00269069
0.00274523
0.0028001
0.00285524
0.00291063
0.00296622
0.00302196
0.0030778
2.61715e-06
1.91244e-05
3.26391e-05
4.63069e-05
6.07543e-05
7.5748e-05
9.11858e-05
0.000107017
0.000123214
0.000139763
0.000156655
0.000173887
0.000191456
0.000209363
0.000227611
0.000246201
0.000265138
0.000284426
0.000304069
0.000324073
0.000344442
0.000365182
0.0003863
0.000407801
0.000429691
0.000451976
0.000474664
0.000497761
0.000521273
0.000545208
0.000569572
0.000594373
0.000619618
0.000645313
0.000671467
0.000698086
0.000725178
0.00075275
0.000780811
0.000809367
0.000838425
0.000867994
0.00089808
0.000928692
0.000959836
0.00099152
0.00102375
0.00105654
0.00108988
0.00112379
0.00115828
0.00119335
0.00122901
0.00126526
0.00130211
0.00133956
0.00137762
0.0014163
0.00145559
0.00149551
0.00153606
0.00157723
0.00161903
0.00166147
0.00170454
0.00174824
0.00179257
0.00183752
0.00188311
0.00192931
0.00197613
0.00202357
0.00207161
0.00212025
0.00216948
0.00221928
0.00226964
0.00232056
0.002372
0.00242396
0.00247642
0.00252934
0.00258272
0.00263651
0.00269069
0.00274523
0.00280009
0.00285524
0.00291063
0.00296622
0.00302196
0.0030778
2.61731e-06
1.9122e-05
3.26371e-05
4.63024e-05
6.07489e-05
7.5742e-05
9.11792e-05
0.00010701
0.000123207
0.000139755
0.000156646
0.000173877
0.000191445
0.000209352
0.000227599
0.000246189
0.000265126
0.000284414
0.000304057
0.00032406
0.000344429
0.00036517
0.000386287
0.000407788
0.000429678
0.000451964
0.000474652
0.000497748
0.000521261
0.000545196
0.00056956
0.000594361
0.000619605
0.000645301
0.000671454
0.000698074
0.000725166
0.000752739
0.000780799
0.000809355
0.000838413
0.000867982
0.000898069
0.000928681
0.000959825
0.000991509
0.00102374
0.00105652
0.00108987
0.00112378
0.00115827
0.00119334
0.001229
0.00126525
0.0013021
0.00133955
0.00137761
0.00141629
0.00145558
0.0014955
0.00153605
0.00157722
0.00161902
0.00166146
0.00170453
0.00174823
0.00179256
0.00183751
0.0018831
0.0019293
0.00197613
0.00202356
0.0020716
0.00212024
0.00216947
0.00221927
0.00226964
0.00232055
0.002372
0.00242396
0.00247641
0.00252934
0.00258271
0.00263651
0.00269069
0.00274523
0.00280009
0.00285524
0.00291063
0.00296622
0.00302196
0.0030778
2.61755e-06
1.91205e-05
3.26359e-05
4.62989e-05
6.07444e-05
7.57368e-05
9.11736e-05
0.000107004
0.0001232
0.000139747
0.000156638
0.000173868
0.000191436
0.000209342
0.000227589
0.000246179
0.000265115
0.000284403
0.000304045
0.000324049
0.000344418
0.000365158
0.000386275
0.000407776
0.000429666
0.000451952
0.00047464
0.000497737
0.000521249
0.000545184
0.000569548
0.000594349
0.000619594
0.000645289
0.000671443
0.000698062
0.000725155
0.000752727
0.000780788
0.000809344
0.000838403
0.000867972
0.000898058
0.00092867
0.000959814
0.000991498
0.00102373
0.00105651
0.00108986
0.00112377
0.00115826
0.00119333
0.00122899
0.00126524
0.00130209
0.00133954
0.0013776
0.00141628
0.00145557
0.00149549
0.00153604
0.00157721
0.00161902
0.00166145
0.00170452
0.00174822
0.00179255
0.00183751
0.00188309
0.0019293
0.00197612
0.00202356
0.0020716
0.00212024
0.00216946
0.00221927
0.00226963
0.00232055
0.00237199
0.00242395
0.00247641
0.00252934
0.00258271
0.0026365
0.00269069
0.00274523
0.00280009
0.00285524
0.00291063
0.00296622
0.00302196
0.0030778
2.61784e-06
1.91196e-05
3.26354e-05
4.62961e-05
6.07405e-05
7.57323e-05
9.11686e-05
0.000106998
0.000123194
0.000139741
0.000156631
0.00017386
0.000191428
0.000209334
0.00022758
0.000246169
0.000265106
0.000284393
0.000304035
0.000324038
0.000344407
0.000365147
0.000386265
0.000407765
0.000429655
0.000451941
0.000474629
0.000497726
0.000521238
0.000545173
0.000569537
0.000594338
0.000619583
0.000645279
0.000671433
0.000698052
0.000725144
0.000752717
0.000780778
0.000809334
0.000838393
0.000867962
0.000898048
0.00092866
0.000959805
0.000991489
0.00102372
0.0010565
0.00108985
0.00112376
0.00115825
0.00119332
0.00122898
0.00126523
0.00130208
0.00133953
0.00137759
0.00141627
0.00145557
0.00149549
0.00153603
0.0015772
0.00161901
0.00166144
0.00170451
0.00174821
0.00179254
0.0018375
0.00188308
0.00192929
0.00197611
0.00202355
0.00207159
0.00212023
0.00216946
0.00221926
0.00226963
0.00232054
0.00237199
0.00242395
0.00247641
0.00252933
0.00258271
0.0026365
0.00269069
0.00274523
0.00280009
0.00285524
0.00291063
0.00296622
0.00302197
0.00307781
2.61818e-06
1.9119e-05
3.26355e-05
4.62941e-05
6.07372e-05
7.57283e-05
9.11641e-05
0.000106993
0.000123188
0.000139735
0.000156624
0.000173853
0.00019142
0.000209326
0.000227572
0.000246161
0.000265097
0.000284384
0.000304026
0.000324029
0.000344398
0.000365138
0.000386255
0.000407755
0.000429645
0.000451931
0.000474619
0.000497716
0.000521228
0.000545163
0.000569527
0.000594328
0.000619573
0.000645269
0.000671423
0.000698042
0.000725135
0.000752708
0.000780768
0.000809324
0.000838383
0.000867952
0.000898039
0.000928651
0.000959796
0.00099148
0.00102371
0.0010565
0.00108984
0.00112376
0.00115824
0.00119331
0.00122897
0.00126522
0.00130207
0.00133952
0.00137759
0.00141626
0.00145556
0.00149548
0.00153602
0.0015772
0.001619
0.00166144
0.0017045
0.0017482
0.00179253
0.00183749
0.00188308
0.00192928
0.00197611
0.00202354
0.00207159
0.00212023
0.00216945
0.00221926
0.00226962
0.00232054
0.00237199
0.00242395
0.0024764
0.00252933
0.00258271
0.0026365
0.00269069
0.00274523
0.00280009
0.00285524
0.00291064
0.00296623
0.00302197
0.00307781
2.61852e-06
1.91188e-05
3.26361e-05
4.62927e-05
6.07344e-05
7.57248e-05
9.11602e-05
0.000106989
0.000123184
0.00013973
0.000156619
0.000173847
0.000191414
0.000209319
0.000227564
0.000246153
0.000265089
0.000284375
0.000304018
0.00032402
0.000344389
0.000365129
0.000386246
0.000407746
0.000429636
0.000451922
0.00047461
0.000497706
0.000521219
0.000545154
0.000569518
0.000594319
0.000619564
0.00064526
0.000671414
0.000698033
0.000725126
0.000752699
0.000780759
0.000809315
0.000838374
0.000867944
0.000898031
0.000928643
0.000959787
0.000991471
0.0010237
0.00105649
0.00108983
0.00112375
0.00115824
0.00119331
0.00122896
0.00126521
0.00130206
0.00133952
0.00137758
0.00141626
0.00145555
0.00149547
0.00153602
0.00157719
0.00161899
0.00166143
0.0017045
0.0017482
0.00179253
0.00183749
0.00188307
0.00192928
0.0019761
0.00202354
0.00207158
0.00212022
0.00216945
0.00221925
0.00226962
0.00232053
0.00237198
0.00242395
0.0024764
0.00252933
0.00258271
0.0026365
0.00269069
0.00274523
0.00280009
0.00285524
0.00291064
0.00296623
0.00302197
0.00307781
2.61887e-06
1.91189e-05
3.26371e-05
4.62919e-05
6.07322e-05
7.57218e-05
9.11567e-05
0.000106985
0.000123179
0.000139725
0.000156614
0.000173842
0.000191408
0.000209313
0.000227558
0.000246146
0.000265082
0.000284368
0.00030401
0.000324012
0.000344381
0.000365121
0.000386238
0.000407738
0.000429628
0.000451913
0.000474601
0.000497698
0.00052121
0.000545145
0.000569509
0.00059431
0.000619555
0.000645251
0.000671405
0.000698025
0.000725117
0.00075269
0.000780751
0.000809307
0.000838366
0.000867936
0.000898023
0.000928635
0.000959779
0.000991464
0.00102369
0.00105648
0.00108983
0.00112374
0.00115823
0.0011933
0.00122896
0.00126521
0.00130206
0.00133951
0.00137757
0.00141625
0.00145555
0.00149547
0.00153601
0.00157718
0.00161899
0.00166142
0.00170449
0.00174819
0.00179252
0.00183748
0.00188306
0.00192927
0.0019761
0.00202353
0.00207158
0.00212022
0.00216945
0.00221925
0.00226962
0.00232053
0.00237198
0.00242394
0.0024764
0.00252933
0.00258271
0.0026365
0.00269069
0.00274523
0.0028001
0.00285525
0.00291064
0.00296623
0.00302198
0.00307782
2.61922e-06
1.91192e-05
3.26385e-05
4.62916e-05
6.07305e-05
7.57192e-05
9.11535e-05
0.000106982
0.000123176
0.000139721
0.000156609
0.000173837
0.000191403
0.000209307
0.000227552
0.00024614
0.000265075
0.000284361
0.000304003
0.000324005
0.000344373
0.000365113
0.00038623
0.00040773
0.00042962
0.000451905
0.000474593
0.00049769
0.000521202
0.000545137
0.000569501
0.000594302
0.000619547
0.000645243
0.000671397
0.000698017
0.000725109
0.000752682
0.000780743
0.000809299
0.000838358
0.000867928
0.000898015
0.000928627
0.000959772
0.000991456
0.00102369
0.00105647
0.00108982
0.00112373
0.00115822
0.00119329
0.00122895
0.0012652
0.00130205
0.0013395
0.00137757
0.00141624
0.00145554
0.00149546
0.00153601
0.00157718
0.00161898
0.00166142
0.00170449
0.00174819
0.00179252
0.00183747
0.00188306
0.00192927
0.00197609
0.00202353
0.00207157
0.00212021
0.00216944
0.00221925
0.00226961
0.00232053
0.00237198
0.00242394
0.0024764
0.00252933
0.00258271
0.0026365
0.00269069
0.00274523
0.0028001
0.00285525
0.00291064
0.00296624
0.00302198
0.00307782
2.61954e-06
1.91197e-05
3.26401e-05
4.62918e-05
6.07292e-05
7.5717e-05
9.11508e-05
0.000106978
0.000123172
0.000139717
0.000156605
0.000173832
0.000191398
0.000209302
0.000227546
0.000246134
0.000265069
0.000284355
0.000303997
0.000323999
0.000344367
0.000365106
0.000386223
0.000407723
0.000429613
0.000451898
0.000474586
0.000497682
0.000521194
0.000545129
0.000569494
0.000594295
0.00061954
0.000645235
0.000671389
0.000698009
0.000725102
0.000752675
0.000780736
0.000809292
0.000838351
0.000867921
0.000898008
0.00092862
0.000959765
0.00099145
0.00102368
0.00105647
0.00108981
0.00112373
0.00115822
0.00119329
0.00122894
0.00126519
0.00130204
0.0013395
0.00137756
0.00141624
0.00145554
0.00149546
0.001536
0.00157717
0.00161898
0.00166141
0.00170448
0.00174818
0.00179251
0.00183747
0.00188306
0.00192926
0.00197609
0.00202353
0.00207157
0.00212021
0.00216944
0.00221924
0.00226961
0.00232053
0.00237198
0.00242394
0.0024764
0.00252933
0.00258271
0.0026365
0.00269069
0.00274523
0.0028001
0.00285525
0.00291065
0.00296624
0.00302198
0.00307783
2.61986e-06
1.91203e-05
3.2642e-05
4.62923e-05
6.07284e-05
7.57152e-05
9.11484e-05
0.000106976
0.000123169
0.000139714
0.000156601
0.000173828
0.000191393
0.000209297
0.000227541
0.000246129
0.000265064
0.000284349
0.000303991
0.000323993
0.000344361
0.0003651
0.000386217
0.000407717
0.000429606
0.000451891
0.000474579
0.000497675
0.000521188
0.000545122
0.000569487
0.000594288
0.000619533
0.000645228
0.000671382
0.000698002
0.000725095
0.000752668
0.000780729
0.000809285
0.000838344
0.000867914
0.000898001
0.000928614
0.000959759
0.000991443
0.00102367
0.00105646
0.00108981
0.00112372
0.00115821
0.00119328
0.00122894
0.00126519
0.00130204
0.00133949
0.00137756
0.00141623
0.00145553
0.00149545
0.001536
0.00157717
0.00161897
0.00166141
0.00170448
0.00174818
0.00179251
0.00183747
0.00188305
0.00192926
0.00197609
0.00202352
0.00207157
0.00212021
0.00216944
0.00221924
0.00226961
0.00232053
0.00237198
0.00242394
0.0024764
0.00252933
0.00258271
0.0026365
0.00269069
0.00274524
0.0028001
0.00285525
2.62015e-06
1.91211e-05
3.26441e-05
4.62933e-05
6.0728e-05
7.57138e-05
9.11463e-05
0.000106973
0.000123166
0.000139711
0.000156598
0.000173825
0.00019139
0.000209293
0.000227537
0.000246124
0.000265059
0.000284344
0.000303985
0.000323987
0.000344355
0.000365094
0.000386211
0.00040771
0.0004296
0.000451885
0.000474572
0.000497669
0.000521181
0.000545116
0.00056948
0.000594281
0.000619526
0.000645222
0.000671376
0.000697995
0.000725088
0.000752661
0.000780722
0.000809279
0.000838338
0.000867908
0.000897995
0.000928608
0.000959753
0.000991437
0.00102367
0.00105645
0.0010898
0.00112372
0.00115821
0.00119328
0.00122893
0.00126518
0.00130203
0.00133949
0.00137755
0.00141623
0.00145553
0.00149545
0.00153599
0.00157717
0.00161897
0.00166141
0.00170447
0.00174817
0.0017925
0.00183746
0.00188305
0.00192926
0.00197608
0.00202352
0.00207157
0.00212021
0.00216944
0.00221924
0.00226961
0.00232053
0.00237198
0.00242394
0.0024764
0.00252933
0.00258271
0.00263651
0.0026907
0.00274524
0.00280011
0.00285526
2.62043e-06
1.91221e-05
3.26463e-05
4.62945e-05
6.0728e-05
7.57128e-05
9.11446e-05
0.000106971
0.000123164
0.000139708
0.000156595
0.000173821
0.000191386
0.000209289
0.000227533
0.00024612
0.000265054
0.000284339
0.00030398
0.000323982
0.00034435
0.000365089
0.000386205
0.000407705
0.000429594
0.000451879
0.000474567
0.000497663
0.000521175
0.00054511
0.000569474
0.000594275
0.00061952
0.000645216
0.00067137
0.000697989
0.000725082
0.000752655
0.000780716
0.000809273
0.000838332
0.000867902
0.000897989
0.000928602
0.000959747
0.000991432
0.00102366
0.00105645
0.0010898
0.00112371
0.0011582
0.00119327
0.00122893
0.00126518
0.00130203
0.00133948
0.00137755
0.00141623
0.00145552
0.00149544
0.00153599
0.00157716
0.00161897
0.0016614
0.00170447
0.00174817
0.0017925
0.00183746
0.00188305
0.00192925
0.00197608
0.00202352
0.00207157
0.00212021
0.00216944
0.00221924
0.00226961
0.00232053
0.00237198
0.00242394
0.0024764
0.00252933
0.00258271
0.00263651
0.0026907
0.00274524
0.00280011
0.00285526
2.62068e-06
1.91231e-05
3.26486e-05
4.62961e-05
6.07283e-05
7.57121e-05
9.11432e-05
0.000106969
0.000123162
0.000139705
0.000156592
0.000173818
0.000191383
0.000209286
0.000227529
0.000246116
0.00026505
0.000284335
0.000303976
0.000323977
0.000344345
0.000365084
0.0003862
0.0004077
0.000429589
0.000451874
0.000474561
0.000497658
0.00052117
0.000545104
0.000569469
0.00059427
0.000619514
0.00064521
0.000671364
0.000697984
0.000725076
0.00075265
0.000780711
0.000809267
0.000838327
0.000867896
0.000897984
0.000928596
0.000959742
0.000991427
0.00102366
0.00105644
0.00108979
0.00112371
0.0011582
0.00119327
0.00122892
0.00126518
0.00130203
0.00133948
0.00137754
0.00141622
0.00145552
0.00149544
0.00153599
0.00157716
0.00161896
0.0016614
0.00170447
0.00174817
0.0017925
0.00183746
0.00188304
0.00192925
0.00197608
0.00202352
0.00207156
0.00212021
0.00216944
0.00221924
0.00226961
0.00232053
0.00237198
0.00242395
0.00247641
0.00252934
0.00258272
0.00263651
0.0026907
2.62092e-06
1.91241e-05
3.2651e-05
4.62979e-05
6.0729e-05
7.57118e-05
9.11421e-05
0.000106967
0.00012316
0.000139703
0.00015659
0.000173816
0.00019138
0.000209282
0.000227526
0.000246112
0.000265046
0.000284331
0.000303972
0.000323973
0.00034434
0.000365079
0.000386196
0.000407695
0.000429584
0.000451869
0.000474556
0.000497653
0.000521165
0.000545099
0.000569463
0.000594264
0.000619509
0.000645205
0.000671359
0.000697978
0.000725071
0.000752644
0.000780705
0.000809262
0.000838321
0.000867891
0.000897979
0.000928591
0.000959737
0.000991422
0.00102365
0.00105644
0.00108979
0.0011237
0.00115819
0.00119326
0.00122892
0.00126517
0.00130202
0.00133948
0.00137754
0.00141622
0.00145552
0.00149544
0.00153598
0.00157716
0.00161896
0.0016614
0.00170446
0.00174816
0.0017925
0.00183746
0.00188304
0.00192925
0.00197608
0.00202352
0.00207156
0.00212021
0.00216944
0.00221924
0.00226961
0.00232053
0.00237198
0.00242395
0.00247641
0.00252934
0.00258272
0.00263652
0.0026907
2.62114e-06
1.91253e-05
3.26534e-05
4.62999e-05
6.073e-05
7.57118e-05
9.11413e-05
0.000106966
0.000123158
0.000139701
0.000156587
0.000173813
0.000191377
0.000209279
0.000227522
0.000246109
0.000265043
0.000284327
0.000303968
0.000323969
0.000344336
0.000365075
0.000386191
0.000407691
0.00042958
0.000451865
0.000474552
0.000497648
0.00052116
0.000545095
0.000569459
0.00059426
0.000619504
0.0006452
0.000671354
0.000697974
0.000725066
0.00075264
0.000780701
0.000809257
0.000838317
0.000867886
0.000897974
0.000928587
0.000959732
0.000991417
0.00102365
0.00105644
0.00108978
0.0011237
0.00115819
0.00119326
0.00122892
0.00126517
0.00130202
0.00133947
0.00137754
0.00141622
0.00145551
0.00149543
0.00153598
0.00157715
0.00161896
0.0016614
0.00170446
0.00174816
0.00179249
0.00183745
0.00188304
0.00192925
0.00197608
0.00202352
0.00207156
0.00212021
0.00216944
0.00221924
0.00226961
0.00232053
0.00237199
0.00242395
0.00247641
0.00252935
0.00258273
0.00263652
0.00269071
2.62134e-06
1.91265e-05
3.26558e-05
4.63021e-05
6.07313e-05
7.57121e-05
9.11408e-05
0.000106965
0.000123156
0.000139699
0.000156585
0.000173811
0.000191374
0.000209277
0.00022752
0.000246106
0.000265039
0.000284324
0.000303964
0.000323966
0.000344333
0.000365071
0.000386188
0.000407687
0.000429576
0.000451861
0.000474548
0.000497644
0.000521156
0.00054509
0.000569454
0.000594255
0.0006195
0.000645195
0.000671349
0.000697969
0.000725062
0.000752635
0.000780696
0.000809253
0.000838312
0.000867882
0.00089797
0.000928583
0.000959728
0.000991413
0.00102365
0.00105643
0.00108978
0.00112369
0.00115818
0.00119326
0.00122891
0.00126517
0.00130202
0.00133947
0.00137754
0.00141622
0.00145551
0.00149543
0.00153598
0.00157715
0.00161896
0.00166139
0.00170446
0.00174816
0.00179249
0.00183745
0.00188304
0.00192925
0.00197608
0.00202352
0.00207157
0.00212021
0.00216944
0.00221925
0.00226962
0.00232054
0.00237199
0.00242396
0.00247642
0.00252935
0.00258273
0.00263653
0.00269072
2.62153e-06
1.91278e-05
3.26583e-05
4.63045e-05
6.07329e-05
7.57128e-05
9.11407e-05
0.000106964
0.000123155
0.000139698
0.000156584
0.000173809
0.000191372
0.000209274
0.000227517
0.000246103
0.000265037
0.000284321
0.000303961
0.000323962
0.000344329
0.000365068
0.000386184
0.000407683
0.000429572
0.000451857
0.000474544
0.00049764
0.000521152
0.000545086
0.000569451
0.000594251
0.000619496
0.000645191
0.000671345
0.000697965
0.000725058
0.000752631
0.000780692
0.000809249
0.000838308
0.000867878
0.000897966
0.000928579
0.000959724
0.00099141
0.00102364
0.00105643
0.00108978
0.00112369
0.00115818
0.00119325
0.00122891
0.00126516
0.00130201
0.00133947
0.00137753
0.00141621
0.00145551
0.00149543
0.00153598
0.00157715
0.00161896
0.00166139
0.00170446
0.00174816
0.00179249
0.00183745
0.00188304
0.00192925
0.00197608
0.00202352
0.00207157
0.00212021
0.00216944
0.00221925
0.00226962
0.00232054
0.00237199
0.00242396
0.00247642
0.00252936
0.00258274
0.00263654
0.00269072
2.62171e-06
1.91291e-05
3.26608e-05
4.6307e-05
6.07347e-05
7.57137e-05
9.11408e-05
0.000106964
0.000123154
0.000139696
0.000156582
0.000173807
0.00019137
0.000209272
0.000227515
0.000246101
0.000265034
0.000284318
0.000303958
0.000323959
0.000344326
0.000365065
0.000386181
0.00040768
0.000429569
0.000451853
0.000474541
0.000497637
0.000521148
0.000545083
0.000569447
0.000594248
0.000619492
0.000645188
0.000671342
0.000697961
0.000725054
0.000752627
0.000780689
0.000809245
0.000838305
0.000867875
0.000897962
0.000928575
0.000959721
0.000991406
0.00102364
0.00105643
0.00108977
0.00112369
0.00115818
0.00119325
0.00122891
0.00126516
0.00130201
0.00133947
0.00137753
0.00141621
0.00145551
0.00149543
0.00153598
0.00157715
0.00161896
0.00166139
0.00170446
0.00174816
0.00179249
0.00183745
0.00188304
0.00192925
0.00197608
0.00202352
0.00207157
0.00212021
0.00216944
0.00221925
0.00226962
0.00232055
0.002372
0.00242397
0.00247643
0.00252936
0.00258274
0.00263654
0.00269073
2.62187e-06
1.91304e-05
3.26632e-05
4.63097e-05
6.07368e-05
7.57149e-05
9.11412e-05
0.000106963
0.000123153
0.000139695
0.000156581
0.000173805
0.000191368
0.00020927
0.000227513
0.000246098
0.000265031
0.000284316
0.000303956
0.000323957
0.000344323
0.000365062
0.000386178
0.000407677
0.000429566
0.00045185
0.000474537
0.000497633
0.000521145
0.00054508
0.000569444
0.000594244
0.000619489
0.000645185
0.000671339
0.000697958
0.000725051
0.000752624
0.000780685
0.000809242
0.000838302
0.000867872
0.000897959
0.000928572
0.000959718
0.000991403
0.00102364
0.00105642
0.00108977
0.00112369
0.00115818
0.00119325
0.00122891
0.00126516
0.00130201
0.00133947
0.00137753
0.00141621
0.00145551
0.00149543
0.00153598
0.00157715
0.00161896
0.00166139
0.00170446
0.00174816
0.00179249
0.00183745
0.00188304
0.00192925
0.00197608
0.00202352
0.00207157
0.00212022
0.00216945
0.00221926
0.00226963
0.00232055
0.00237201
0.00242397
0.00247644
0.00252937
0.00258275
0.00263655
0.00269074
2.62202e-06
1.91318e-05
3.26656e-05
4.63124e-05
6.0739e-05
7.57164e-05
9.11419e-05
0.000106964
0.000123153
0.000139694
0.00015658
0.000173804
0.000191367
0.000209268
0.000227511
0.000246096
0.000265029
0.000284313
0.000303953
0.000323954
0.000344321
0.000365059
0.000386175
0.000407674
0.000429563
0.000451848
0.000474535
0.000497631
0.000521142
0.000545077
0.000569441
0.000594242
0.000619486
0.000645182
0.000671336
0.000697955
0.000725048
0.000752621
0.000780682
0.000809239
0.000838299
0.000867869
0.000897957
0.00092857
0.000959715
0.000991401
0.00102363
0.00105642
0.00108977
0.00112368
0.00115817
0.00119325
0.0012289
0.00126516
0.00130201
0.00133946
0.00137753
0.00141621
0.00145551
0.00149543
0.00153598
0.00157715
0.00161896
0.00166139
0.00170446
0.00174816
0.00179249
0.00183745
0.00188304
0.00192925
0.00197608
0.00202353
0.00207157
0.00212022
0.00216945
0.00221926
0.00226963
0.00232056
0.00237201
0.00242398
0.00247644
0.00252938
0.00258276
0.00263656
0.00269075
2.62217e-06
1.91331e-05
3.2668e-05
4.63152e-05
6.07415e-05
7.57181e-05
9.11429e-05
0.000106964
0.000123153
0.000139694
0.000156579
0.000173803
0.000191366
0.000209267
0.000227509
0.000246095
0.000265027
0.000284311
0.000303951
0.000323952
0.000344319
0.000365057
0.000386173
0.000407672
0.000429561
0.000451845
0.000474532
0.000497628
0.00052114
0.000545074
0.000569438
0.000594239
0.000619483
0.000645179
0.000671333
0.000697953
0.000725045
0.000752619
0.00078068
0.000809237
0.000838296
0.000867866
0.000897954
0.000928567
0.000959713
0.000991399
0.00102363
0.00105642
0.00108977
0.00112368
0.00115817
0.00119324
0.0012289
0.00126516
0.00130201
0.00133946
0.00137753
0.00141621
0.00145551
0.00149543
0.00153598
0.00157715
0.00161896
0.00166139
0.00170446
0.00174816
0.00179249
0.00183746
0.00188304
0.00192926
0.00197609
0.00202353
0.00207158
0.00212022
0.00216946
0.00221927
0.00226964
0.00232056
0.00237202
0.00242399
0.00247645
0.00252939
0.00258277
0.00263657
0.00269076
2.6223e-06
1.91345e-05
3.26704e-05
4.6318e-05
6.0744e-05
7.57201e-05
9.11442e-05
0.000106964
0.000123153
0.000139693
0.000156578
0.000173802
0.000191364
0.000209266
0.000227507
0.000246093
0.000265026
0.000284309
0.000303949
0.00032395
0.000344317
0.000365055
0.000386171
0.00040767
0.000429558
0.000451843
0.00047453
0.000497626
0.000521138
0.000545072
0.000569436
0.000594237
0.000619481
0.000645177
0.000671331
0.00069795
0.000725043
0.000752617
0.000780678
0.000809235
0.000838294
0.000867864
0.000897952
0.000928566
0.000959711
0.000991397
0.00102363
0.00105642
0.00108976
0.00112368
0.00115817
0.00119324
0.0012289
0.00126516
0.00130201
0.00133946
0.00137753
0.00141621
0.00145551
0.00149543
0.00153598
0.00157715
0.00161896
0.00166139
0.00170446
0.00174816