/*--------------------------------*- C++ -*----------------------------------*\
  =========                 |
  \\      /  F ield         | OpenFOAM: The Open Source CFD Toolbox
   \\    /   O peration     | Website:  https://openfoam.org
    \\  /    A nd           | Version:  10
     \\/     M anipulation  |
\*---------------------------------------------------------------------------*/
FoamFile
{
    format      ascii;
    class       volScalarField;
    location    "69000";
    object      omega;
}
// * * * * * * * * * * * * * * * * * * * * * * * * * * * * * * * * * * * * * //

dimensions      [0 0 -1 0 0 0 0];

internalField   nonuniform List<scalar> 
17808
(
9411.27
3791.38
2169.88
1490.53
1124.59
897.981
744.519
633.949
550.597
485.566
433.443
390.75
355.152
325.024
299.203
276.831
257.264
240.009
224.682
210.979
198.657
187.519
177.404
168.179
159.732
151.971
144.816
138.2
132.066
126.364
121.05
116.087
111.443
107.088
102.998
99.1483
95.5205
92.0962
88.8595
85.7961
82.893
80.1385
77.5222
75.0344
72.6665
70.4106
68.2593
66.2063
64.2452
62.3707
60.5776
58.8611
57.217
55.6411
54.1298
52.6797
51.2874
49.9501
48.665
47.4294
46.241
45.0976
43.9969
42.937
41.9164
40.9331
39.9857
39.0724
38.192
37.343
36.5242
35.7344
34.9725
34.2374
33.5282
32.8439
32.1836
31.5466
30.9319
30.339
29.767
29.2154
28.6835
28.1708
27.6768
27.2008
26.7425
26.3014
25.8771
25.4692
25.0773
24.7012
9407.39
3792.21
2171.22
1491.72
1125.54
898.729
745.11
634.423
550.981
485.88
433.702
390.965
355.333
325.177
299.333
276.941
257.359
240.091
224.753
211.04
198.711
187.566
177.445
168.215
159.764
152
144.841
138.223
132.086
126.382
121.066
116.102
111.456
107.1
103.008
99.1578
95.529
92.104
88.8666
85.8024
82.8987
80.1437
77.5269
75.0387
72.6704
70.4142
68.2626
66.2093
64.248
62.3733
60.5799
58.8633
57.2189
55.6429
54.1315
52.6812
51.2889
49.9514
48.6662
47.4306
46.2421
45.0985
43.9978
42.9379
41.9172
40.9339
39.9864
39.0731
38.1926
37.3436
36.5248
35.7349
34.973
34.2379
33.5287
32.8443
32.184
31.547
30.9323
30.3393
29.7674
29.2157
28.6839
28.1712
27.6771
27.2011
26.7428
26.3017
25.8774
25.4695
25.0776
24.7015
9406.59
3792.15
2172.04
1492.4
1126.05
899.136
745.443
634.701
551.218
486.084
433.879
391.119
355.466
325.294
299.435
277.031
257.438
240.16
224.814
211.094
198.758
187.609
177.483
168.249
159.794
152.026
144.865
138.244
132.106
126.399
121.082
116.116
111.469
107.111
103.018
99.1671
95.5375
92.1116
88.8735
85.8087
82.9045
80.1489
77.5317
75.043
72.6744
70.4178
68.2659
66.2123
64.2508
62.3758
60.5822
58.8654
57.2209
55.6447
54.1332
52.6827
51.2903
49.9527
48.6674
47.4317
46.2431
45.0995
43.9987
42.9388
41.918
40.9347
39.9871
39.0738
38.1932
37.3442
36.5253
35.7355
34.9735
34.2384
33.5291
32.8448
32.1844
31.5473
30.9327
30.3397
29.7677
29.2161
28.6842
28.1715
27.6774
27.2014
26.7431
26.3019
25.8776
25.4697
25.0779
24.7017
9406.28
3791.88
2172.68
1492.92
1126.44
899.445
745.691
634.905
551.39
486.233
434.009
391.234
355.568
325.384
299.515
277.103
257.502
240.218
224.866
211.141
198.8
187.646
177.517
168.279
159.822
152.051
144.888
138.264
132.124
126.415
121.096
116.129
111.481
107.122
103.028
99.1763
95.5458
92.1192
88.8804
85.815
82.9102
80.1542
77.5364
75.0474
72.6784
70.4214
68.2693
66.2153
64.2536
62.3784
60.5846
58.8676
57.2229
55.6466
54.1348
52.6843
51.2917
49.9541
48.6686
47.4328
46.2442
45.1005
43.9996
42.9397
41.9188
40.9354
39.9878
39.0744
38.1939
37.3448
36.5259
35.736
34.974
34.2389
33.5296
32.8452
32.1849
31.5477
30.933
30.34
29.768
29.2164
28.6845
28.1718
27.6777
27.2017
26.7433
26.3022
25.8779
25.47
25.0781
24.702
9406.33
3791.22
2173
1493.22
1126.7
899.666
745.874
635.059
551.522
486.347
434.11
391.323
355.648
325.456
299.58
277.162
257.555
240.266
224.909
211.18
198.836
187.679
177.546
168.306
159.846
152.073
144.908
138.283
132.141
126.431
121.11
116.142
111.493
107.133
103.038
99.1851
95.5539
92.1266
88.8872
85.8212
82.9159
80.1594
77.5412
75.0518
72.6824
70.4251
68.2726
66.2184
64.2564
62.381
60.587
58.8698
57.2249
55.6484
54.1366
52.6859
51.2932
49.9554
48.6699
47.434
46.2452
45.1015
44.0006
42.9406
41.9197
40.9362
39.9885
39.0751
38.1945
37.3454
36.5264
35.7365
34.9745
34.2393
33.53
32.8456
32.1853
31.5481
30.9334
30.3404
29.7684
29.2167
28.6848
28.1721
27.678
27.202
26.7436
26.3025
25.8782
25.4702
25.0784
24.7022
9406.85
3790.4
2173.12
1493.38
1126.87
899.815
746
635.167
551.617
486.432
434.186
391.392
355.711
325.513
299.633
277.209
257.599
240.306
224.946
211.214
198.867
187.707
177.572
168.33
159.868
152.093
144.926
138.3
132.156
126.445
121.123
116.154
111.504
107.143
103.047
99.1936
95.5617
92.1337
88.8937
85.8273
82.9214
80.1645
77.5459
75.0561
72.6864
70.4287
68.276
66.2216
64.2593
62.3836
60.5894
58.872
57.227
55.6504
54.1384
52.6876
51.2947
49.9569
48.6712
47.4352
46.2464
45.1025
44.0015
42.9415
41.9206
40.937
39.9893
39.0758
38.1952
37.346
36.527
35.7371
34.975
34.2398
33.5305
32.8461
32.1857
31.5485
30.9338
30.3408
29.7687
29.2171
28.6851
28.1724
27.6783
27.2023
26.7439
26.3028
25.8784
25.4705
25.0786
24.7025
9407.69
3789.57
2173.15
1493.48
1126.99
899.921
746.091
635.247
551.687
486.495
434.243
391.445
355.759
325.558
299.674
277.248
257.634
240.339
224.976
211.242
198.893
187.731
177.595
168.35
159.887
152.111
144.943
138.315
132.17
126.458
121.135
116.165
111.514
107.153
103.056
99.2016
95.5691
92.1406
88.9001
85.8331
82.9268
80.1695
77.5505
75.0603
72.6903
70.4324
68.2794
66.2247
64.2621
62.3863
60.5919
58.8743
57.2291
55.6523
54.1402
52.6892
51.2963
49.9583
48.6725
47.4364
46.2475
45.1036
44.0026
42.9425
41.9215
40.9379
39.9901
39.0766
38.1959
37.3467
36.5276
35.7377
34.9756
34.2404
33.531
32.8465
32.1861
31.5489
30.9342
30.3411
29.7691
29.2174
28.6855
28.1727
27.6786
27.2026
26.7442
26.3031
25.8787
25.4708
25.0789
24.7027
9408.69
3788.79
2173.11
1493.53
1127.07
900.001
746.163
635.309
551.742
486.544
434.288
391.486
355.797
325.594
299.707
277.279
257.663
240.366
225.001
211.266
198.915
187.751
177.614
168.368
159.904
152.126
144.957
138.328
132.182
126.47
121.146
116.175
111.523
107.161
103.064
99.2092
95.5761
92.1471
88.9061
85.8387
82.932
80.1743
77.555
75.0645
72.6941
70.4359
68.2827
66.2277
64.265
62.3889
60.5943
58.8766
57.2312
55.6543
54.142
52.6909
51.2978
49.9597
48.6739
47.4377
46.2487
45.1047
44.0036
42.9434
41.9224
40.9387
39.9909
39.0773
38.1966
37.3473
36.5283
35.7383
34.9761
34.2409
33.5315
32.847
32.1866
31.5494
30.9346
30.3415
29.7695
29.2178
28.6858
28.173
27.6789
27.2029
26.7445
26.3033
25.879
25.471
25.0791
24.703
9409.77
3788.06
2173.02
1493.55
1127.13
900.061
746.218
635.357
551.785
486.582
434.323
391.519
355.828
325.622
299.734
277.304
257.687
240.388
225.022
211.285
198.933
187.769
177.63
168.384
159.918
152.14
144.97
138.34
132.194
126.48
121.156
116.184
111.532
107.169
103.072
99.2161
95.5826
92.1532
88.9118
85.844
82.9369
80.1789
77.5592
75.0685
72.6978
70.4394
68.2859
66.2307
64.2678
62.3915
60.5967
58.8788
57.2333
55.6562
54.1438
52.6926
51.2994
49.9612
48.6752
47.4389
46.2499
45.1058
44.0046
42.9444
41.9233
40.9396
39.9917
39.0781
38.1973
37.348
36.5289
35.7389
34.9767
34.2414
33.532
32.8475
32.187
31.5498
30.935
30.3419
29.7699
29.2181
28.6862
28.1734
27.6792
27.2032
26.7448
26.3036
25.8793
25.4713
25.0794
24.7033
9410.88
3787.37
2172.88
1493.54
1127.17
900.105
746.26
635.395
551.818
486.613
434.351
391.545
355.853
325.646
299.756
277.325
257.707
240.407
225.04
211.302
198.949
187.784
177.644
168.397
159.931
152.152
144.981
138.351
132.204
126.489
121.165
116.193
111.539
107.177
103.079
99.2226
95.5887
92.1588
88.9171
85.849
82.9416
80.1832
77.5633
75.0723
72.7014
70.4427
68.289
66.2336
64.2705
62.394
60.5991
58.881
57.2354
55.6581
54.1456
52.6943
51.3009
49.9627
48.6766
47.4402
46.2511
45.1069
44.0057
42.9454
41.9243
40.9405
39.9926
39.0789
38.198
37.3487
36.5296
35.7395
34.9773
34.242
33.5325
32.848
32.1875
31.5503
30.9354
30.3423
29.7702
29.2185
28.6865
28.1737
27.6796
27.2035
26.7451
26.3039
25.8796
25.4716
25.0797
24.7035
9412.01
3786.75
2172.72
1493.52
1127.19
900.137
746.292
635.425
551.845
486.638
434.374
391.566
355.873
325.665
299.774
277.342
257.723
240.423
225.055
211.316
198.963
187.797
177.657
168.409
159.942
152.162
144.991
138.36
132.212
126.498
121.173
116.2
111.547
107.183
103.085
99.2285
95.5943
92.1641
88.922
85.8536
82.946
80.1873
77.5672
75.0759
72.7048
70.4459
68.292
66.2364
64.2731
62.3965
60.6014
58.8832
57.2374
55.66
54.1474
52.6959
51.3025
49.9641
48.678
47.4415
46.2523
45.1081
44.0068
42.9464
41.9252
40.9414
39.9934
39.0797
38.1988
37.3494
36.5302
35.7401
34.9779
34.2425
33.533
32.8485
32.188
31.5507
30.9359
30.3428
29.7706
29.2189
28.6869
28.1741
27.6799
27.2038
26.7454
26.3042
25.8798
25.4719
25.08
24.7038
9413.11
3786.17
2172.55
1493.49
1127.2
900.159
746.316
635.448
551.866
486.657
434.392
391.583
355.889
325.68
299.789
277.357
257.737
240.436
225.068
211.328
198.974
187.808
177.667
168.419
159.951
152.171
145
138.368
132.22
126.505
121.18
116.207
111.553
107.189
103.091
99.234
95.5994
92.169
88.9266
85.858
82.9501
80.1912
77.5708
75.0793
72.708
70.449
68.2949
66.2391
64.2756
62.3989
60.6037
58.8853
57.2394
55.6619
54.1491
52.6976
51.304
49.9655
48.6793
47.4428
46.2535
45.1092
44.0078
42.9474
41.9262
40.9423
39.9942
39.0805
38.1995
37.3501
36.5309
35.7407
34.9785
34.2431
33.5336
32.849
32.1885
31.5512
30.9363
30.3432
29.771
29.2193
28.6873
28.1744
27.6802
27.2042
26.7457
26.3045
25.8801
25.4722
25.0802
24.7041
9414.17
3785.65
2172.36
1493.45
1127.21
900.173
746.334
635.466
551.883
486.672
434.407
391.597
355.902
325.693
299.802
277.368
257.748
240.447
225.078
211.339
198.984
187.817
177.676
168.427
159.96
152.179
145.007
138.376
132.227
126.512
121.186
116.213
111.559
107.195
103.096
99.2389
95.6041
92.1734
88.9308
85.862
82.9539
80.1948
77.5742
75.0826
72.7111
70.4518
68.2976
66.2417
64.2781
62.4012
60.6058
58.8873
57.2413
55.6637
54.1508
52.6992
51.3055
49.967
48.6807
47.444
46.2546
45.1103
44.0089
42.9484
41.9271
40.9432
39.9951
39.0813
38.2003
37.3508
36.5316
35.7414
34.9791
34.2437
33.5341
32.8495
32.189
31.5516
30.9368
30.3436
29.7714
29.2197
28.6876
28.1748
27.6806
27.2045
26.7461
26.3049
25.8804
25.4725
25.0805
24.7043
9415.18
3785.19
2172.17
1493.4
1127.2
900.181
746.347
635.479
551.896
486.685
434.418
391.608
355.913
325.704
299.812
277.378
257.758
240.456
225.087
211.347
198.993
187.825
177.684
168.435
159.967
152.186
145.014
138.382
132.233
126.518
121.192
116.218
111.564
107.2
103.1
99.2434
95.6084
92.1775
88.9347
85.8657
82.9574
80.1982
77.5774
75.0856
72.714
70.4546
68.3002
66.2441
64.2804
62.4034
60.6079
58.8893
57.2431
55.6654
54.1525
52.7007
51.307
49.9683
48.682
47.4453
46.2558
45.1114
44.0099
42.9494
41.928
40.9441
39.9959
39.0821
38.201
37.3515
36.5322
35.742
34.9797
34.2442
33.5347
32.85
32.1895
31.5521
30.9372
30.344
29.7719
29.2201
28.688
28.1752
27.6809
27.2048
26.7464
26.3052
25.8808
25.4727
25.0808
24.7046
9416.13
3784.77
2171.98
1493.34
1127.18
900.183
746.355
635.488
551.905
486.694
434.427
391.617
355.922
325.712
299.82
277.387
257.766
240.464
225.095
211.355
199
187.832
177.691
168.441
159.973
152.192
145.02
138.388
132.239
126.523
121.197
116.223
111.568
107.204
103.105
99.2475
95.6123
92.1812
88.9383
85.8691
82.9606
80.2013
77.5804
75.0884
72.7166
70.4571
68.3026
66.2464
64.2826
62.4054
60.6099
58.8912
57.2449
55.6671
54.154
52.7022
51.3084
49.9697
48.6832
47.4465
46.257
45.1125
44.011
42.9504
41.929
40.945
39.9968
39.0829
38.2018
37.3522
36.5329
35.7426
34.9803
34.2448
33.5352
32.8505
32.1899
31.5526
30.9377
30.3445
29.7723
29.2205
28.6884
28.1755
27.6813
27.2052
26.7467
26.3055
25.8811
25.4731
25.0811
24.7049
9417.02
3784.4
2171.79
1493.28
1127.17
900.181
746.359
635.495
551.912
486.701
434.434
391.624
355.929
325.719
299.827
277.393
257.773
240.471
225.102
211.361
199.006
187.838
177.696
168.447
159.979
152.198
145.025
138.393
132.244
126.527
121.201
116.227
111.573
107.208
103.109
99.2511
95.6158
92.1846
88.9416
85.8722
82.9636
80.2041
77.5831
75.091
72.7192
70.4595
68.3049
66.2486
64.2847
62.4074
60.6118
58.8929
57.2466
55.6687
54.1556
52.7037
51.3098
49.971
48.6845
47.4476
46.2581
45.1136
44.012
42.9514
41.9299
40.9459
39.9976
39.0837
38.2026
37.353
36.5336
35.7433
34.9809
34.2454
33.5358
32.8511
32.1905
31.5531
30.9381
30.3449
29.7727
29.2209
28.6888
28.1759
27.6816
27.2055
26.7471
26.3058
25.8814
25.4734
25.0814
24.7052
9417.85
3784.07
2171.6
1493.21
1127.14
900.175
746.36
635.498
551.917
486.706
434.44
391.629
355.934
325.725
299.833
277.399
257.778
240.476
225.107
211.367
199.011
187.843
177.702
168.452
159.983
152.202
145.029
138.397
132.248
126.532
121.205
116.231
111.576
107.212
103.112
99.2545
95.619
92.1877
88.9445
85.8751
82.9664
80.2068
77.5857
75.0935
72.7215
70.4617
68.307
66.2507
64.2866
62.4093
60.6135
58.8946
57.2482
55.6703
54.1571
52.7051
51.3111
49.9723
48.6857
47.4488
46.2592
45.1146
44.013
42.9523
41.9308
40.9467
39.9984
39.0844
38.2033
37.3537
36.5343
35.7439
34.9815
34.246
33.5363
32.8516
32.191
31.5535
30.9386
30.3453
29.7731
29.2213
28.6892
28.1763
27.682
27.2059
26.7474
26.3062
9418.62
3783.77
2171.42
1493.15
1127.12
900.166
746.358
635.5
551.92
486.709
434.443
391.633
355.938
325.729
299.837
277.404
257.783
240.481
225.112
211.371
199.016
187.848
177.706
168.456
159.988
152.206
145.033
138.401
132.252
126.535
121.209
116.235
111.58
107.215
103.115
99.2575
95.6219
92.1905
88.9472
85.8777
82.9689
80.2092
77.588
75.0957
72.7236
70.4638
68.309
66.2526
64.2884
62.411
60.6152
58.8962
57.2498
55.6718
54.1585
52.7064
51.3124
49.9735
48.6869
47.4499
46.2602
45.1156
44.014
42.9533
41.9317
40.9476
39.9993
39.0852
38.204
37.3544
36.5349
35.7446
34.9821
34.2465
33.5369
32.8521
32.1915
31.554
30.939
30.3458
29.7735
29.2217
28.6896
28.1767
27.6824
27.2062
26.7478
26.3065
9419.33
3783.51
2171.26
1493.08
1127.09
900.155
746.354
635.499
551.92
486.711
434.445
391.636
355.941
325.732
299.84
277.407
257.787
240.485
225.115
211.375
199.02
187.852
177.71
168.46
159.991
152.21
145.037
138.404
132.255
126.538
121.212
116.238
111.583
107.218
103.118
99.2602
95.6246
92.1931
88.9497
85.8801
82.9712
80.2114
77.5902
75.0978
72.7256
70.4657
68.3109
66.2544
64.2902
62.4127
60.6168
58.8978
57.2512
55.6731
54.1598
52.7077
51.3136
49.9747
48.688
47.451
46.2613
45.1166
44.0149
42.9542
41.9326
40.9484
40
39.086
38.2048
37.3551
36.5356
35.7452
34.9827
34.2471
33.5374
32.8526
32.192
31.5545
30.9395
30.3462
29.774
29.2221
28.69
28.177
27.6828
27.2066
26.7481
26.3069
9419.98
3783.27
2171.1
1493.01
1127.06
900.142
746.348
635.496
551.92
486.711
434.446
391.637
355.943
325.734
299.843
277.41
257.79
240.488
225.119
211.378
199.023
187.855
177.713
168.463
159.994
152.213
145.04
138.407
132.258
126.541
121.215
116.24
111.585
107.22
103.12
99.2626
95.6269
92.1954
88.952
85.8822
82.9733
80.2135
77.5921
75.0997
72.7275
70.4675
68.3126
66.256
64.2918
62.4142
60.6183
58.8992
57.2526
55.6745
54.161
52.7089
51.3148
49.9758
48.689
47.452
46.2623
45.1176
44.0158
42.955
41.9334
40.9492
40.0008
39.0867
38.2055
37.3557
36.5362
35.7458
34.9833
34.2477
33.5379
32.8532
32.1925
31.555
30.94
30.3467
29.7744
29.2225
28.6904
28.1774
27.6832
9420.58
3783.07
2170.95
1492.95
1127.03
900.128
746.341
635.492
551.918
486.71
434.446
391.638
355.944
325.736
299.845
277.412
257.792
240.49
225.121
211.381
199.026
187.858
177.716
168.466
159.997
152.216
145.042
138.41
132.26
126.544
121.217
116.243
111.588
107.223
103.123
99.2648
95.6291
92.1975
88.954
85.8842
82.9752
80.2153
77.5939
75.1015
72.7292
70.4692
68.3142
66.2576
64.2932
62.4157
60.6197
58.9005
57.2539
55.6757
54.1622
52.71
51.3159
49.9768
48.6901
47.453
46.2632
45.1185
44.0167
42.9559
41.9342
40.95
40.0016
39.0874
38.2062
37.3564
36.5369
35.7464
34.9839
34.2482
33.5385
32.8537
32.1929
31.5554
30.9404
30.3471
29.7748
29.2229
28.6908
28.1778
27.6836
9421.13
3782.88
2170.81
1492.88
1127
900.113
746.332
635.487
551.914
486.709
434.445
391.638
355.944
325.736
299.846
277.413
257.794
240.492
225.123
211.383
199.028
187.86
177.718
168.468
159.999
152.218
145.045
138.412
132.263
126.546
121.219
116.245
111.59
107.225
103.125
99.2668
95.631
92.1994
88.9558
85.886
82.977
80.217
77.5956
75.1031
72.7307
70.4707
68.3156
66.259
64.2946
62.417
60.621
58.9018
57.2551
55.6769
54.1634
52.7111
51.317
49.9778
48.691
47.4539
46.2641
45.1193
44.0175
42.9567
41.935
40.9508
40.0023
39.0881
38.2068
37.357
36.5375
35.747
34.9845
34.2488
33.539
32.8542
32.1934
31.5559
30.9409
30.3475
29.7752
29.2233
28.6912
28.1782
27.6839
9421.64
3782.72
2170.68
1492.82
1126.97
900.097
746.323
635.481
551.91
486.706
434.443
391.636
355.944
325.736
299.846
277.414
257.795
240.493
225.125
211.385
199.03
187.862
177.72
168.47
160.001
152.22
145.047
138.414
132.265
126.548
121.221
116.247
111.592
107.227
103.127
99.2686
95.6327
92.2011
88.9575
85.8876
82.9786
80.2186
77.5971
75.1045
72.7322
70.4721
68.317
66.2603
64.2959
62.4182
60.6222
58.9029
57.2562
55.6779
54.1644
52.7121
51.3179
49.9788
48.6919
47.4548
46.265
45.1202
44.0183
42.9575
41.9358
40.9515
40.003
39.0888
38.2075
37.3577
36.5381
35.7476
34.985
34.2493
33.5395
32.8547
32.1939
31.5564
30.9413
30.348
29.7757
29.2237
28.6916
28.1786
27.6843
9422.11
3782.57
2170.55
1492.76
1126.94
900.081
746.312
635.474
551.905
486.702
434.441
391.635
355.943
325.736
299.846
277.414
257.795
240.494
225.126
211.386
199.031
187.863
177.721
168.472
160.003
152.222
145.048
138.416
132.266
126.55
121.223
116.248
111.593
107.228
103.128
99.2702
95.6343
92.2026
88.959
85.8891
82.98
80.22
77.5985
75.1059
72.7335
70.4734
68.3182
66.2615
64.2971
62.4194
60.6233
58.904
57.2573
55.679
54.1654
52.7131
51.3189
49.9797
48.6928
47.4556
46.2658
45.121
44.0191
42.9582
41.9365
40.9522
40.0037
39.0895
38.2081
37.3583
36.5387
35.7482
34.9856
34.2498
33.54
32.8552
32.1944
31.5568
30.9417
30.3484
29.7761
29.2241
28.692
28.179
27.6847
9422.55
3782.44
2170.44
1492.7
1126.91
900.065
746.302
635.467
551.9
486.698
434.437
391.632
355.941
325.735
299.845
277.414
257.795
240.495
225.126
211.387
199.032
187.864
177.723
168.473
160.004
152.223
145.05
138.417
132.268
126.551
121.224
116.25
111.595
107.23
103.13
99.2716
95.6357
92.204
88.9603
85.8904
82.9813
80.2213
77.5997
75.1071
72.7347
70.4745
68.3194
66.2626
64.2982
62.4204
60.6243
58.905
57.2582
55.6799
54.1663
52.714
51.3197
49.9805
48.6936
47.4564
46.2666
45.1217
44.0198
42.9589
41.9372
40.9529
40.0043
39.0901
38.2087
37.3589
36.5392
35.7487
34.9861
34.2504
33.5405
32.8556
32.1948
31.5573
30.9422
30.3488
29.7765
29.2245
28.6924
28.1794
27.6851
9422.95
3782.31
2170.34
1492.65
1126.88
900.048
746.291
635.459
551.893
486.693
434.433
391.629
355.938
325.733
299.844
277.413
257.795
240.495
225.127
211.387
199.033
187.865
177.724
168.474
160.006
152.224
145.051
138.419
132.269
126.553
121.226
116.251
111.596
107.231
103.131
99.2729
95.6369
92.2052
88.9616
85.8916
82.9825
80.2224
77.6009
75.1082
72.7358
70.4756
68.3204
66.2636
64.2992
62.4214
60.6252
58.9059
57.2591
55.6808
54.1672
52.7148
51.3205
49.9813
48.6944
47.4572
46.2673
45.1224
44.0205
42.9596
41.9378
40.9535
40.005
39.0907
38.2093
37.3594
36.5398
35.7492
34.9866
34.2509
33.541
32.8561
32.1953
31.5577
30.9426
30.3492
29.7769
29.2249
28.6928
28.1798
27.6855
9423.32
3782.2
2170.25
1492.6
1126.86
900.033
746.281
635.45
551.887
486.687
434.429
391.625
355.936
325.731
299.843
277.412
257.794
240.494
225.127
211.388
199.033
187.866
177.724
168.475
160.006
152.225
145.052
138.42
132.27
126.554
121.227
116.252
111.597
107.232
103.132
99.274
95.6381
92.2063
88.9626
85.8927
82.9835
80.2235
77.6019
75.1092
72.7368
70.4766
68.3214
66.2646
64.3001
62.4223
60.6261
58.9068
57.26
55.6816
54.168
52.7156
51.3213
49.9821
48.6951
47.4579
46.268
45.1231
44.0212
42.9602
41.9385
40.9541
40.0055
39.0913
38.2099
37.36
36.5403
35.7497
34.9871
34.2513
33.5415
32.8566
32.1957
31.5581
30.943
30.3496
29.7773
29.2253
28.6931
28.1802
27.6858
9423.68
3782.1
2170.16
1492.55
1126.83
900.017
746.27
635.442
551.88
486.681
434.424
391.621
355.932
325.728
299.841
277.411
257.793
240.493
225.126
211.387
199.033
187.866
177.725
168.476
160.007
152.226
145.053
138.421
132.271
126.555
121.228
116.253
111.598
107.233
103.133
99.2749
95.639
92.2073
88.9636
85.8937
82.9845
80.2244
77.6028
75.1101
72.7377
70.4774
68.3223
66.2654
64.3009
62.4231
60.6269
58.9076
57.2607
55.6824
54.1687
52.7163
51.322
49.9827
48.6958
47.4585
46.2686
45.1237
44.0218
42.9608
41.9391
40.9547
40.0061
39.0918
38.2104
37.3605
36.5408
35.7502
34.9876
34.2518
33.5419
32.857
32.1961
31.5586
30.9434
30.35
29.7777
29.2257
28.6935
28.1805
27.6862
9424.01
3782
2170.08
1492.5
1126.81
900.002
746.26
635.434
551.873
486.675
434.419
391.617
355.929
325.725
299.838
277.409
257.792
240.492
225.126
211.387
199.033
187.866
177.725
168.476
160.008
152.226
145.053
138.421
132.272
126.555
121.229
116.254
111.599
107.234
103.134
99.2758
95.6399
92.2081
88.9645
85.8945
82.9853
80.2252
77.6036
75.1109
72.7385
70.4782
68.323
66.2662
64.3017
62.4239
60.6277
58.9083
57.2614
55.6831
54.1694
52.717
51.3226
49.9834
48.6964
47.4592
46.2692
45.1243
44.0224
42.9614
41.9396
40.9552
40.0066
39.0923
38.2109
37.361
36.5413
35.7507
34.988
34.2522
33.5423
32.8574
32.1966
31.559
30.9438
30.3504
29.7781
29.2261
28.6939
28.1809
27.6865
9424.32
3781.91
2170.01
1492.46
1126.78
899.988
746.25
635.426
551.866
486.669
434.413
391.612
355.924
325.722
299.835
277.407
257.79
240.491
225.125
211.386
199.033
187.866
177.725
168.476
160.008
152.227
145.054
138.422
132.272
126.556
121.229
116.255
111.6
107.235
103.134
99.2765
95.6406
92.2089
88.9652
85.8953
82.9861
80.226
77.6044
75.1117
72.7392
70.479
68.3237
66.2669
64.3024
62.4246
60.6283
58.909
57.2621
55.6837
54.17
52.7176
51.3232
49.984
48.697
47.4597
46.2698
45.1249
44.0229
42.9619
41.9401
40.9557
40.0071
39.0928
38.2114
37.3614
36.5418
35.7511
34.9885
34.2527
33.5428
32.8578
32.197
31.5593
30.9442
30.3508
29.7784
29.2265
28.6942
28.1812
27.6868
9424.61
3781.82
2169.94
1492.42
1126.76
899.975
746.24
635.418
551.859
486.662
434.407
391.607
355.92
325.718
299.832
277.404
257.788
240.489
225.123
211.385
199.032
187.865
177.725
168.476
160.008
152.227
145.054
138.422
132.273
126.556
121.23
116.255
111.6
107.235
103.135
99.2771
95.6412
92.2095
88.9658
85.8959
82.9867
80.2266
77.605
75.1123
72.7398
70.4796
68.3244
66.2675
64.303
62.4252
60.6289
58.9096
57.2627
55.6843
54.1706
52.7182
51.3238
49.9845
48.6975
47.4603
46.2703
45.1254
44.0234
42.9624
41.9406
40.9562
40.0076
39.0933
38.2118
37.3619
36.5422
35.7516
34.9889
34.2531
33.5432
32.8582
32.1973
31.5597
30.9446
30.3512
29.7788
29.2268
28.6946
28.1816
27.6872
9424.88
3781.74
2169.87
1492.38
1126.74
899.962
746.231
635.41
551.852
486.656
434.401
391.602
355.915
325.714
299.829
277.401
257.786
240.487
225.122
211.384
199.031
187.865
177.724
168.476
160.008
152.227
145.054
138.422
132.273
126.557
121.23
116.256
111.601
107.236
103.136
99.2777
95.6418
92.21
88.9664
85.8965
82.9873
80.2272
77.6056
75.1129
72.7404
70.4802
68.3249
66.2681
64.3035
62.4257
60.6295
58.9101
57.2632
55.6848
54.1711
52.7187
51.3243
49.985
48.698
47.4607
46.2708
45.1258
44.0239
42.9629
41.9411
40.9567
40.0081
39.0937
38.2123
37.3623
36.5426
35.752
34.9893
34.2534
33.5435
32.8586
32.1977
31.5601
30.9449
30.3515
29.7791
29.2272
28.6949
28.1819
27.6875
9425.15
3781.66
2169.81
1492.34
1126.72
899.951
746.223
635.403
551.845
486.65
434.395
391.596
355.91
325.709
299.825
277.398
257.783
240.485
225.12
211.383
199.03
187.864
177.723
168.475
160.007
152.227
145.054
138.422
132.273
126.557
121.23
116.256
111.601
107.236
103.136
99.2781
95.6422
92.2105
88.9669
85.8969
82.9878
80.2277
77.6061
75.1134
72.7409
70.4807
68.3254
66.2686
64.304
62.4262
60.63
58.9106
57.2637
55.6853
54.1716
52.7191
51.3248
49.9855
48.6985
47.4612
46.2712
45.1263
44.0243
42.9633
41.9415
40.9571
40.0085
39.0941
38.2127
37.3627
36.543
35.7523
34.9896
34.2538
33.5439
32.8589
32.1981
31.5604
30.9453
30.3519
29.7795
29.2275
28.6953
28.1822
27.6878
9425.4
3781.58
2169.76
1492.31
1126.7
899.94
746.215
635.396
551.838
486.643
434.389
391.59
355.905
325.705
299.821
277.395
257.78
240.483
225.118
211.381
199.028
187.863
177.723
168.474
160.007
152.226
145.054
138.422
132.273
126.557
121.23
116.256
111.601
107.236
103.136
99.2784
95.6425
92.2108
88.9672
85.8973
82.9882
80.2281
77.6065
75.1138
72.7413
70.4811
68.3259
66.269
64.3045
62.4266
60.6304
58.911
57.2641
55.6857
54.172
52.7195
51.3252
49.9859
48.6989
47.4616
46.2716
45.1267
44.0247
42.9637
41.9419
40.9575
40.0088
39.0945
38.213
37.3631
36.5434
35.7527
34.99
34.2542
33.5442
32.8593
32.1984
31.5608
30.9456
30.3522
29.7798
29.2278
28.6956
28.1825
27.6881
9425.64
3781.5
2169.7
1492.28
1126.68
899.93
746.208
635.39
551.832
486.637
434.383
391.585
355.9
325.7
299.817
277.391
257.777
240.48
225.116
211.379
199.027
187.861
177.722
168.473
160.006
152.226
145.054
138.422
132.273
126.557
121.23
116.256
111.601
107.236
103.136
99.2786
95.6428
92.2111
88.9675
85.8976
82.9885
80.2284
77.6068
75.1142
72.7417
70.4815
68.3262
66.2694
64.3048
62.427
60.6308
58.9114
57.2645
55.686
54.1723
52.7199
51.3255
49.9862
48.6992
47.4619
46.272
45.127
44.0251
42.9641
41.9422
40.9578
40.0092
39.0949
38.2134
37.3634
36.5437
35.753
34.9903
34.2545
33.5446
32.8596
32.1987
31.5611
30.9459
30.3525
29.7801
29.2281
28.6959
28.1828
27.6884
9425.87
3781.42
2169.65
1492.25
1126.67
899.92
746.201
635.384
551.826
486.631
434.378
391.579
355.895
325.695
299.812
277.387
257.773
240.477
225.113
211.377
199.025
187.86
177.72
168.472
160.005
152.225
145.053
138.421
132.272
126.556
121.23
116.256
111.601
107.236
103.137
99.2787
95.6429
92.2113
88.9677
85.8979
82.9887
80.2287
77.6071
75.1145
72.742
70.4818
68.3265
66.2697
64.3052
62.4273
60.6311
58.9117
57.2648
55.6864
54.1727
52.7202
51.3259
49.9866
48.6996
47.4623
46.2723
45.1274
44.0254
42.9644
41.9426
40.9581
40.0095
39.0952
38.2137
37.3637
36.544
35.7533
34.9906
34.2548
33.5449
32.8599
32.199
31.5614
30.9462
30.3528
29.7804
29.2284
28.6962
28.1831
9426.1
3781.34
2169.6
1492.22
1126.65
899.912
746.195
635.379
551.821
486.626
434.372
391.574
355.889
325.69
299.808
277.383
257.77
240.474
225.11
211.375
199.023
187.858
177.719
168.471
160.004
152.224
145.052
138.421
132.272
126.556
121.23
116.256
111.601
107.236
103.137
99.2787
95.643
92.2114
88.9678
85.898
82.9889
80.2289
77.6073
75.1147
72.7422
70.482
68.3268
66.27
64.3054
62.4276
60.6314
58.912
57.2651
55.6866
54.1729
52.7205
51.3261
49.9868
48.6998
47.4626
46.2726
45.1276
44.0257
42.9647
41.9429
40.9584
40.0098
39.0955
38.214
37.364
36.5443
35.7536
34.9909
34.2551
33.5451
32.8602
32.1993
31.5617
30.9465
30.3531
29.7807
29.2287
28.6964
28.1834
9426.31
3781.26
2169.55
1492.19
1126.64
899.904
746.19
635.374
551.816
486.621
434.366
391.568
355.884
325.685
299.803
277.379
257.766
240.471
225.107
211.372
199.021
187.856
177.717
168.47
160.003
152.223
145.051
138.42
132.271
126.556
121.23
116.256
111.601
107.236
103.136
99.2787
95.643
92.2114
88.9679
85.8981
82.989
80.229
77.6075
75.1148
72.7424
70.4822
68.327
66.2702
64.3056
62.4278
60.6316
58.9122
57.2653
55.6869
54.1732
52.7207
51.3264
49.9871
48.7001
47.4628
46.2728
45.1279
44.0259
42.9649
41.9431
40.9587
40.0101
39.0957
38.2142
37.3643
36.5445
35.7539
34.9912
34.2553
33.5454
32.8604
32.1995
31.5619
30.9468
30.3533
29.7809
29.2289
28.6967
28.1836
9426.52
3781.17
2169.51
1492.16
1126.62
899.897
746.185
635.37
551.812
486.616
434.361
391.563
355.879
325.68
299.798
277.374
257.762
240.467
225.104
211.369
199.018
187.854
177.715
168.468
160.002
152.222
145.051
138.419
132.271
126.555
121.229
116.255
111.601
107.236
103.136
99.2785
95.6429
92.2113
88.9679
85.8981
82.989
80.229
77.6075
75.1149
72.7425
70.4823
68.3271
66.2703
64.3058
62.428
60.6317
58.9124
57.2655
55.6871
54.1734
52.7209
51.3266
49.9873
48.7003
47.463
46.273
45.1281
44.0262
42.9652
41.9433
40.9589
40.0103
39.096
38.2145
37.3645
36.5448
35.7541
34.9914
34.2556
33.5456
32.8607
32.1998
31.5622
30.947
30.3536
29.7812
29.2292
28.6969
28.1839
9426.72
3781.08
2169.46
1492.14
1126.61
899.89
746.181
635.367
551.808
486.611
434.356
391.558
355.874
325.675
299.794
277.37
257.758
240.463
225.101
211.366
199.016
187.852
177.713
168.467
160
152.221
145.049
138.418
132.27
126.554
121.229
116.255
111.6
107.236
103.136
99.2783
95.6427
92.2112
88.9678
85.898
82.989
80.229
77.6075
75.1149
72.7425
70.4824
68.3272
66.2704
64.3059
62.4281
60.6319
58.9125
57.2656
55.6872
54.1735
52.7211
51.3267
49.9874
48.7005
47.4632
46.2732
45.1283
44.0263
42.9654
41.9435
40.9591
40.0105
39.0962
38.2147
37.3647
36.545
35.7543
34.9916
34.2558
33.5459
32.8609
32.2
31.5624
30.9472
30.3538
29.7814
29.2294
28.6972
28.1841
9426.92
3780.99
2169.41
1492.11
1126.6
899.884
746.178
635.364
551.805
486.607
434.352
391.553
355.869
325.67
299.789
277.365
257.754
240.46
225.098
211.363
199.013
187.85
177.711
168.465
159.999
152.219
145.048
138.417
132.269
126.554
121.228
116.254
111.6
107.235
103.136
99.278
95.6424
92.211
88.9676
85.8979
82.9889
80.2289
77.6075
75.1149
72.7425
70.4824
68.3272
66.2704
64.3059
62.4281
60.6319
58.9126
57.2657
55.6873
54.1736
52.7212
51.3269
49.9876
48.7006
47.4633
46.2734
45.1285
44.0265
42.9655
41.9437
40.9593
40.0107
39.0963
38.2149
37.3649
36.5452
35.7545
34.9918
34.256
33.5461
32.8611
32.2002
31.5626
30.9474
30.354
29.7816
29.2296
28.6974
28.1843
9427.11
3780.9
2169.36
1492.08
1126.58
899.878
746.174
635.361
551.802
486.603
434.347
391.548
355.864
325.665
299.784
277.361
257.75
240.456
225.094
211.36
199.01
187.847
177.709
168.463
159.997
152.218
145.047
138.416
132.268
126.553
121.227
116.253
111.599
107.235
103.135
99.2776
95.6421
92.2107
88.9673
85.8977
82.9887
80.2288
77.6074
75.1148
72.7425
70.4823
68.3272
66.2704
64.3059
62.4281
60.632
58.9126
57.2658
55.6874
54.1737
52.7213
51.3269
49.9877
48.7007
47.4634
46.2735
45.1286
44.0266
42.9657
41.9438
40.9594
40.0108
39.0965
38.215
37.3651
36.5453
35.7547
34.992
34.2562
33.5462
32.8613
32.2004
31.5628
30.9476
30.3542
29.7818
29.2298
28.6976
28.1845
9427.29
3780.8
2169.31
1492.06
1126.57
899.872
746.172
635.359
551.799
486.6
434.343
391.543
355.859
325.66
299.779
277.356
257.745
240.452
225.09
211.357
199.007
187.844
177.707
168.461
159.995
152.216
145.045
138.415
132.267
126.552
121.226
116.253
111.598
107.234
103.135
99.2771
95.6417
92.2103
88.967