/*--------------------------------*- C++ -*----------------------------------*\
  =========                 |
  \\      /  F ield         | OpenFOAM: The Open Source CFD Toolbox
   \\    /   O peration     | Website:  https://openfoam.org
    \\  /    A nd           | Version:  10
     \\/     M anipulation  |
\*---------------------------------------------------------------------------*/
FoamFile
{
    format      ascii;
    class       volScalarField;
    location    "26000";
    object      k;
}
// * * * * * * * * * * * * * * * * * * * * * * * * * * * * * * * * * * * * * //

dimensions      [0 2 -2 0 0 0 0];

internalField   nonuniform List<scalar> 
17981
(
0.0282076
0.0289713
0.0297785
0.030625
0.0315059
0.032416
0.0333499
0.0343024
0.035268
0.0362418
0.0372189
0.038195
0.039166
0.0401285
0.0410794
0.0420159
0.0429358
0.0438373
0.044719
0.0455798
0.0464188
0.0472357
0.0480303
0.0488027
0.0495532
0.0502823
0.0509905
0.0516765
0.0523397
0.0529807
0.0536001
0.0541983
0.0547762
0.0553343
0.0558732
0.0563938
0.0568966
0.0573823
0.0578516
0.0583052
0.0587436
0.0591675
0.0595776
0.0599743
0.0603583
0.0607301
0.0610902
0.0614391
0.0274825
0.0282573
0.0290802
0.0299468
0.0308521
0.0317907
0.0327569
0.0337448
0.0347486
0.0357628
0.0367822
0.0378017
0.038817
0.039824
0.0408194
0.0417999
0.0427633
0.0437072
0.0446301
0.0455307
0.0464081
0.0472616
0.0480909
0.0488962
0.0496775
0.0504356
0.051171
0.0518836
0.0525722
0.0532371
0.0538789
0.0544982
0.0550956
0.0556721
0.0562281
0.0567646
0.0572822
0.0577817
0.0582638
0.0587291
0.0591785
0.0596125
0.0600319
0.0604372
0.0608292
0.0612082
0.0615751
0.0619302
0.0267872
0.0275733
0.028412
0.029299
0.0302291
0.0311966
0.0321953
0.0332192
0.0342617
0.035317
0.0363791
0.0374426
0.0385026
0.0395547
0.040595
0.0416201
0.0426272
0.0436139
0.0445782
0.0455188
0.0464346
0.0473247
0.0481889
0.0490271
0.0498393
0.0506262
0.0513884
0.0521266
0.0528399
0.0535279
0.0541913
0.0548307
0.0554469
0.0560407
0.0566129
0.0571643
0.0576957
0.058208
0.0587018
0.0591779
0.0596372
0.0600803
0.060508
0.0609209
0.0613198
0.0617052
0.0620778
0.0624382
0.0296404
0.0306376
0.0316698
0.0327303
0.0338123
0.0349093
0.0360148
0.0371229
0.0382282
0.0393258
0.0404115
0.0414813
0.0425323
0.0435618
0.0445676
0.0455481
0.0465021
0.0474286
0.0483274
0.0491981
0.0500409
0.0508563
0.0516448
0.0524076
0.0531444
0.0538545
0.0545383
0.0551967
0.0558305
0.0564405
0.0570276
0.0575926
0.0581365
0.0586601
0.0591643
0.0596498
0.0601176
0.0605685
0.0610031
0.0614222
0.0618267
0.062217
0.0625941
0.0629583
0.0290894
0.0301171
0.0311836
0.0322817
0.033404
0.0345434
0.035693
0.0368464
0.0379975
0.039141
0.0402722
0.041387
0.0424819
0.0435541
0.0446011
0.0456212
0.046613
0.0475755
0.0485083
0.049411
0.0502838
0.0511269
0.0519412
0.0527276
0.0534864
0.0542175
0.0549206
0.0555968
0.0562468
0.0568716
0.0574722
0.0580495
0.0586044
0.059138
0.059651
0.0601445
0.0606194
0.0610764
0.0615164
0.0619402
0.0623486
0.0627424
0.0631222
0.0634889
0.0285769
0.0296364
0.0307384
0.0318751
0.0330387
0.0342215
0.0354159
0.036615
0.0378123
0.0390019
0.0401788
0.0413385
0.0424771
0.0435916
0.0446793
0.0457384
0.0467673
0.047765
0.0487308
0.0496646
0.0505663
0.0514363
0.0522754
0.0530844
0.0538644
0.054615
0.0553362
0.0560287
0.0566937
0.057332
0.0579447
0.0585328
0.0590974
0.0596394
0.06016
0.06066
0.0611404
0.0616022
0.0620463
0.0624734
0.0628846
0.0632805
0.0636619
0.0640297
0.0291967
0.0303355
0.0315121
0.032718
0.033945
0.035185
0.0364303
0.0376741
0.0389099
0.0401324
0.0413365
0.0425184
0.0436745
0.0448022
0.0458993
0.0469643
0.047996
0.0489938
0.0499574
0.0508868
0.0517826
0.0526454
0.0534763
0.0542763
0.0550454
0.0557832
0.0564908
0.0571692
0.0578195
0.0584429
0.0590404
0.0596132
0.0601623
0.0606889
0.0611939
0.0616786
0.0621437
0.0625904
0.0630196
0.063432
0.0638287
0.0642105
0.064578
0.0311936
0.0324429
0.0337149
0.035001
0.0362929
0.0375832
0.0388652
0.0401328
0.0413811
0.0426055
0.0438025
0.0449691
0.0461032
0.0472031
0.0482676
0.049296
0.050288
0.0512438
0.0521639
0.053049
0.0539002
0.0547188
0.0555046
0.0562575
0.0569784
0.0576687
0.0583295
0.0589619
0.0595671
0.0601465
0.0607011
0.0612322
0.0617408
0.0622281
0.0626952
0.0631431
0.0635728
0.0639852
0.0643814
0.064762
0.0651281
0.0322133
0.0335308
0.0348632
0.0362017
0.0375384
0.0388661
0.0401784
0.0414699
0.0427359
0.0439727
0.0451772
0.0463469
0.0474803
0.048576
0.0496334
0.0506523
0.0516328
0.0525755
0.0534811
0.054351
0.0551864
0.0559871
0.0567532
0.0574858
0.0581861
0.0588554
0.0594951
0.0601064
0.0606906
0.061249
0.0617829
0.0622934
0.0627819
0.0632493
0.0636968
0.0641256
0.0645366
0.0649307
0.065309
0.0656723
0.0347684
0.0361534
0.037536
0.0389087
0.0402648
0.0415986
0.0429051
0.0441803
0.0454211
0.046625
0.0477902
0.0489155
0.0500001
0.051044
0.0520474
0.0530107
0.0539351
0.0548217
0.0556719
0.0564856
0.057263
0.0580051
0.0587136
0.0593896
0.0600346
0.06065
0.0612372
0.0617976
0.0623325
0.0628432
0.0633309
0.063797
0.0642425
0.0646687
0.0650766
0.0654672
0.0658415
0.0662005
0.0403856
0.0417605
0.0431062
0.0444184
0.0456939
0.0469301
0.0481253
0.0492781
0.0503881
0.051455
0.0524791
0.0534611
0.0544021
0.0553034
0.0561665
0.0569911
0.0577776
0.0585274
0.0592419
0.0599226
0.060571
0.0611887
0.061777
0.0623375
0.0628717
0.0633808
0.0638662
0.0643293
0.0647713
0.0651934
0.0655966
0.0659823
0.0663513
0.0667046
0.0405355
0.0419497
0.0433324
0.0446795
0.0459875
0.0472539
0.0484768
0.049655
0.050788
0.0518756
0.0529183
0.0539168
0.0548723
0.0557863
0.05666
0.0574934
0.058287
0.0590423
0.0597609
0.0604443
0.0610942
0.0617121
0.0622998
0.0628587
0.0633903
0.0638962
0.0643777
0.0648363
0.0652732
0.0656898
0.0660871
0.0664664
0.0668288
0.0671753
0.0407045
0.0421558
0.0435735
0.0449533
0.0462915
0.0475858
0.0488341
0.0500354
0.0511891
0.0522953
0.0533542
0.0543668
0.0553346
0.056259
0.0571413
0.0579813
0.0587799
0.0595387
0.0602594
0.0609437
0.0615933
0.06221
0.0627953
0.063351
0.0638786
0.0643797
0.0648559
0.0653086
0.0657391
0.0661488
0.066539
0.0669108
0.0672655
0.0676041
0.0408819
0.042368
0.0438183
0.0452283
0.0465944
0.047914
0.0491853
0.0504073
0.0515793
0.0527015
0.0537745
0.0547992
0.0557772
0.0567103
0.0575992
0.0584439
0.0592456
0.060006
0.060727
0.0614103
0.0620579
0.0626714
0.0632528
0.0638036
0.0643257
0.0648207
0.0652901
0.0657355
0.0661584
0.0665601
0.066942
0.0673053
0.0676512
0.0679809
0.0425735
0.044054
0.0454917
0.0468831
0.0482257
0.0495177
0.0507579
0.0519459
0.053082
0.0541669
0.0552016
0.0561879
0.0571277
0.0580213
0.0588687
0.0596716
0.0604318
0.0611514
0.0618321
0.062476
0.0630849
0.0636608
0.0642054
0.0647206
0.0652081
0.0656696
0.0661067
0.0665208
0.0669135
0.0672861
0.06764
0.0679764
0.0682965
0.0427598
0.0442674
0.04573
0.0471441
0.0485071
0.0498171
0.0510733
0.0522751
0.053423
0.0545178
0.0555606
0.0565534
0.0574979
0.0583942
0.0592426
0.0600451
0.0608037
0.0615203
0.0621971
0.062836
0.063439
0.0640082
0.0645455
0.0650528
0.0655318
0.0659844
0.0664123
0.0668169
0.0671998
0.0675626
0.0679064
0.0682327
0.0685426
0.0429109
0.0444426
0.0459272
0.0473613
0.0487422
0.050068
0.0513379
0.0525516
0.0537094
0.0548123
0.0558616
0.0568595
0.0578071
0.0587046
0.0595528
0.0603537
0.0611095
0.0618221
0.0624938
0.0631267
0.063723
0.0642847
0.0648139
0.0653125
0.0657825
0.0662256
0.0666437
0.0670383
0.0674111
0.0677636
0.0680971
0.068413
0.0687127
0.0445622
0.0460662
0.0475177
0.0489142
0.0502538
0.0515356
0.0527595
0.0539257
0.0550353
0.0560899
0.0570917
0.0580415
0.0589393
0.0597864
0.0605849
0.0613371
0.0620451
0.0627113
0.0633378
0.0639269
0.0644808
0.0650016
0.0654913
0.065952
0.0663855
0.0667937
0.0671782
0.0675408
0.067883
0.0682063
0.0685121
0.0688029
0.04461
0.0461299
0.0475961
0.0490059
0.0503574
0.0516497
0.0528825
0.0540562
0.0551719
0.0562312
0.0572364
0.058188
0.0590857
0.0599314
0.0607274
0.0614758
0.0621791
0.0628397
0.0634598
0.0640418
0.064588
0.0651006
0.0655816
0.0660332
0.0664573
0.0668559
0.0672306
0.0675834
0.0679167
0.0682322
0.0685317
0.0688166
0.0445675
0.0460999
0.0475779
0.0489989
0.0503609
0.0516629
0.0529043
0.0540855
0.0552075
0.0562718
0.0572808
0.0582344
0.0591324
0.0599771
0.0607706
0.0615155
0.0622141
0.062869
0.0634827
0.0640578
0.064597
0.0651025
0.0655763
0.0660207
0.0664376
0.066829
0.0671969
0.0675431
0.0678694
0.0681777
0.0684697
0.0687469
0.0444172
0.0459565
0.0474405
0.0488677
0.0502377
0.0515493
0.0528012
0.0539926
0.0551238
0.0561959
0.0572108
0.0581683
0.0590685
0.0599136
0.0607065
0.0614497
0.0621459
0.0627976
0.0634075
0.0639782
0.0645122
0.0650118
0.0654795
0.0659173
0.0663275
0.0667121
0.0670731
0.0674123
0.0677317
0.0680329
0.0683176
0.0685872
0.0441414
0.0456881
0.0471827
0.0486219
0.0500033
0.0513252
0.0525868
0.0537874
0.0549272
0.0560069
0.0570283
0.0579906
0.0588939
0.0597409
0.0605342
0.0612767
0.0619712
0.0626205
0.0632274
0.0637944
0.0643242
0.0648192
0.0652818
0.0657144
0.066119
0.0664977
0.0668527
0.0671857
0.0674986
0.0677931
0.0680708
0.0683331
0.0437634
0.0453124
0.0468119
0.0482582
0.0496481
0.0509794
0.0522505
0.0534603
0.0546088
0.0556965
0.0567248
0.0576929
0.0586007
0.0594508
0.060246
0.0609894
0.0616838
0.0623322
0.0629375
0.0635023
0.0640294
0.0645212
0.0649803
0.0654088
0.0658092
0.0661834
0.0665336
0.0668616
0.0671692
0.0674582
0.0677299
0.0679859
0.0432719
0.0448196
0.0463203
0.0477704
0.0491663
0.0505054
0.0517853
0.0530046
0.0541624
0.0552592
0.056296
0.0572718
0.0581861
0.0590415
0.0598408
0.0605872
0.0612838
0.0619334
0.0625392
0.0631039
0.0636303
0.0641209
0.0645783
0.0650048
0.0654027
0.0657742
0.0661211
0.0664456
0.0667493
0.067034
0.0673011
0.067552
0.0426634
0.0442061
0.0457051
0.0471567
0.0485572
0.0499033
0.0511921
0.0524215
0.0535901
0.0546976
0.0557448
0.0567305
0.0576539
0.0585171
0.0593232
0.0600752
0.0607763
0.0614296
0.0620383
0.0626051
0.063133
0.0636245
0.0640822
0.0645086
0.0649058
0.0652763
0.0656219
0.0659446
0.0662462
0.0665283
0.0667924
0.0670397
0.0419419
0.0434771
0.0449718
0.0464227
0.0478262
0.0491785
0.0504761
0.0517163
0.0528968
0.0540166
0.0550759
0.0560738
0.057009
0.0578828
0.0586983
0.0594585
0.0601668
0.0608264
0.0614403
0.0620116
0.0625431
0.0630376
0.0634978
0.0639262
0.0643251
0.0646967
0.065043
0.0653659
0.0656673
0.0659487
0.0662116
0.0664572
0.0411168
0.0426411
0.0441284
0.045576
0.0469802
0.0483371
0.0496429
0.0508938
0.052087
0.0532205
0.0542936
0.0553059
0.0562555
0.0571427
0.0579703
0.0587416
0.0594598
0.060128
0.0607495
0.0613277
0.0618654
0.0623655
0.0628308
0.0632637
0.0636666
0.0640417
0.064391
0.0647165
0.0650198
0.0653026
0.0655663
0.0658121
0.0401998
0.0417086
0.0431841
0.0446242
0.0460257
0.0473847
0.0486969
0.0499579
0.0511639
0.052312
0.0534005
0.0544293
0.055396
0.0562994
0.0571422
0.0579274
0.058658
0.0593377
0.0599698
0.0605578
0.0611046
0.0616132
0.0620863
0.0625265
0.062936
0.0633172
0.0636721
0.0640025
0.0643102
0.0645967
0.0648635
0.0651117
0.0391995
0.0406876
0.0421462
0.0435739
0.0449682
0.0463255
0.0476415
0.0489111
0.0501296
0.0512931
0.0523986
0.0534454
0.0544313
0.0553543
0.0562156
0.0570176
0.0577641
0.0584587
0.0591048
0.0597059
0.060265
0.0607852
0.0612693
0.0617197
0.0621389
0.0625292
0.0628924
0.0632305
0.0635452
0.063838
0.0641103
0.0643633
0.0395865
0.0410215
0.0424307
0.0438125
0.0451637
0.0464799
0.0477559
0.048986
0.0501651
0.051289
0.0523555
0.0533632
0.0543093
0.0551923
0.0560152
0.0567815
0.0574948
0.0581586
0.0587764
0.0593514
0.0598867
0.0603851
0.0608491
0.0612812
0.0616836
0.0620582
0.0624069
0.0627315
0.0630334
0.0633139
0.0635744
0.0384173
0.0398231
0.0412059
0.0425676
0.0439064
0.0452181
0.0464971
0.0477369
0.0489312
0.0500745
0.0511629
0.0521947
0.0531667
0.0540757
0.0549238
0.0557141
0.0564502
0.0571358
0.0577744
0.0583692
0.0589233
0.0594397
0.0599209
0.0603693
0.0607871
0.0611763
0.0615389
0.0618763
0.0621901
0.0624818
0.0627524
0.0371721
0.0385557
0.0399125
0.0412475
0.042566
0.0438664
0.0451433
0.0463896
0.0475977
0.0487606
0.0498726
0.05093
0.0519305
0.05287
0.0537477
0.0545666
0.0553302
0.056042
0.0567055
0.0573242
0.0579012
0.0584393
0.0589414
0.0594097
0.0598464
0.0602536
0.0606332
0.0609866
0.0613154
0.061621
0.0619045
0.03585
0.0372117
0.0385504
0.0398638
0.0411575
0.0424391
0.0437068
0.0449542
0.0461729
0.0473542
0.0484904
0.0495758
0.0506071
0.0515802
0.0524923
0.0533445
0.0541402
0.0548827
0.0555757
0.0562225
0.0568264
0.0573904
0.057917
0.0584089
0.0588681
0.0592967
0.0596965
0.0600691
0.0604159
0.0607383
0.0610375
0.0384132
0.0396907
0.0409512
0.0422028
0.0434443
0.0446683
0.0458649
0.0470244
0.0481388
0.0492025
0.0502117
0.0511626
0.052053
0.0528856
0.0536636
0.0543905
0.0550699
0.0557049
0.0562987
0.0568538
0.0573729
0.0578582
0.0583116
0.058735
0.0591298
0.0594977
0.0598398
0.0601574
0.0368968
0.0381631
0.039411
0.0406454
0.0418747
0.043097
0.0443037
0.0454838
0.0466269
0.0477246
0.0487713
0.0497631
0.0506965
0.051571
0.0523894
0.0531551
0.0538715
0.054542
0.0551696
0.0557572
0.0563073
0.0568221
0.0573037
0.0577539
0.0581741
0.0585659
0.0589306
0.0592692
0.0353242
0.0365762
0.0378163
0.0390418
0.0402578
0.0414726
0.042683
0.0438788
0.045048
0.0461796
0.0472655
0.0483003
0.04928
0.0502011
0.0510647
0.0518739
0.052632
0.0533423
0.054008
0.0546319
0.0552166
0.0557646
0.0562777
0.0567578
0.0572065
0.0576251
0.058015
0.0583773
0.0337065
0.0349403
0.0361694
0.0373908
0.0386015
0.0398072
0.0410154
0.042221
0.043412
0.0445756
0.0457008
0.0467796
0.0478074
0.0487795
0.0496932
0.0505507
0.0513551
0.0521096
0.0528175
0.0534817
0.0541048
0.0546894
0.0552373
0.0557505
0.0562306
0.0566788
0.0570966
0.057485
0.0320568
0.0332673
0.0344808
0.0356944
0.0369048
0.0381089
0.0393126
0.0405219
0.041729
0.0429209
0.044084
0.0452076
0.046284
0.0473086
0.0482771
0.0491879
0.0500434
0.0508468
0.0516012
0.0523096
0.0529749
0.0535995
0.0541855
0.0547349
0.0552491
0.0557298
0.0561779
0.0565949
0.0303878
0.0315693
0.032762
0.0339629
0.0351689
0.036376
0.0375819
0.038792
0.0400092
0.0412238
0.0424216
0.0435889
0.0447151
0.0457934
0.0468189
0.0477876
0.048699
0.0495558
0.0503611
0.0511179
0.0518291
0.0524972
0.0531245
0.053713
0.0542642
0.0547798
0.0552608
0.0557085
0.0287152
0.0298605
0.0310257
0.032208
0.0334042
0.0346104
0.0358221
0.0370378
0.0382617
0.0394932
0.0407207
0.0419289
0.0431043
0.0442369
0.045321
0.0463509
0.0473229
0.0482378
0.0490985
0.0499078
0.0506687
0.0513838
0.0520556
0.0526861
0.0532771
0.0538301
0.0543463
0.054827
0.0270518
0.0281541
0.0292846
0.0304413
0.0316213
0.0328208
0.0340353
0.0352595
0.0364924
0.0377369
0.0389885
0.0402333
0.0414559
0.0426429
0.0437853
0.044878
0.0459149
0.0468927
0.0478134
0.0486796
0.0494942
0.05026
0.0509795
0.051655
0.0522883
0.0528812
0.0534349
0.0539506
0.0254158
0.0264662
0.0275534
0.0286759
0.0298316
0.0310171
0.0322278
0.0334586
0.034703
0.03596
0.0372312
0.0385076
0.0397737
0.0410139
0.0422155
0.0433707
0.044474
0.0455194
0.046505
0.0474327
0.0483053
0.0491256
0.0498962
0.0506196
0.051298
0.0519332
0.0525265
0.0530792
0.0238183
0.0248097
0.0258453
0.0269249
0.0280473
0.0292098
0.0304087
0.0316387
0.0328934
0.0341654
0.0354533
0.0367561
0.0380611
0.0393515
0.0406118
0.0418304
0.0430008
0.0441166
0.0451718
0.046166
0.0471011
0.04798
0.0488052
0.0495796
0.0503057
0.0509854
0.0516205
0.0522123
0.02228
0.0232027
0.0241768
0.0252032
0.0262818
0.0274111
0.028588
0.0298079
0.0310647
0.0323508
0.033658
0.0349832
0.0363215
0.0376578
0.0389745
0.040257
0.0414945
0.042682
0.0438114
0.0448769
0.0458796
0.0468215
0.0477053
0.048534
0.0493105
0.0500371
0.0507161
0.0513487
0.0208113
0.0216564
0.0225613
0.0235251
0.0245493
0.025634
0.0267775
0.0279764
0.0292251
0.0305164
0.0318412
0.0331903
0.0345579
0.0359349
0.0373046
0.0386496
0.0399559
0.0412143
0.042419
0.0435614
0.0446373
0.0456477
0.0465947
0.0474814
0.0483112
0.0490872
0.049812
0.0504875
0.0194259
0.0201887
0.0210155
0.0219068
0.0228656
0.0238937
0.0249911
0.026156
0.0273843
0.0286694
0.0300027
0.0313734
0.0327702
0.0341836
0.0356017
0.0370065
0.0383811
0.0397125
0.0409931
0.0422155
0.0433704
0.0444553
0.0454711
0.0464201
0.0473065
0.0481344
0.0489073
0.0496275
0.0181325
0.0188094
0.0195508
0.0203621
0.0212458
0.0222057
0.023244
0.0243609
0.0255543
0.0268192
0.0281481
0.0295304
0.0309536
0.0324032
0.0338656
0.0353265
0.0367677
0.038173
0.0395303
0.040833
0.0420724
0.0432392
0.0443312
0.0453486
0.0462952
0.0471776
0.0480007
0.0487677
0.0169377
0.0175278
0.0181809
0.0189057
0.0197057
0.0205866
0.0215531
0.0226077
0.0237507
0.0249794
0.0262879
0.0276669
0.0291043
0.0305848
0.0320916
0.0336068
0.0351122
0.0365906
0.0380278
0.0394137
0.0407397
0.0419937
0.043168
0.0442614
0.0452753
0.0462159
0.0470914
0.0479069
0.0158441
0.0163492
0.0169137
0.0175476
0.0182582
0.0190518
0.0199354
0.0209142
0.0219914
0.0231672
0.0244382
0.0257971
0.0272327
0.0287304
0.0302722
0.0318385
0.0334088
0.0349631
0.0364836
0.0379557
0.0393706
0.0407157
0.0419775
0.0431526
0.0442412
0.0452468
0.0461781
0.0470439
0.0148505
0.0152747
0.0157529
0.0162956
0.0169138
0.0176144
0.0184063
0.0192978
0.020295
0.0214016
0.0226176
0.0239387
0.025356
0.0268558
0.0284205
0.0300293
0.0316595
0.0332881
0.0348932
0.0364557
0.0379617
0.0393996
0.0407555
0.0420186
0.0431879
0.0442656
0.0452585
0.0461775
0.0139527
0.0143025
0.0146995
0.0151546
0.0156798
0.0162844
0.0169789
0.017774
0.0186791
0.0197014
0.0208451
0.0221098
0.02349
0.0249747
0.0265473
0.0281866
0.0298682
0.031566
0.0332541
0.0349084
0.0365096
0.038045
0.039499
0.0408565
0.0421128
0.0432691
0.0443299
0.0453061
0.0131436
0.013427
0.0137497
0.0141225
0.0145574
0.0150675
0.0156628
0.016356
0.0171596
0.0180847
0.0191398
0.0203293
0.0216525
0.0231021
0.0246642
0.0263185
0.0280396
0.0297986
0.0315658
0.033312
0.0350121
0.0366478
0.0382031
0.0396617
0.0410116
0.0422526
0.0433886
0.0444288
0.012415
0.0126404
0.0128977
0.0131966
0.0135486
0.0139673
0.0144644
0.0150538
0.0157503
0.0165682
0.0175205
0.018617
0.0198625
0.0212552
0.0227854
0.0244353
0.02618
0.0279888
0.0298281
0.0316639
0.0334646
0.0352046
0.0368666
0.0384312
0.0398822
0.0412147
0.0424321
0.0435417
0.0119337
0.0121345
0.0123686
0.0126464
0.0129805
0.0133846
0.0138725
0.0144605
0.0151655
0.0160043
0.0169922
0.0181402
0.0194531
0.0209276
0.0225504
0.0242989
0.0261419
0.0280429
0.0299629
0.0318636
0.0337119
0.0354849
0.0371608
0.0387196
0.0401506
0.0414555
0.0426415
0.0112983
0.0114503
0.011629
0.0118426
0.0121019
0.0124208
0.012813
0.0132953
0.0138862
0.0146055
0.015473
0.0165061
0.0177172
0.0191108
0.0206807
0.0224089
0.0242663
0.0262144
0.0282099
0.0302079
0.0321671
0.0340547
0.0358468
0.0375201
0.0390579
0.0404576
0.0417263
0.0109673
0.0111266
0.0113223
0.011566
0.0118713
0.0122546
0.0127351
0.013334
0.0140744
0.0149793
0.016069
0.0173569
0.0188462
0.0205266
0.0223735
0.0243493
0.0264072
0.0284959
0.0305653
0.0325721
0.0344869
0.0362813
0.0379335
0.0394351
0.0407923
0.0103742
0.0104872
0.0106294
0.0108093
0.011039
0.0113334
0.0117112
0.0121941
0.0128067
0.0135761
0.0145292
0.015689
0.0170698
0.0186719
0.0204792
0.022458
0.0245603
0.0267294
0.028906
0.0310357
0.033078
0.0349998
0.0367733
0.0383851
0.0398377
0.00991478
0.0100114
0.0101386
0.010305
0.0105227
0.010809
0.0111846
0.0116745
0.0123076
0.0131155
0.0141297
0.0153761
0.0168686
0.0186031
0.0205546
0.0226775
0.0249113
0.0271883
0.0294418
0.0316165
0.0336728
0.0355764
0.0373067
0.0388612
0.00940489
0.0094593
0.00954145
0.00965585
0.00981017
0.0100183
0.0102991
0.0106764
0.0111788
0.0118403
0.0126984
0.0137896
0.0151424
0.0167689
0.0186574
0.0207703
0.0230469
0.0254121
0.0277867
0.0300993
0.0322988
0.0343418
0.0361993
0.0378638
0.00895009
0.00896807
0.00900872
0.00907826
0.00918125
0.0093255
0.00952623
0.00980464
0.0101879
0.0107094
0.0114094
0.0123323
0.0135203
0.0150037
0.0167898
0.0188554
0.0211454
0.0235805
0.0260694
0.0285232
0.0308733
0.0330651
0.0350597
0.0368438
0.00852897
0.00853508
0.00856385
0.00862214
0.00871542
0.0088515
0.00904723
0.00932659
0.00972086
0.0102696
0.0110208
0.012027
0.0133367
0.0149798
0.0169548
0.0192204
0.021699
0.0242895
0.0268845
0.0293911
0.0317413
0.0338849
0.0357989
0.00813053
0.00811066
0.00810663
0.00812504
0.00817358
0.00825868
0.0083885
0.00858176
0.00886592
0.00927751
0.00986377
0.0106825
0.0117961
0.0132585
0.0150961
0.0172911
0.0197767
0.0224469
0.0251766
0.0278463
0.0303672
0.0326719
0.0347259
0.0077238
0.00769556
0.00768299
0.0076925
0.00773269
0.0078111
0.00793659
0.00813022
0.00842382
0.00886066
0.00949791
0.0104057
0.0116579
0.0133119
0.0153834
0.017829
0.020547
0.0233975
0.0262329
0.0289357
0.031415
0.0336198
0.0073658
0.0073194
0.00728414
0.00726425
0.00726618
0.00729936
0.00737253
0.00749577
0.00769307
0.00800188
0.00847434
0.00918062
0.0102065
0.0116377
0.0135303
0.0158785
0.0185997
0.0215475
0.0245466
0.0274388
0.0301057
0.0324759
0.00702966
0.00696953
0.00691745
0.00687627
0.00685019
0.00684577
0.00687322
0.00694268
0.00706595
0.00727094
0.00760245
0.00812448
0.00892453
0.0101074
0.0117695
0.0139555
0.0166211
0.0196285
0.0227789
0.0258681
0.0287385
0.0312895
0.00663927
0.00657462
0.00651781
0.00647165
0.00644039
0.00643072
0.00645372
0.0065211
0.00664704
0.00686481
0.00722908
0.00782013
0.00874842
0.0101411
0.0120988
0.0146368
0.0176487
0.0209248
0.0242142
0.0273052
0.0300539
0.00632337
0.0062492
0.00618078
0.00612001
0.00606969
0.0060341
0.00602023
0.00604008
0.0061072
0.00623904
0.00647637
0.00688748
0.00757536
0.00868066
0.0103533
0.0126832
0.0156261
0.0189851
0.0224678
0.0257947
0.0287608
0.00601706
0.00593576
0.00585872
0.00578724
0.00572321
0.00566942
0.00563031
0.00561321
0.00563127
0.00570033
0.00584226
0.0061086
0.00658699
0.00741254
0.00876404
0.0108073
0.0135903
0.0169669
0.0206215
0.0241943
0.0273987
0.00562942
0.00554607
0.00546679
0.00539287
0.00532618
0.00526957
0.00522765
0.00520828
0.00522611
0.00529982
0.00545765
0.0057668
0.00634331
0.00736761
0.00906183
0.011584
0.0148865
0.0186693
0.0224896
0.0259545
0.00532564
0.00523775
0.00515288
0.0050719
0.00499607
0.00492727
0.00486844
0.00482442
0.0048038
0.00482321
0.00490521
0.00508744
0.00546051
0.00618327
0.00749795
0.00966318
0.0127743
0.0166082
0.0206656
0.0244157
0.00501938
0.00492844
0.00483976
0.00475394
0.0046718
0.00459461
0.00452427
0.00446385
0.00441854
0.00439786
0.00442113
0.00451647
0.00473637
0.00520732
0.00615332
0.00789295
0.0106827
0.0144532
0.0187087
0.0227629
0.00470493
0.0046122
0.00452121
0.00443234
0.00434614
0.00426346
0.00418553
0.00411434
0.00405312
0.0040075
0.00398833
0.00401861
0.0041348
0.00441428
0.00504035
0.00633346
0.00868279
0.0122399
0.0166131
0.0209758
0.00437525
0.00428182
0.00418979
0.0040994
0.00401103
0.00392521
0.00384277
0.00376497
0.00369386
0.00363289
0.00358836
0.00357313
0.00361532
0.00376465
0.00414193
0.00502263
0.00685554
0.0100312
0.0143895
0.0190366
0.00402099
0.00392785
0.00383592
0.00374536
0.00365646
0.00356957
0.00348522
0.00340423
0.00332788
0.00325829
0.00319922
0.00315798
0.00315071
0.00321295
0.00341785
0.00396297
0.00527169
0.00791596
0.0120773
0.0169403
0.00362889
0.00353699
0.00344623
0.0033568
0.00326893
0.0031829
0.00309911
0.00301806
0.00294057
0.00286791
0.0028023
0.0027479
0.00271347
0.00272042
0.00281628
0.00312047
0.00396733
0.00599131
0.00974511
0.0147087
0.00317832
0.00308876
0.00300044
0.0029136
0.00282851
0.00274548
0.00266486
0.00258705
0.00251259
0.00244225
0.00237725
0.00231983
0.00227463
0.00225236
0.00228223
0.0024363
0.00292948
0.00433618
0.00749399
0.0124059
0.00263403
0.00254866
0.00246487
0.00238301
0.00230344
0.00222652
0.00215267
0.00208231
0.0020159
0.00195395
0.00189709
0.00184626
0.00180342
0.00177345
0.00176989
0.00183437
0.00209664
0.00297648
0.00541721
0.0101045
0.00193044
0.00185389
0.00177969
0.00170825
0.00163999
0.00157533
0.00151472
0.00145861
0.00140747
0.00136168
0.00132145
0.00128666
0.0012562
0.0012297
0.0012142
0.00123247
0.00135366
0.00183676
0.00351851
0.00773243
0.000972037
0.000919409
0.000869738
0.000823276
0.000780257
0.00074092
0.000705541
0.000674453
0.000648033
0.000626375
0.000606882
0.000589087
0.000575358
0.000569924
0.000573739
0.000593625
0.000662198
0.000912291
0.00194275
0.00564769
7.24507e-05
6.6457e-05
6.10445e-05
5.62029e-05
5.19177e-05
4.81742e-05
4.49623e-05
4.22813e-05
4.01438e-05
3.86358e-05
3.95739e-05
4.23534e-05
4.67602e-05
5.3449e-05
6.33418e-05
7.78633e-05
0.000104857
0.000179698
0.000652797
0.00432319
0.084585
0.0844971
0.0844105
0.0843246
0.0842391
0.0841533
0.0840668
0.083979
0.0838892
0.0837965
0.0837004
0.0835997
0.0834937
0.0833813
0.0832612
0.0831324
0.0829934
0.0828428
0.0826789
0.0825001
0.0823043
0.0820895
0.0818534
0.0815934
0.0813068
0.0809904
0.080641
0.0802547
0.0798275
0.0793548
0.0788317
0.0782525
0.0776111
0.0769007
0.0761139
0.0752422
0.0742764
0.0732063
0.0720205
0.0707066
0.0692504
0.0676362
0.0658463
0.0638603
0.0616546
0.0592008
0.0564639
0.0533989
0.0499437
0.0460084
0.0414508
0.0360287
0.029303
0.020745
0.0111229
0.0845565
0.0844648
0.084374
0.0842836
0.0841931
0.0841021
0.08401
0.0839161
0.0838198
0.0837202
0.0836167
0.0835082
0.0833939
0.0832726
0.0831433
0.0830046
0.0828552
0.0826936
0.0825182
0.0823272
0.0821187
0.0818905
0.0816404
0.0813658
0.0810639
0.0807317
0.0803657
0.0799622
0.0795172
0.0790261
0.0784839
0.0778851
0.0772237
0.0764928
0.0756851
0.0747924
0.0738054
0.0727142
0.0715074
0.0701728
0.0686967
0.0670633
0.0652551
0.0632519
0.0610298
0.0585604
0.055808
0.0527261
0.0492507
0.0452878
0.0406901
0.0352139
0.0284726
0.0202153
0.0110572
0.0845267
0.084431
0.0843357
0.0842406
0.084145
0.0840486
0.0839505
0.0838504
0.0837473
0.0836406
0.0835295
0.0834129
0.08329
0.0831597
0.0830207
0.0828719
0.0827118
0.082539
0.0823518
0.0821484
0.0819269
0.0816851
0.0814208
0.0811313
0.0808139
0.0804655
0.0800827
0.0796618
0.0791987
0.078689
0.0781276
0.0775092
0.0768276
0.0760762
0.0752476
0.0743338
0.0733257
0.0722134
0.0709859
0.0696311
0.0681353
0.0664832
0.0646574
0.0626378
0.0604006
0.0579173
0.0551519
0.0520576
0.0485699
0.0445953
0.039992
0.034541
0.0279475
0.0203701
0.0124384
0.0844953
0.0843953
0.0842955
0.0841955
0.0840946
0.0839924
0.0838883
0.0837816
0.0836716
0.0835575
0.0834385
0.0833136
0.0831819
0.0830422
0.0828934
0.0827342
0.0825632
0.0823788
0.0821795
0.0819634
0.0817287
0.081473
0.0811942
0.0808896
0.0805564
0.0801916
0.0797918
0.0793533
0.0788721
0.0783436
0.0777629
0.0771247
0.0764229
0.0756509
0.0748016
0.0738669
0.0728379
0.0717049
0.0704571
0.0690826
0.0675679
0.0658981
0.0640559
0.0620215
0.0597714
0.0572774
0.0545039
0.0514048
0.0479175
0.0439541
0.0393886
0.0340477
0.0277772
0.0210879
0.0145545
0.0844622
0.0843578
0.0842532
0.084148
0.0840416
0.0839335
0.0838231
0.0837097
0.0835925
0.0834707
0.0833436
0.0832101
0.0830693
0.08292
0.0827611
0.0825912
0.0824089
0.0822128
0.0820012
0.0817722
0.0815238
0.0812541
0.0809605
0.0806405
0.0802914
0.07991
0.079493
0.0790368
0.0785372
0.0779898
0.0773898
0.0767317
0.0760098
0.0752174
0.0743475
0.0733921
0.0723426
0.0711894
0.0699219
0.0685286
0.0669962
0.0653099
0.0634531
0.0614062
0.0591464
0.056646
0.0538707
0.0507766
0.0473055
0.0433799
0.0388972
0.0337376
0.0279563
0.0222307
0.0169003
0.0844272
0.0843182
0.0842087
0.0840981
0.083986
0.0838717
0.0837547
0.0836343
0.0835096
0.08338
0.0832445
0.0831022
0.082952
0.0827928
0.0826235
0.0824426
0.0822489
0.0820408
0.0818165
0.0815743
0.0813122
0.0810281
0.0807195
0.080384
0.0800187
0.0796205
0.0791862
0.0787121
0.0781941
0.0776278
0.0770084
0.0763306
0.0755886
0.074776
0.0738857
0.0729101
0.0718406
0.0706678
0.0693816
0.0679705
0.0664217
0.0647208
0.0628515
0.0607951
0.0585294
0.0560281
0.053259
0.0501816
0.0467452
0.0428861
0.0385303
0.0336303
0.0284426
0.0236083
0.0191637
0.0843902
0.0842764
0.0841616
0.0840455
0.0839274
0.0838068
0.083683
0.0835553
0.083423
0.0832852
0.083141
0.0829896
0.0828297
0.0826604
0.0824804
0.0822884
0.082083
0.0818625
0.0816254
0.0813697
0.0810936
0.0807949
0.0804711
0.0801198
0.0797382
0.0793231
0.0788714
0.0783792
0.0778427
0.0772575
0.0766188
0.0759214
0.0751596
0.074327
0.0734168
0.0724215
0.0713326
0.0701412
0.0688373
0.0674097
0.0658461
0.0641327
0.0622538
0.0601914
0.0579246
0.0554291
0.0526755
0.0496287
0.0462468
0.0424829
0.0382934
0.0337352
0.0291748
0.0250651
0.0212197
0.0843511
0.0842322
0.084112
0.0839901
0.0838658
0.0837385
0.0836077
0.0834725
0.0833322
0.083186
0.0830329
0.0828721
0.0827024
0.0825227
0.0823318
0.0821283
0.0819108
0.0816778
0.0814276
0.0811583
0.0808679
0.0805544
0.0802152
0.079848
0.0794499
0.0790178
0.0785485
0.0780383
0.0774833
0.0768793
0.0762214
0.0755046
0.0747232
0.073871
0.0729414
0.0719269
0.0708196
0.0696106
0.0682902
0.0668478
0.0652715
0.0635481
0.0616628
0.0595987
0.0573367
0.0548547
0.0521273
0.0491258
0.0458189
0.0421766
0.0381961
0.0340383
0.0300658
0.0265072
0.0230607
0.0843095
0.0841854
0.0840596
0.0839316
0.0838008
0.0836667
0.0835285
0.0833856
0.0832371
0.0830822
0.08292
0.0827495
0.0825697
0.0823793
0.0821772
0.081962
0.0817323
0.0814865
0.081223
0.0809398
0.080635
0.0803064
0.0799517
0.0795684
0.0791537
0.0787045
0.0782176
0.0776894
0.077116
0.0764932
0.0758163
0.0750803
0.0742798
0.0734085
0.0724602
0.0714274
0.0703026
0.0690772
0.067742
0.0662867
0.0647001
0.0629697
0.0610819
0.0590211
0.0567704
0.0543106
0.0516211
0.04868
0.0454669
0.0419699
0.0382436
0.0345068
0.0310326
0.0278874
0.0247212
0.0842655
0.0841358
0.0840041
0.0838699
0.0837324
0.0835912
0.0834455
0.0832945
0.0831376
0.0829737
0.0828021
0.0826217
0.0824315
0.0822302
0.0820166
0.0817895
0.0815473
0.0812885
0.0810114
0.0807141
0.0803946
0.0800509
0.0796805
0.079281
0.0788496
0.0783832
0.0778788
0.0773326
0.0767409
0.0760995
0.075404
0.0746492
0.0738299
0.0729403
0.0719739
0.0709238
0.0697827
0.0685425
0.0671943
0.0657283
0.0641343
0.0624006
0.0605147
0.058463
0.0562309
0.0538027
0.0511626
0.0482962
0.0451931
0.0418673
0.0384295
0.0350947
0.0320234
0.0291854
0.0262383
0.0842187
0.0840833
0.0839455
0.0838047
0.0836603
0.0835117
0.0833582
0.083199
0.0830333
0.0828603
0.082679
0.0824884
0.0822875
0.082075
0.0818498
0.0816105
0.0813556
0.0810835
0.0807926
0.0804811
0.0801468
0.0797878
0.0794016
0.0789858
0.0785377
0.0780542
0.0775322
0.0769682
0.0763584
0.0756987
0.0749848
0.0742117
0.0733744
0.072467
0.0714836
0.0704174
0.0692616
0.0680082
0.0666491
0.0651753
0.063577
0.061844
0.0599651
0.0579288
0.0557229