/*--------------------------------*- C++ -*----------------------------------*\
  =========                 |
  \\      /  F ield         | OpenFOAM: The Open Source CFD Toolbox
   \\    /   O peration     | Website:  https://openfoam.org
    \\  /    A nd           | Version:  10
     \\/     M anipulation  |
\*---------------------------------------------------------------------------*/
FoamFile
{
    format      ascii;
    class       surfaceScalarField;
    location    "26000";
    object      phi;
}
// * * * * * * * * * * * * * * * * * * * * * * * * * * * * * * * * * * * * * //

dimensions      [0 3 -1 0 0 0 0];

internalField   nonuniform List<scalar> 
35585
(
2.68917e-06
-2.08157e-06
2.61837e-06
-2.09878e-06
2.54817e-06
-2.11324e-06
2.47877e-06
-2.1251e-06
2.41036e-06
-2.13447e-06
2.3431e-06
-2.14142e-06
2.27716e-06
-2.14605e-06
2.21266e-06
-2.14842e-06
2.14972e-06
-2.14861e-06
2.08843e-06
-2.14668e-06
2.02889e-06
-2.1427e-06
1.97115e-06
-2.13674e-06
1.91526e-06
-2.12888e-06
1.86125e-06
-2.11919e-06
1.80914e-06
-2.10776e-06
1.75893e-06
-2.09466e-06
1.71063e-06
-2.07999e-06
1.66422e-06
-2.06383e-06
1.61968e-06
-2.04627e-06
1.57697e-06
-2.02741e-06
1.53607e-06
-2.00732e-06
1.49693e-06
-1.98611e-06
1.45952e-06
-1.96386e-06
1.42377e-06
-1.94065e-06
1.38966e-06
-1.91657e-06
1.35711e-06
-1.8917e-06
1.32609e-06
-1.86613e-06
1.29654e-06
-1.83993e-06
1.2684e-06
-1.81317e-06
1.24161e-06
-1.78593e-06
1.21614e-06
-1.75828e-06
1.19191e-06
-1.73027e-06
1.16888e-06
-1.70198e-06
1.147e-06
-1.67345e-06
1.12622e-06
-1.64475e-06
1.10648e-06
-1.61593e-06
1.08775e-06
-1.58704e-06
1.06996e-06
-1.55811e-06
1.05308e-06
-1.5292e-06
1.03707e-06
-1.50035e-06
1.02187e-06
-1.47159e-06
1.00746e-06
-1.44296e-06
9.93781e-07
-1.41448e-06
9.80811e-07
-1.38619e-06
9.68507e-07
-1.35811e-06
9.56838e-07
-1.33028e-06
9.45768e-07
-1.3027e-06
-1.2754e-06
9.35267e-07
2.83916e-06
-2.00675e-06
2.76476e-06
-2.02438e-06
2.69098e-06
-2.03946e-06
2.61802e-06
-2.05214e-06
2.54607e-06
-2.06251e-06
2.4753e-06
-2.07065e-06
2.40587e-06
-2.07662e-06
2.33793e-06
-2.08048e-06
2.27159e-06
-2.08227e-06
2.20697e-06
-2.08205e-06
2.14414e-06
-2.07987e-06
2.08318e-06
-2.07578e-06
2.02413e-06
-2.06983e-06
1.96704e-06
-2.06209e-06
1.91191e-06
-2.05263e-06
1.85877e-06
-2.04152e-06
1.80761e-06
-2.02883e-06
1.75841e-06
-2.01464e-06
1.71116e-06
-1.99902e-06
1.66583e-06
-1.98208e-06
1.62238e-06
-1.96387e-06
1.58078e-06
-1.9445e-06
1.54097e-06
-1.92405e-06
1.50291e-06
-1.90259e-06
1.46654e-06
-1.88021e-06
1.43183e-06
-1.85699e-06
1.39871e-06
-1.83301e-06
1.36712e-06
-1.80834e-06
1.33702e-06
-1.78307e-06
1.30834e-06
-1.75725e-06
1.28103e-06
-1.73097e-06
1.25503e-06
-1.70427e-06
1.2303e-06
-1.67724e-06
1.20676e-06
-1.64992e-06
1.18439e-06
-1.62237e-06
1.16311e-06
-1.59465e-06
1.14288e-06
-1.56681e-06
1.12366e-06
-1.53889e-06
1.1054e-06
-1.51094e-06
1.08804e-06
-1.483e-06
1.07156e-06
-1.4551e-06
1.0559e-06
-1.42729e-06
1.04102e-06
-1.3996e-06
1.02689e-06
-1.37206e-06
1.01346e-06
-1.34469e-06
1.00071e-06
-1.31752e-06
9.886e-07
-1.29059e-06
-1.2639e-06
9.77094e-07
2.96499e-06
2.88712e-06
2.8099e-06
2.73351e-06
2.65816e-06
-1.98716e-06
2.58403e-06
-1.99652e-06
2.51128e-06
-2.00388e-06
2.44007e-06
-2.00927e-06
2.37053e-06
-2.01273e-06
2.30275e-06
-2.01428e-06
2.23684e-06
-2.01396e-06
2.17287e-06
-2.0118e-06
2.11088e-06
-2.00785e-06
2.05092e-06
-2.00214e-06
1.99302e-06
-1.99473e-06
1.93718e-06
-1.98568e-06
1.8834e-06
-1.97505e-06
1.83167e-06
-1.96291e-06
1.78197e-06
-1.94932e-06
1.73427e-06
-1.93438e-06
1.68854e-06
-1.91814e-06
1.64472e-06
-1.90069e-06
1.60278e-06
-1.88211e-06
1.56267e-06
-1.86248e-06
1.52434e-06
-1.84187e-06
1.48772e-06
-1.82037e-06
1.45277e-06
-1.79806e-06
1.41942e-06
-1.775e-06
1.38762e-06
-1.75127e-06
1.35731e-06
-1.72694e-06
1.32843e-06
-1.70209e-06
1.30092e-06
-1.67677e-06
1.27473e-06
-1.65105e-06
1.2498e-06
-1.62499e-06
1.22607e-06
-1.59865e-06
1.20349e-06
-1.57208e-06
1.18202e-06
-1.54534e-06
1.16159e-06
-1.51846e-06
1.14217e-06
-1.49151e-06
1.12369e-06
-1.46452e-06
1.10612e-06
-1.43754e-06
1.08942e-06
-1.41059e-06
1.07354e-06
-1.38372e-06
1.05844e-06
-1.35696e-06
1.04408e-06
-1.33033e-06
1.03042e-06
-1.30387e-06
1.01743e-06
-1.2776e-06
-1.25154e-06
1.00508e-06
2.74903e-06
-1.90853e-06
2.67167e-06
-1.91916e-06
2.59575e-06
-1.92795e-06
2.52142e-06
-1.93494e-06
2.44881e-06
-1.94012e-06
2.37804e-06
-1.94351e-06
2.30921e-06
-1.94513e-06
2.24239e-06
-1.94498e-06
2.17764e-06
-1.9431e-06
2.115e-06
-1.9395e-06
2.0545e-06
-1.93423e-06
1.99615e-06
-1.92733e-06
1.93995e-06
-1.91885e-06
1.88588e-06
-1.90884e-06
1.83393e-06
-1.89737e-06
1.78406e-06
-1.88451e-06
1.73624e-06
-1.87032e-06
1.69043e-06
-1.85488e-06
1.64657e-06
-1.83825e-06
1.60462e-06
-1.82053e-06
1.56453e-06
-1.80177e-06
1.52622e-06
-1.78207e-06
1.48965e-06
-1.76149e-06
1.45476e-06
-1.7401e-06
1.42148e-06
-1.71799e-06
1.38976e-06
-1.69522e-06
1.35952e-06
-1.67185e-06
1.33072e-06
-1.64797e-06
1.30329e-06
-1.62362e-06
1.27718e-06
-1.59887e-06
1.25232e-06
-1.57379e-06
1.22866e-06
-1.54842e-06
1.20615e-06
-1.52282e-06
1.18473e-06
-1.49705e-06
1.16435e-06
-1.47114e-06
1.14497e-06
-1.44514e-06
1.12652e-06
-1.4191e-06
1.10898e-06
-1.39305e-06
1.09229e-06
-1.36703e-06
1.07642e-06
-1.34108e-06
1.06131e-06
-1.31522e-06
1.04694e-06
-1.2895e-06
1.03326e-06
-1.26392e-06
-1.23853e-06
1.02025e-06
2.81993e-06
-1.82666e-06
2.73937e-06
-1.8386e-06
2.66032e-06
-1.8489e-06
2.58292e-06
-1.85754e-06
2.50731e-06
-1.86451e-06
2.43362e-06
-1.86982e-06
2.36194e-06
-1.87345e-06
2.29236e-06
-1.8754e-06
2.22493e-06
-1.87567e-06
2.1597e-06
-1.87427e-06
2.0967e-06
-1.87123e-06
2.03594e-06
-1.86657e-06
1.97742e-06
-1.86032e-06
1.92112e-06
-1.85255e-06
1.86703e-06
-1.84328e-06
1.81512e-06
-1.83259e-06
1.76534e-06
-1.82054e-06
1.71765e-06
-1.80719e-06
1.672e-06
-1.79261e-06
1.62834e-06
-1.77687e-06
1.58661e-06
-1.76004e-06
1.54675e-06
-1.74221e-06
1.5087e-06
-1.72344e-06
1.47239e-06
-1.7038e-06
1.43777e-06
-1.68336e-06
1.40476e-06
-1.66221e-06
1.37331e-06
-1.6404e-06
1.34335e-06
-1.618e-06
1.31482e-06
-1.59509e-06
1.28765e-06
-1.57171e-06
1.26179e-06
-1.54793e-06
1.23718e-06
-1.52381e-06
1.21377e-06
-1.49941e-06
1.19149e-06
-1.47477e-06
1.17029e-06
-1.44994e-06
1.15013e-06
-1.42497e-06
1.13094e-06
-1.39991e-06
1.11269e-06
-1.3748e-06
1.09533e-06
-1.34967e-06
1.07881e-06
-1.32456e-06
1.06309e-06
-1.2995e-06
1.04813e-06
-1.27454e-06
1.03389e-06
-1.24968e-06
-1.22497e-06
1.02034e-06
2.87303e-06
2.78928e-06
-1.75486e-06
2.7071e-06
-1.76672e-06
2.62665e-06
-1.77708e-06
2.54806e-06
-1.78593e-06
2.47148e-06
-1.79324e-06
2.397e-06
-1.79897e-06
2.3247e-06
-1.8031e-06
2.25465e-06
-1.80562e-06
2.1869e-06
-1.80652e-06
2.12147e-06
-1.8058e-06
2.05838e-06
-1.80347e-06
1.99762e-06
-1.79957e-06
1.93918e-06
-1.79411e-06
1.88305e-06
-1.78715e-06
1.82918e-06
-1.77872e-06
1.77753e-06
-1.76889e-06
1.72806e-06
-1.75772e-06
1.68072e-06
-1.74526e-06
1.63545e-06
-1.73159e-06
1.59218e-06
-1.71678e-06
1.55086e-06
-1.70089e-06
1.51142e-06
-1.68399e-06
1.47379e-06
-1.66617e-06
1.43791e-06
-1.64749e-06
1.40371e-06
-1.62801e-06
1.37113e-06
-1.60782e-06
1.34009e-06
-1.58697e-06
1.31054e-06
-1.56554e-06
1.28241e-06
-1.54358e-06
1.25564e-06
-1.52116e-06
1.23016e-06
-1.49833e-06
1.20592e-06
-1.47517e-06
1.18286e-06
-1.4517e-06
1.16092e-06
-1.428e-06
1.14005e-06
-1.4041e-06
1.1202e-06
-1.38006e-06
1.10132e-06
-1.35591e-06
1.08335e-06
-1.3317e-06
1.06626e-06
-1.30747e-06
1.05e-06
-1.28324e-06
1.03453e-06
-1.25906e-06
1.0198e-06
-1.23496e-06
-1.21096e-06
1.00578e-06
2.82291e-06
2.73755e-06
2.654e-06
-1.69353e-06
2.57242e-06
-1.70435e-06
2.49294e-06
-1.71375e-06
2.41566e-06
-1.72169e-06
2.34068e-06
-1.72812e-06
2.26805e-06
-1.733e-06
2.19784e-06
-1.7363e-06
2.13005e-06
-1.73801e-06
2.06471e-06
-1.73813e-06
2.00182e-06
-1.73667e-06
1.94135e-06
-1.73364e-06
1.88328e-06
-1.72908e-06
1.82758e-06
-1.72302e-06
1.77419e-06
-1.71551e-06
1.72308e-06
-1.70661e-06
1.67418e-06
-1.69636e-06
1.62743e-06
-1.68485e-06
1.58278e-06
-1.67212e-06
1.54014e-06
-1.65825e-06
1.49946e-06
-1.64331e-06
1.46067e-06
-1.62737e-06
1.42369e-06
-1.61051e-06
1.38845e-06
-1.59278e-06
1.35489e-06
-1.57426e-06
1.32293e-06
-1.55501e-06
1.29252e-06
-1.53512e-06
1.26357e-06
-1.51463e-06
1.23603e-06
-1.49362e-06
1.20983e-06
-1.47214e-06
1.18491e-06
-1.45025e-06
1.16121e-06
-1.428e-06
1.13867e-06
-1.40546e-06
1.11724e-06
-1.38267e-06
1.09686e-06
-1.35968e-06
1.07748e-06
-1.33653e-06
1.05906e-06
-1.31327e-06
1.04153e-06
-1.28994e-06
1.02486e-06
-1.26657e-06
1.009e-06
-1.24321e-06
9.93919e-07
-1.21987e-06
-1.1966e-06
9.79567e-07
2.66639e-06
2.58177e-06
-1.61972e-06
2.49936e-06
-1.63135e-06
2.4193e-06
-1.64163e-06
2.34166e-06
-1.65048e-06
2.26651e-06
-1.65785e-06
2.19389e-06
-1.66368e-06
2.12383e-06
-1.66796e-06
2.05635e-06
-1.67065e-06
1.99142e-06
-1.67175e-06
1.92904e-06
-1.67126e-06
1.86917e-06
-1.66921e-06
1.81178e-06
-1.66562e-06
1.7568e-06
-1.66054e-06
1.7042e-06
-1.654e-06
1.6539e-06
-1.64607e-06
1.60585e-06
-1.63679e-06
1.55996e-06
-1.62624e-06
1.51619e-06
-1.61447e-06
1.47444e-06
-1.60157e-06
1.43464e-06
-1.58758e-06
1.39673e-06
-1.5726e-06
1.36063e-06
-1.55668e-06
1.32627e-06
-1.53989e-06
1.29356e-06
-1.52231e-06
1.26245e-06
-1.50401e-06
1.23286e-06
-1.48504e-06
1.20472e-06
-1.46548e-06
1.17796e-06
-1.44538e-06
1.15253e-06
-1.42481e-06
1.12836e-06
-1.40383e-06
1.10538e-06
-1.38249e-06
1.08355e-06
-1.36084e-06
1.0628e-06
-1.33893e-06
1.04308e-06
-1.31681e-06
1.02433e-06
-1.29453e-06
1.00652e-06
-1.27213e-06
9.89585e-07
-1.24964e-06
9.73488e-07
-1.22711e-06
9.58185e-07
-1.20457e-06
-1.18205e-06
9.43633e-07
2.57676e-06
2.49146e-06
2.40864e-06
-1.55881e-06
2.3284e-06
-1.57024e-06
2.2508e-06
-1.58025e-06
2.17589e-06
-1.58877e-06
2.10367e-06
-1.59574e-06
2.03416e-06
-1.60114e-06
1.96735e-06
-1.60493e-06
1.9032e-06
-1.60711e-06
1.84169e-06
-1.6077e-06
1.78276e-06
-1.6067e-06
1.72636e-06
-1.60414e-06
1.67244e-06
-1.60008e-06
1.62092e-06
-1.59455e-06
1.57173e-06
-1.58761e-06
1.52481e-06
-1.57931e-06
1.48007e-06
-1.56973e-06
1.43743e-06
-1.55893e-06
1.39683e-06
-1.54698e-06
1.35817e-06
-1.53394e-06
1.32138e-06
-1.51989e-06
1.28639e-06
-1.5049e-06
1.25312e-06
-1.48904e-06
1.22149e-06
-1.47237e-06
1.19142e-06
-1.45498e-06
1.16286e-06
-1.43691e-06
1.13572e-06
-1.41824e-06
1.10994e-06
-1.39903e-06
1.08545e-06
-1.37935e-06
1.0622e-06
-1.35923e-06
1.04011e-06
-1.33875e-06
1.01914e-06
-1.31796e-06
9.99224e-07
-1.2969e-06
9.80309e-07
-1.27562e-06
9.62345e-07
-1.25416e-06
9.45281e-07
-1.23258e-06
9.29073e-07
-1.2109e-06
9.13674e-07
-1.18917e-06
-1.16742e-06
8.99043e-07
2.38431e-06
2.30161e-06
2.22171e-06
2.14465e-06
2.07043e-06
-1.52153e-06
1.99907e-06
-1.52977e-06
1.93053e-06
-1.5364e-06
1.8648e-06
-1.54138e-06
1.80182e-06
-1.54472e-06
1.74154e-06
-1.54642e-06
1.6839e-06
-1.54651e-06
1.62884e-06
-1.54501e-06
1.57628e-06
-1.54199e-06
1.52614e-06
-1.53747e-06
1.47835e-06
-1.53152e-06
1.43283e-06
-1.52421e-06
1.38948e-06
-1.51559e-06
1.34823e-06
-1.50573e-06
1.309e-06
-1.49471e-06
1.2717e-06
-1.48259e-06
1.23625e-06
-1.46945e-06
1.20257e-06
-1.45536e-06
1.17058e-06
-1.44038e-06
1.1402e-06
-1.4246e-06
1.11137e-06
-1.40807e-06
1.08399e-06
-1.39087e-06
1.05801e-06
-1.37305e-06
1.03336e-06
-1.35469e-06
1.00997e-06
-1.33584e-06
9.87771e-07
-1.31656e-06
9.6671e-07
-1.2969e-06
9.46728e-07
-1.27691e-06
9.27768e-07
-1.25666e-06
9.09776e-07
-1.23617e-06
8.92702e-07
-1.2155e-06
8.76496e-07
-1.1947e-06
8.61113e-07
-1.17379e-06
-1.15282e-06
8.4651e-07
2.02505e-06
-1.44551e-06
1.95203e-06
-1.45675e-06
1.88197e-06
-1.46634e-06
1.81484e-06
-1.47425e-06
1.75059e-06
-1.48046e-06
1.68916e-06
-1.48498e-06
1.63047e-06
-1.48782e-06
1.57446e-06
-1.489e-06
1.52105e-06
-1.48857e-06
1.47015e-06
-1.48657e-06
1.42167e-06
-1.48305e-06
1.37554e-06
-1.47808e-06
1.33167e-06
-1.47171e-06
1.28995e-06
-1.46402e-06
1.25032e-06
-1.45507e-06
1.21267e-06
-1.44494e-06
1.17692e-06
-1.4337e-06
1.143e-06
-1.42143e-06
1.1108e-06
-1.40819e-06
1.08027e-06
-1.39406e-06
1.0513e-06
-1.37911e-06
1.02384e-06
-1.36341e-06
9.97804e-07
-1.34702e-06
9.73121e-07
-1.33001e-06
9.49724e-07
-1.31244e-06
9.27546e-07
-1.29438e-06
9.06526e-07
-1.27588e-06
8.86602e-07
-1.25699e-06
8.67717e-07
-1.23777e-06
8.49816e-07
-1.21827e-06
8.32845e-07
-1.19853e-06
8.16755e-07
-1.17861e-06
8.01499e-07
-1.15853e-06
-1.13835e-06
7.87029e-07
1.96873e-06
-1.36791e-06
1.89427e-06
-1.38228e-06
1.8229e-06
-1.39497e-06
1.75459e-06
-1.40594e-06
1.68928e-06
-1.41515e-06
1.6269e-06
-1.4226e-06
1.56738e-06
-1.42829e-06
1.51062e-06
-1.43225e-06
1.45656e-06
-1.43451e-06
1.40509e-06
-1.4351e-06
1.35614e-06
-1.43409e-06
1.30959e-06
-1.43153e-06
1.26537e-06
-1.42749e-06
1.22338e-06
-1.42202e-06
1.18352e-06
-1.41521e-06
1.1457e-06
-1.40712e-06
1.10984e-06
-1.39784e-06
1.07584e-06
-1.38743e-06
1.04361e-06
-1.37596e-06
1.01307e-06
-1.36353e-06
9.84149e-07
-1.35018e-06
9.56753e-07
-1.33601e-06
9.30809e-07
-1.32107e-06
9.06245e-07
-1.30544e-06
8.82988e-07
-1.28919e-06
8.60972e-07
-1.27236e-06
8.40128e-07
-1.25503e-06
8.20396e-07
-1.23726e-06
8.01717e-07
-1.21909e-06
7.84032e-07
-1.20058e-06
7.67287e-07
-1.18179e-06
7.51432e-07
-1.16275e-06
7.36416e-07
-1.14352e-06
-1.12412e-06
7.22195e-07
1.90279e-06
-1.28895e-06
1.82711e-06
-1.3066e-06
1.75467e-06
-1.32253e-06
1.6854e-06
-1.33667e-06
1.61925e-06
-1.349e-06
1.55613e-06
-1.35949e-06
1.49597e-06
-1.36813e-06
1.43868e-06
-1.37496e-06
1.38416e-06
-1.37999e-06
1.33233e-06
-1.38327e-06
1.28307e-06
-1.38484e-06
1.23631e-06
-1.38477e-06
1.19193e-06
-1.38311e-06
1.14984e-06
-1.37993e-06
1.10993e-06
-1.37531e-06
1.07212e-06
-1.36932e-06
1.03631e-06
-1.36203e-06
1.0024e-06
-1.35352e-06
9.70309e-07
-1.34387e-06
9.3994e-07
-1.33316e-06
9.1121e-07
-1.32145e-06
8.84037e-07
-1.30884e-06
8.58341e-07
-1.29538e-06
8.34044e-07
-1.28115e-06
8.11074e-07
-1.26622e-06
7.89357e-07
-1.25065e-06
7.68829e-07
-1.23451e-06
7.49424e-07
-1.21785e-06
7.31079e-07
-1.20075e-06
7.13737e-07
-1.18324e-06
6.97341e-07
-1.16539e-06
6.81839e-07
-1.14725e-06
6.67179e-07
-1.12886e-06
-1.11026e-06
6.53314e-07
1.82849e-06
1.75184e-06
-1.22996e-06
1.67855e-06
-1.24924e-06
1.60856e-06
-1.26668e-06
1.54178e-06
-1.28222e-06
1.47815e-06
-1.29585e-06
1.41756e-06
-1.30755e-06
1.35993e-06
-1.31733e-06
1.30516e-06
-1.32522e-06
1.25315e-06
-1.33126e-06
1.2038e-06
-1.33549e-06
1.157e-06
-1.33796e-06
1.11264e-06
-1.33875e-06
1.07063e-06
-1.33792e-06
1.03086e-06
-1.33554e-06
9.93233e-07
-1.33169e-06
9.57644e-07
-1.32644e-06
9.23997e-07
-1.31987e-06
8.92198e-07
-1.31207e-06
8.62155e-07
-1.30311e-06
8.33777e-07
-1.29308e-06
8.06979e-07
-1.28204e-06
7.81678e-07
-1.27008e-06
7.57794e-07
-1.25726e-06
7.35249e-07
-1.24367e-06
7.13971e-07
-1.22937e-06
6.9389e-07
-1.21442e-06
6.74939e-07
-1.1989e-06
6.57053e-07
-1.18286e-06
6.40173e-07
-1.16636e-06
6.24241e-07
-1.14946e-06
6.09203e-07
-1.13221e-06
5.95006e-07
-1.11466e-06
-1.09686e-06
5.81602e-07
1.66978e-06
-1.1526e-06
1.59589e-06
-1.17535e-06
1.5254e-06
-1.19619e-06
1.45823e-06
-1.21505e-06
1.39429e-06
-1.23191e-06
1.33349e-06
-1.24675e-06
1.27573e-06
-1.25957e-06
1.22091e-06
-1.2704e-06
1.16891e-06
-1.27926e-06
1.11964e-06
-1.28622e-06
1.07299e-06
-1.29131e-06
1.02884e-06
-1.2946e-06
9.87081e-07
-1.29617e-06
9.47617e-07
-1.29607e-06
9.10335e-07
-1.2944e-06
8.75133e-07
-1.29123e-06
8.41908e-07
-1.28665e-06
8.10561e-07
-1.28073e-06
7.80997e-07
-1.27355e-06
7.53122e-07
-1.2652e-06
7.26846e-07
-1.25576e-06
7.02083e-07
-1.24531e-06
6.7875e-07
-1.23393e-06
6.56769e-07
-1.22169e-06
6.3606e-07
-1.20866e-06
6.16555e-07
-1.19492e-06
5.98182e-07
-1.18053e-06
5.80876e-07
-1.16556e-06
5.64575e-07
-1.15006e-06
5.49219e-07
-1.13411e-06
5.34752e-07
-1.11774e-06
5.21122e-07
-1.10103e-06
-1.08401e-06
5.08278e-07
1.58244e-06
-1.07481e-06
1.5082e-06
-1.10112e-06
1.43745e-06
-1.12544e-06
1.37011e-06
-1.14771e-06
1.30607e-06
-1.16788e-06
1.24526e-06
-1.18593e-06
1.18755e-06
-1.20187e-06
1.13286e-06
-1.2157e-06
1.08106e-06
-1.22747e-06
1.03204e-06
-1.2372e-06
9.85704e-07
-1.24497e-06
9.41921e-07
-1.25082e-06
9.00584e-07
-1.25483e-06
8.61582e-07
-1.25707e-06
8.24802e-07
-1.25762e-06
7.90137e-07
-1.25657e-06
7.57482e-07
-1.25399e-06
7.26733e-07
-1.24998e-06
6.9779e-07
-1.24461e-06
6.70557e-07
-1.23797e-06
6.4494e-07
-1.23015e-06
6.20849e-07
-1.22122e-06
5.982e-07
-1.21128e-06
5.76907e-07
-1.2004e-06
5.56895e-07
-1.18865e-06
5.38087e-07
-1.17611e-06
5.20411e-07
-1.16285e-06
5.03801e-07
-1.14894e-06
4.88191e-07
-1.13445e-06
4.7352e-07
-1.11943e-06
4.59731e-07
-1.10396e-06
4.46769e-07
-1.08807e-06
-1.07183e-06
4.34583e-07
1.49133e-06
1.417e-06
-1.0268e-06
1.34624e-06
-1.05467e-06
1.27894e-06
-1.08041e-06
1.21502e-06
-1.10396e-06
1.15438e-06
-1.12529e-06
1.09692e-06
-1.14441e-06
1.04253e-06
-1.16131e-06
9.91102e-07
-1.17604e-06
9.42513e-07
-1.18861e-06
8.96649e-07
-1.1991e-06
8.53393e-07
-1.20756e-06
8.12625e-07
-1.21406e-06
7.74231e-07
-1.21868e-06
7.38096e-07
-1.22149e-06
7.04107e-07
-1.22258e-06
6.72155e-07
-1.22204e-06
6.42132e-07
-1.21995e-06
6.13936e-07
-1.21641e-06
5.87466e-07
-1.2115e-06
5.62626e-07
-1.20531e-06
5.39324e-07
-1.19792e-06
5.17471e-07
-1.18943e-06
4.96983e-07
-1.17991e-06
4.77777e-07
-1.16944e-06
4.59776e-07
-1.15811e-06
4.42907e-07
-1.14598e-06
4.27099e-07
-1.13314e-06
4.12285e-07
-1.11964e-06
3.98404e-07
-1.10555e-06
3.85392e-07
-1.09094e-06
3.73199e-07
-1.07587e-06
-1.06043e-06
3.618e-07
1.32396e-06
-9.52663e-07
1.25341e-06
-9.84122e-07
1.18637e-06
-1.01337e-06
1.12276e-06
-1.04034e-06
1.06248e-06
-1.06501e-06
1.00543e-06
-1.08736e-06
9.5151e-07
-1.10739e-06
9.00602e-07
-1.12513e-06
8.5259e-07
-1.1406e-06
8.07352e-07
-1.15386e-06
7.64766e-07
-1.16498e-06
7.2471e-07
-1.17401e-06
6.87062e-07
-1.18103e-06
6.51703e-07
-1.18613e-06
6.18516e-07
-1.18939e-06
5.87386e-07
-1.19091e-06
5.58204e-07
-1.19077e-06
5.30863e-07
-1.18907e-06
5.0526e-07
-1.1859e-06
4.81298e-07
-1.18134e-06
4.58882e-07
-1.17551e-06
4.37921e-07
-1.16847e-06
4.18327e-07
-1.16031e-06
4.00017e-07
-1.15113e-06
3.8291e-07
-1.141e-06
3.66927e-07
-1.13e-06
3.51994e-07
-1.1182e-06
3.38045e-07
-1.10569e-06
3.25035e-07
-1.09254e-06
3.12938e-07
-1.07885e-06
3.01734e-07
-1.06467e-06
-1.05011e-06
2.91417e-07
1.23075e-06
-8.79029e-07
1.16069e-06
-9.1407e-07
1.09416e-06
-9.46834e-07
1.03107e-06
-9.77257e-07
9.71353e-07
-1.0053e-06
9.14912e-07
-1.03092e-06
8.61645e-07
-1.05413e-06
8.11439e-07
-1.07492e-06
7.64172e-07
-1.09334e-06
7.19718e-07
-1.10941e-06
6.77949e-07
-1.12321e-06
6.38737e-07
-1.13479e-06
6.01952e-07
-1.14425e-06
5.6747e-07
-1.15165e-06
5.3517e-07
-1.15709e-06
5.0493e-07
-1.16067e-06
4.76636e-07
-1.16248e-06
4.50175e-07
-1.16261e-06
4.2544e-07
-1.16116e-06
4.02336e-07
-1.15824e-06
3.80776e-07
-1.15395e-06
3.60676e-07
-1.14837e-06
3.41956e-07
-1.14159e-06
3.24536e-07
-1.13371e-06
3.08344e-07
-1.12481e-06
2.93309e-07
-1.11497e-06
2.79369e-07
-1.10426e-06
2.66469e-07
-1.09279e-06
2.54564e-07
-1.08064e-06
2.43621e-07
-1.0679e-06
2.33622e-07
-1.05467e-06
-1.04102e-06
2.24534e-07
1.13957e-06
-8.06321e-07
1.07037e-06
-8.4487e-07
1.0046e-06
-8.81061e-07
9.42186e-07
-9.14842e-07
8.83087e-07
-9.46197e-07
8.27255e-07
-9.75088e-07
7.74614e-07
-1.00149e-06
7.25069e-07
-1.02538e-06
6.78506e-07
-1.04677e-06
6.34797e-07
-1.0657e-06
5.93804e-07
-1.08222e-06
5.55389e-07
-1.09638e-06
5.19416e-07
-1.10827e-06
4.85754e-07
-1.11799e-06
4.54282e-07
-1.12562e-06
4.24882e-07
-1.13127e-06
3.97443e-07
-1.13504e-06
3.71857e-07
-1.13702e-06
3.48021e-07
-1.13732e-06
3.25836e-07
-1.13606e-06
3.05212e-07
-1.13332e-06
2.86062e-07
-1.12922e-06
2.68305e-07
-1.12384e-06
2.51867e-07
-1.11728e-06
2.3668e-07
-1.10962e-06
2.2268e-07
-1.10097e-06
2.09814e-07
-1.0914e-06
1.9803e-07
-1.081e-06
1.87272e-07
-1.06988e-06
1.77483e-07
-1.05811e-06
1.6861e-07
-1.0458e-06
-1.03302e-06
1.60607e-07
1.05023e-06
-7.3458e-07
9.8189e-07
-7.76529e-07
9.16916e-07
-8.16087e-07
8.55256e-07
-8.53182e-07
7.96851e-07
-8.87792e-07
7.41648e-07
-9.19886e-07
6.89592e-07
-9.49429e-07
6.40611e-07
-9.76396e-07
5.94616e-07
-1.00078e-06
5.51499e-07
-1.02259e-06
5.11135e-07
-1.04185e-06
4.73387e-07
-1.05863e-06
4.38122e-07
-1.07301e-06
4.05207e-07
-1.08507e-06
3.74518e-07
-1.09493e-06
3.45938e-07
-1.10269e-06
3.19356e-07
-1.10846e-06
2.94671e-07
-1.11234e-06
2.71781e-07
-1.11443e-06
2.50585e-07
-1.11486e-06
2.30985e-07
-1.11372e-06
2.12887e-07
-1.11112e-06
1.96205e-07
-1.10716e-06
1.80858e-07
-1.10193e-06
1.66772e-07
-1.09554e-06
1.53877e-07
-1.08807e-06
1.42111e-07
-1.07963e-06
1.31414e-07
-1.07031e-06
1.21733e-07
-1.0602e-06
1.13013e-07
-1.0494e-06
1.05206e-07
-1.03799e-06
-1.02607e-06
9.82592e-08
9.61144e-07
-6.6389e-07
8.93671e-07
-7.09056e-07
8.29463e-07
-7.51879e-07
7.68538e-07
-7.92257e-07
7.10862e-07
-8.30116e-07
6.56382e-07
-8.65406e-07
6.05037e-07
-8.98084e-07
5.56761e-07
-9.2812e-07
5.11477e-07
-9.55493e-07
4.69089e-07
-9.80197e-07
4.29487e-07
-1.00225e-06
3.92547e-07
-1.02169e-06
3.58139e-07
-1.0386e-06
3.26132e-07
-1.05307e-06
2.96397e-07
-1.0652e-06
2.68808e-07
-1.0751e-06
2.43248e-07
-1.0829e-06
2.19605e-07
-1.08869e-06
1.97771e-07
-1.0926e-06
1.77647e-07
-1.09474e-06
1.59133e-07
-1.09521e-06
1.42139e-07
-1.09412e-06
1.26574e-07
-1.09159e-06
1.12357e-07
-1.08771e-06
9.94119e-08
-1.08259e-06
8.76642e-08
-1.07632e-06
7.70473e-08
-1.06901e-06
6.74983e-08
-1.06076e-06
5.8956e-08
-1.05166e-06
5.13636e-08
-1.0418e-06
4.4666e-08
-1.03129e-06
-1.02022e-06
3.88098e-08
8.73118e-07
-5.94802e-07
8.07091e-07
-6.43028e-07
7.44163e-07
-6.88951e-07
6.84375e-07
-7.32469e-07
6.27748e-07
-7.73489e-07
5.74274e-07
-8.11932e-07
5.23923e-07
-8.47733e-07
4.76642e-07
-8.80839e-07
4.32357e-07
-9.11209e-07
3.90981e-07
-9.38821e-07
3.52406e-07
-9.63673e-07
3.16511e-07
-9.85796e-07
2.83168e-07
-1.00526e-06
2.52246e-07
-1.02214e-06
2.23615e-07
-1.03656e-06
1.97146e-07
-1.04863e-06
1.7272e-07
-1.05847e-06
1.50219e-07
-1.06619e-06
1.29533e-07
-1.07191e-06
1.10556e-07
-1.07576e-06
9.31902e-08
-1.07784e-06
7.73388e-08
-1.07827e-06
6.29132e-08
-1.07717e-06
4.98294e-08
-1.07463e-06
3.8008e-08
-1.07077e-06
2.73759e-08
-1.06569e-06
1.78636e-08
-1.0595e-06
9.40522e-09
-1.0523e-06
1.93951e-09
-1.04419e-06
-4.59258e-09
-1.03527e-06
-1.02484e-08
-1.02564e-06
-1.01538e-06
-1.50828e-08
7.90351e-07
-5.27816e-07
7.26279e-07
-5.78956e-07
6.65155e-07
-6.27827e-07
6.07018e-07
-6.74331e-07
5.51897e-07
-7.18369e-07
4.9981e-07
-7.59844e-07
4.50748e-07
-7.98671e-07
4.04683e-07
-8.34774e-07
3.61565e-07
-8.68091e-07
3.21319e-07
-8.98575e-07
2.83851e-07
-9.26205e-07
2.4905e-07
-9.50995e-07
2.16792e-07
-9.72998e-07
1.86949e-07
-9.923e-07
1.59391e-07
-1.00901e-06
1.33991e-07
-1.02324e-06
1.10627e-07
-1.03511e-06
8.91814e-08
-1.04475e-06
6.95427e-08
-1.05228e-06
5.1605e-08
-1.05782e-06
3.5268e-08
-1.0615e-06
2.04375e-08
-1.06344e-06
7.02358e-09
-1.06375e-06
-5.05714e-09
-1.06255e-06
-1.58846e-08
-1.05994e-06
-2.55328e-08
-1.05604e-06
-3.40723e-08
-1.05096e-06
-4.15691e-08
-1.0448e-06
-4.80873e-08
-1.03767e-06
-5.36871e-08
-1.02967e-06
-5.84273e-08
-1.0209e-06
-1.01144e-06
-6.23655e-08
7.16769e-07
-4.63302e-07
6.54952e-07
-5.1714e-07
5.95862e-07
-5.68737e-07
5.39544e-07
-6.18013e-07
4.86046e-07
-6.64871e-07
4.35408e-07
-7.09206e-07
3.87653e-07
-7.50916e-07
3.4278e-07
-7.89902e-07
3.00766e-07
-8.26076e-07
2.6156e-07
-8.59369e-07
2.25088e-07
-8.89733e-07
1.91253e-07
-9.1716e-07
1.59942e-07
-9.41687e-07
1.31032e-07
-9.63389e-07
1.04396e-07
-9.82371e-07
7.99089e-08
-9.98748e-07
5.74496e-08
-1.01265e-06
3.69003e-08
-1.0242e-06
1.81498e-08
-1.03353e-06
1.09202e-09
-1.04076e-06
-1.43732e-08
-1.04604e-06
-2.83408e-08
-1.04947e-06
-4.08993e-08
-1.05119e-06
-5.21334e-08
-1.05131e-06
-6.21217e-08
-1.04995e-06
-7.09393e-08
-1.04723e-06
-7.86573e-08
-1.04324e-06
-8.53428e-08
-1.03812e-06
-9.10597e-08
-1.03196e-06
-9.58711e-08
-1.02486e-06
-9.98371e-08
-1.01693e-06
-1.00826e-06
-1.03017e-07
6.53552e-07
-4.01383e-07
5.94071e-07
-4.57659e-07
5.37058e-07
-5.11724e-07
4.82568e-07
-5.63523e-07
4.30666e-07
-6.12969e-07
3.81419e-07
-6.59959e-07
3.34878e-07
-7.04375e-07
2.91076e-07
-7.461e-07
2.50022e-07
-7.85022e-07
2.11694e-07
-8.21041e-07
1.76044e-07
-8.54083e-07
1.42993e-07
-8.8411e-07
1.12443e-07
-9.11137e-07
8.42786e-08
-9.35224e-07
5.83779e-08
-9.5647e-07
3.46185e-08
-9.74989e-07
1.28802e-08
-9.90909e-07
-6.95325e-09
-1.00436e-06
-2.49933e-08
-1.01549e-06
-4.13456e-08
-1.02441e-06
-5.611e-08
-1.03127e-06
-6.93807e-08
-1.0362e-06
-8.12476e-08
-1.03933e-06
-9.17942e-08
-1.04077e-06
-1.011e-07
-1.04065e-06
-1.09241e-07
-1.03909e-06
-1.16287e-07
-1.0362e-06
-1.22307e-07
-1.0321e-06
-1.27367e-07
-1.0269e-06
-1.3153e-07
-1.0207e-06
-1.34859e-07
-1.0136e-06
-1.00571e-06
-1.37414e-07
6.00324e-07
-3.42112e-07
5.43202e-07
-4.00536e-07
4.8826e-07
-4.56782e-07
4.35563e-07
-5.10826e-07
3.85196e-07
-5.62602e-07
3.37251e-07
-6.12013e-07
2.91812e-07
-6.58936e-07
2.48947e-07
-7.03236e-07
2.08699e-07
-7.44774e-07
1.71081e-07
-7.83423e-07
1.36073e-07
-8.19075e-07
1.03623e-07
-8.5166e-07
7.36484e-08
-8.81162e-07
4.60448e-08
-9.07621e-07
2.06976e-08
-9.31123e-07
-2.51186e-09
-9.51779e-07
-2.37026e-08
-9.69718e-07
-4.29899e-08
-9.85076e-07
-6.04842e-08
-9.97991e-07
-7.62911e-08
-1.0086e-06
-9.05115e-08
-1.01705e-06
-1.0324e-07
-1.02348e-06
-1.14565e-07
-1.028e-06
-1.24571e-07
-1.03076e-06
-1.33339e-07
-1.03188e-06
-1.40943e-07
-1.03148e-06
-1.47456e-07
-1.02969e-06
-1.52946e-07
-1.02661e-06
-1.5748e-07
-1.02236e-06
-1.61124e-07
-1.01705e-06
-1.6394e-07
-1.01079e-06
-1.00366e-06
-1.65991e-07
5.55861e-07
-2.85534e-07
5.01143e-07
-3.45818e-07
4.48314e-07
-4.03953e-07
3.97436e-07
-4.59948e-07
3.48605e-07
-5.13771e-07
3.01935e-07
-5.65343e-07
2.57542e-07
-6.14543e-07
2.1553e-07
-6.61224e-07
1.75981e-07
-7.05225e-07
1.38944e-07
-7.46386e-07
1.04435e-07
-7.84565e-07
7.24305e-08
-8.19656e-07
4.28715e-08
-8.51603e-07
1.5669e-08
-8.80418e-07
-9.28347e-09
-9.0617e-07
-3.21007e-08
-9.28962e-07
-5.28978e-08
-9.48921e-07
-7.17893e-08
-9.66184e-07
-8.88859e-08
-9.80895e-07
-1.04294e-07
-9.93197e-07
-1.18112e-07
-1.00324e-06
-1.30438e-07
-1.01115e-06
-1.41359e-07
-1.01708e-06
-1.50961e-07
-1.02116e-06
-1.59323e-07
-1.02352e-06
-1.66521e-07
-1.02428e-06
-1.72627e-07
-1.02358e-06
-1.77712e-07
-1.02152e-06
-1.81844e-07
-1.01823e-06
-1.85086e-07
-1.01381e-06
-1.87506e-07
-1.00837e-06
-1.002e-06
-1.89166e-07
5.18558e-07
4.66442e-07
-2.93703e-07
4.15893e-07
-3.53403e-07
3.66974e-07
-4.1103e-07
3.1979e-07
-4.66586e-07
2.74469e-07
-5.20022e-07
2.31159e-07
-5.71232e-07
1.89998e-07
-6.20064e-07
1.5111e-07
-6.66336e-07
1.14585e-07
-7.09861e-07
8.04789e-08
-7.50459e-07
4.88047e-08
-7.87982e-07
1.95334e-08
-8.22331e-07
-7.40345e-09
-8.53482e-07
-3.20997e-08
-8.81474e-07
-5.46626e-08
-9.06399e-07
-7.52043e-08
-9.28379e-07
-9.38376e-08
-9.47551e-07
-1.10673e-07
-9.6406e-07
-1.25814e-07
-9.78055e-07
-1.39365e-07
-9.89685e-07
-1.51418e-07
-9.99097e-07
-1.62064e-07
-1.00643e-06
-1.71388e-07
-1.01183e-06
-1.7947e-07
-1.01544e-06
-1.86385e-07
-1.01737e-06
-1.92206e-07
-1.01776e-06
-1.97004e-07
-1.01672e-06
-2.00847e-07
-1.01439e-06
-2.03802e-07
-1.01086e-06
-2.05934e-07
-1.00623e-06
-1.00062e-06
-2.07311e-07
4.37892e-07
-2.44557e-07
3.89972e-07
-3.05484e-07
3.433e-07
-3.64358e-07
2.97984e-07
-4.21271e-07
2.5418e-07
-4.76219e-07
2.12065e-07
-5.29117e-07
1.71818e-07
-5.79817e-07
1.33606e-07
-6.28125e-07
9.7567e-08
-6.73822e-07
6.38009e-08
-7.16693e-07
3.2365e-08
-7.56546e-07
3.26789e-09
-7.93234e-07
-2.35295e-08
-8.26684e-07
-4.81027e-08
-8.56901e-07
-7.05476e-08
-8.83954e-07
-9.09713e-08
-9.07955e-07
-1.09483e-07
-9.29039e-07
-1.26192e-07
-9.47351e-07
-1.41204e-07
-9.63043e-07
-1.54619e-07
-9.7627e-07
-1.66532e-07
-9.87184e-07
-1.77032e-07
-9.95933e-07
-1.86205e-07
-1.00266e-06
-1.94131e-07
-1.00751e-06
-2.00885e-07
-1.01061e-06
-2.06542e-07
-1.0121e-06
-2.1117e-07
-1.0121e-06
-2.14839e-07
-1.01072e-06
-2.17616e-07
-1.00808e-06
-2.19569e-07
-1.00428e-06
-9.99425e-07
-2.20764e-07
4.15049e-07
-1.9829e-07
3.69951e-07
-2.60386e-07
3.25852e-07
-3.20259e-07
2.82708e-07
-3.78126e-07
2.40655e-07
-4.34165e-07
1.99899e-07
-4.88362e-07
1.60667e-07
-5.40585e-07
1.23173e-07
-5.90631e-07
8.76111e-08
-6.3826e-07
5.41335e-08
-6.83215e-07
2.28477e-08
-7.2526e-07
-6.1912e-09
-7.64195e-07
-3.29831e-08
-7.99892e-07
-5.75758e-08
-8.32308e-07
-8.005e-08
-8.6148e-07
-1.00503e-07
-8.87502e-07
-1.19041e-07
-9.10501e-07
-1.35771e-07
-9.30622e-07
-1.50795e-07
-9.48019e-07
-1.64214e-07
-9.62851e-07
-1.76123e-07
-9.75275e-07
-1.86613e-07
-9.85443e-07
-1.95766e-07
-9.93508e-07
-2.03664e-07
-9.99612e-07
-2.10382e-07
-1.0039e-06
-2.15994e-07
-1.00649e-06
-2.20569e-07
-1.00752e-06
-2.24178e-07
-1.00711e-06
-2.26887e-07
-1.00537e-06
-2.28766e-07
-1.0024e-06
-9.9831e-07
-2.29881e-07
3.9862e-07
-1.54371e-07
3.55898e-07
-2.17663e-07
3.14271e-07
-2.78632e-07
2.73486e-07
-3.37341e-07
2.33427e-07
-3.94106e-07
1.94234e-07
-4.4917e-07
1.56152e-07
-5.02502e-07
1.19446e-07
-5.53926e-07
8.43712e-08
-6.03184e-07
5.11411e-08
-6.49985e-07
1.99225e-08
-6.94041e-07
-9.17473e-09
-7.35098e-07
-3.61011e-08
-7.72966e-07
-6.08673e-08
-8.07542e-07
-8.353e-08
-8.38817e-07
-1.04174e-07
-8.66858e-07
-1.22896e-07
-8.91778e-07
-1.398e-07
-9.13718e-07
-1.54987e-07
-9.32832e-07
-1.68557e-07
-9.49281e-07
-1.80605e-07
-9.63227e-07
-1.9122e-07
-9.74829e-07
-2.00486e-07
-9.84241e-07
-2.08485e-07
-9.91613e-07
-2.15291e-07
-9.97089e-07
-2.20979e-07
-1.0008e-06
-2.25617e-07
-1.00288e-06
-2.29276e-07
-1.00345e-06
-2.32025e-07
-1.00262e-06
-2.3393e-07
-1.0005e-06
-9.97178e-07
-2.35062e-07
3.8931e-07
3.4844e-07
3.08661e-07
2.69913e-07
-2.98593e-07
2.31898e-07
-3.56092e-07
1.94445e-07
-4.11716e-07
1.57678e-07
-4.65735e-07
1.21869e-07
-5.18117e-07
8.73247e-08
-5.6864e-07
5.4328e-08
-6.16989e-07
2.31131e-08
-6.62827e-07
-6.14605e-09
-7.05839e-07
-3.33421e-08
-7.4577e-07
-5.84363e-08
-7.82448e-07
-8.14509e-08
-8.15803e-07
-1.02449e-07
-8.4586e-07
-1.21519e-07
-8.72709e-07
-1.38755e-07
-8.96482e-07
-1.54259e-07
-9.17328e-07
-1.68128e-07
-9.35412e-07
-1.80456e-07
-9.50899e-07
-1.91333e-07
-9.63952e-07
-2.00844e-07
-9.7473e-07
-2.09069e-07
-9.83389e-07
-2.16084e-07
-9.90073e-07
-2.21962e-07
-9.94924e-07
-2.26774e-07
-9.98071e-07
-2.30589e-07
-9.99636e-07
-2.33476e-07
-9.99734e-07
-2.35503e-07
-9.98469e-07
-9.9594e-07
-2.36742e-07
2.72024e-07
-2.61223e-07
2.35608e-07
-3.19676e-07
1.99829e-07
-3.75937e-07
1.64487e-07
-4.30392e-07
1.29705e-07
-4.83336e-07
9.57815e-08
-5.34716e-07
6.30494e-08
-5.84257e-07