/*--------------------------------*- C++ -*----------------------------------*\
  =========                 |
  \\      /  F ield         | OpenFOAM: The Open Source CFD Toolbox
   \\    /   O peration     | Website:  https://openfoam.org
    \\  /    A nd           | Version:  10
     \\/     M anipulation  |
\*---------------------------------------------------------------------------*/
FoamFile
{
    format      ascii;
    class       volScalarField;
    location    "50000";
    object      p;
}
// * * * * * * * * * * * * * * * * * * * * * * * * * * * * * * * * * * * * * //

dimensions      [0 2 -2 0 0 0 0];

internalField   nonuniform List<scalar> 
17981
(
2.82762e-05
0.0570328
0.112356
0.166051
0.218167
0.268744
0.317822
0.365441
0.411641
0.456461
0.499938
0.54211
0.583015
0.622688
0.661165
0.69848
0.734669
0.769764
0.803797
0.8368
0.868805
0.89984
0.929935
0.95912
0.98742
1.01486
1.04148
1.06729
1.09231
1.11659
1.14012
1.16295
1.18509
1.20656
1.22739
1.24758
1.26717
1.28618
1.30461
1.32248
1.33983
1.35665
1.37297
1.3888
1.40416
1.41906
1.43352
1.44755
-0.0116729
0.0458243
0.101643
0.155827
0.208418
0.259456
0.308982
0.357036
0.403657
0.448884
0.492756
0.53531
0.576583
0.616612
0.655432
0.693079
0.729587
0.764988
0.799317
0.832604
0.864882
0.896179
0.926527
0.955953
0.984485
1.01215
1.03898
1.06499
1.09021
1.11467
1.13839
1.16139
1.18369
1.20532
1.2263
1.24664
1.26637
1.2855
1.30406
1.32205
1.33951
1.35644
1.37287
1.3888
1.40425
1.41925
1.43379
1.4479
-0.024154
0.033908
0.0902774
0.144997
0.198108
0.249651
0.299668
0.348197
0.395279
0.440952
0.485254
0.528224
0.569899
0.610315
0.649509
0.687516
0.724371
0.760106
0.794756
0.828351
0.860925
0.892507
0.923128
0.952816
0.981599
1.00951
1.03656
1.0628
1.08823
1.11289
1.1368
1.15999
1.18247
1.20426
1.2254
1.24589
1.26577
1.28504
1.30373
1.32186
1.33944
1.35649
1.37302
1.38906
1.40462
1.41971
1.43435
1.44854
0.187212
0.239298
0.289841
0.338879
0.386453
0.432602
0.477363
0.520777
0.562879
0.603708
0.643299
0.681688
0.71891
0.754999
0.789988
0.823909
0.856796
0.888678
0.919585
0.949548
0.978596
1.00675
1.03405
1.06052
1.08617
1.11104
1.13516
1.15853
1.1812
1.20317
1.22447
1.24513
1.26515
1.28457
1.3034
1.32166
1.33936
1.35653
1.37318
1.38933
1.40499
1.42018
1.43491
1.4492
0.175787
0.228458
0.279566
0.329151
0.377254
0.423913
0.469168
0.513057
0.555618
0.596888
0.636903
0.675701
0.713316
0.749781
0.785132
0.819402
0.852621
0.884822
0.916035
0.94629
0.975617
1.00404
1.0316
1.05831
1.08419
1.10929
1.13361
1.15719
1.18005
1.2022
1.22368
1.24451
1.26469
1.28426
1.30324
1.32163
1.33947
1.35676
1.37353
1.3898
1.40556
1.42086
1.43569
1.45007
0.163833
0.217126
0.268835
0.319001
0.367665
0.414866
0.460643
0.505036
0.548082
0.589818
0.630283
0.669512
0.70754
0.744403
0.780135
0.814769
0.848338
0.880873
0.912406
0.942968
0.972586
1.00129
1.02911
1.05607
1.0822
1.10753
1.13207
1.15586
1.17892
1.20127
1.22293
1.24392
1.26427
1.284
1.30312
1.32166
1.33963
1.35705
1.37394
1.39032
1.4062
1.4216
1.43653
1.451
0.205329
0.257676
0.308458
0.357717
0.405493
0.451824
0.49675
0.540309
0.58254
0.623479
0.663163
0.701629
0.738911
0.775045
0.810063
0.843999
0.876886
0.908755
0.939637
0.969562
0.998559
1.02666
1.05388
1.08027
1.10583
1.13061
1.15461
1.17788
1.20042
1.22227
1.24344
1.26396
1.28385
1.30313
1.32181
1.33992
1.35747
1.37449
1.39098
1.40698
1.42248
1.43751
1.45208
0.297506
0.347393
0.395775
0.44269
0.488178
0.532278
0.575028
0.616466
0.656629
0.695554
0.733275
0.769828
0.805248
0.839568
0.872821
0.905039
0.936254
0.966496
0.995798
1.02419
1.05169
1.07833
1.10414
1.12915
1.15338
1.17686
1.1996
1.22164
1.243
1.26369
1.28374
1.30317
1.322
1.34025
1.35794
1.37508
1.39169
1.4078
1.42341
1.43854
1.45321
0.336679
0.385699
0.433229
0.479309
0.523978
0.567274
0.609235
0.6499
0.689304
0.727485
0.764477
0.800316
0.835036
0.86867
0.901252
0.932813
0.963384
0.992993
1.02167
1.04946
1.07637
1.10245
1.12772
1.15219
1.17589
1.19884
1.22108
1.24262
1.26349
1.2837
1.30329
1.32227
1.34066
1.35849
1.37575
1.39249
1.40871
1.42443
1.43966
1.45443
0.423419
0.470123
0.515391
0.559262
0.601774
0.642966
0.682875
0.721538
0.758991
0.795269
0.830408
0.864442
0.897403
0.929326
0.960243
0.990183
1.01918
1.04725
1.07443
1.10074
1.12622
1.15091
1.17483
1.198
1.22044
1.24217
1.26322
1.28361
1.30336
1.32249
1.34103
1.35899
1.37638
1.39324
1.40957
1.4254
1.44074
1.4556
0.594037
0.635776
0.676208
0.71537
0.753297
0.790028
0.825596
0.860038
0.893388
0.925679
0.956944
0.987214
1.01652
1.0449
1.07239
1.09901
1.12477
1.1497
1.17385
1.19723
1.21986
1.24179
1.26301
1.28357
1.30348
1.32277
1.34145
1.35954
1.37706
1.39404
1.41048
1.42642
1.44186
1.45682
0.586047
0.628358
0.669334
0.709014
0.747435
0.784635
0.820649
0.855515
0.889266
0.921938
0.953564
0.984177
1.01381
1.04249
1.07026
1.09713
1.12314
1.14833
1.1727
1.1963
1.21914
1.24126
1.26267
1.2834
1.30348
1.32291
1.34174
1.35996
1.37762
1.39471
1.41127
1.42731
1.44285
1.4579
0.577796
0.620696
0.662234
0.702447
0.741376
0.779057
0.81553
0.850829
0.884992
0.918053
0.950049
0.981011
1.01097
1.03997
1.06803
1.09518
1.12146
1.14688
1.17149
1.19531
1.21836
1.24067
1.26227
1.28317
1.30341
1.323
1.34196
1.36032
1.3781
1.39532
1.41199
1.42813
1.44377
1.45891
0.569311
0.612815
0.654927
0.695686
0.735133
0.773306
0.810243
0.845984
0.880564
0.91402
0.946389
0.977703
1.008
1.03731
1.06566
1.09309
1.11963
1.14531
1.17015
1.19419
1.21744
1.23995
1.26172
1.2828
1.30319
1.32293
1.34204
1.36053
1.37844
1.39577
1.41255
1.4288
1.44453
1.45976
0.604749
0.647444
0.688756
0.728728
0.767398
0.804807
0.840992
0.875994
0.909848
0.942593
0.974262
1.00489
1.03452
1.06317
1.09088
1.11768
1.1436
1.16868
1.19293
1.21639
1.23909
1.26104
1.28229
1.30284
1.32273
1.34197
1.3606
1.37862
1.39606
1.41295
1.4293
1.44512
1.46044
0.596541
0.639823
0.681692
0.722191
0.76136
0.799241
0.835873
0.871296
0.905549
0.938668
0.970692
1.00165
1.03159
1.06054
1.08852
1.11559
1.14175
1.16706
1.19152
1.21519
1.23807
1.26021
1.28161
1.30232
1.32235
1.34173
1.36048
1.37862
1.39618
1.41316
1.4296
1.44551
1.46092
0.588257
0.632123
0.674546
0.715569
0.755234
0.793583
0.830658
0.866498
0.901144
0.934634
0.967006
0.998297
1.02854
1.05778
1.08604
1.11335
1.13976
1.16529
1.18997
1.21382
1.23689
1.2592
1.28077
1.30162
1.3218
1.3413
1.36017
1.37843
1.39609
1.41317
1.4297
1.4457
1.46118
0.624387
0.667361
0.708906
0.749064
0.78788
0.825395
0.861649
0.896684
0.930538
0.963252
0.994863
1.02541
1.05493
1.08345
1.11101
1.13765
1.1634
1.18828
1.21233
1.23557
1.25804
1.27976
1.30076
1.32107
1.3407
1.35969
1.37805
1.39581
1.41298
1.4296
1.44567
1.46122
0.616696
0.660221
0.702289
0.74293
0.782193
0.820127
0.856777
0.892182
0.926385
0.959426
0.991345
1.02218
1.05197
1.08074
1.10855
1.13541
1.16136
1.18644
1.21067
1.23408
1.25671
1.27858
1.29972
1.32015
1.3399
1.359
1.37746
1.39531
1.41257
1.42927
1.44542
1.46104
0.608897
0.653009
0.69564
0.736833
0.776637
0.815072
0.852156
0.887925
0.922432
0.955749
0.987932
1.01902
1.04904
1.07805
1.10606
1.13312
1.15926
1.18452
1.20891
1.23248
1.25526
1.27726
1.29853
1.31908
1.33894
1.35813
1.37669
1.39463
1.41197
1.42874
1.44496
1.46064
0.601263
0.645866
0.688982
0.730654
0.770906
0.809756
0.847237
0.883399
0.918296
0.951966
0.984434
1.01576
1.04601
1.07522
1.10344
1.13069
1.15701
1.18243
1.20698
1.2307
1.25361
1.27575
1.29713
1.31779
1.33776
1.35705
1.3757
1.39372
1.41113
1.42797
1.44425
1.46
0.593923
0.638901
0.682374
0.724382
0.764963
0.804154
0.841997
0.878533
0.913793
0.947793
0.980576
1.01219
1.04269
1.07212
1.10055
1.12799
1.15449
1.18009
1.2048
1.22867
1.25172
1.27398
1.29548
1.31626
1.33632
1.35571
1.37444
1.39254
1.41004
1.42694
1.44328
1.45908
0.586935
0.632266
0.676083
0.718421
0.759314
0.798796
0.83691
0.873699
0.909207
0.943477
0.976544
1.00843
1.03918
1.06884
1.09746
1.1251
1.15178
1.17754
1.20241
1.22642
1.24961
1.272
1.29362
1.3145
1.33466
1.35414
1.37296
1.39114
1.4087
1.42567
1.44208
1.45793
0.580273
0.625904
0.67001
0.712634
0.753809
0.79357
0.831953
0.868996
0.90474
0.939225
0.972496
1.00459
1.03556
1.06543
1.09425
1.12207
1.14892
1.17484
1.19986
1.22402
1.24733
1.26984
1.29157
1.31256
1.33282
1.35239
1.37129
1.38954
1.40717
1.4242
1.44066
1.45657
0.57393
0.619856
0.664218
0.707085
0.748504
0.788507
0.827129
0.864403
0.900367
0.935061
0.968526
1.00081
1.03195
1.062
1.091
1.11899
1.146
1.17208
1.19724
1.22152
1.24496
1.26759
1.28943
1.31051
1.33086
1.35051
1.36949
1.38781
1.4055
1.4226
1.43911
1.45506
0.567817
0.614056
0.658679
0.701767
0.743395
0.783608
0.82244
0.859923
0.896088
0.930975
0.964622
0.997074
1.02838
1.05859
1.08775
1.1159
1.14307
1.16929
1.19458
1.21899
1.24255
1.26528
1.28722
1.3084
1.32883
1.34856
1.36761
1.386
1.40375
1.4209
1.43746
1.45345
0.561913
0.608445
0.653354
0.696676
0.738495
0.778888
0.817903
0.85557
0.891919
0.926984
0.960803
0.993418
1.02488
1.05524
1.08455
1.11286
1.14017
1.16652
1.19195
1.21648
1.24014
1.26298
1.28501
1.30627
1.32679
1.3466
1.36571
1.38416
1.40197
1.41917
1.43578
1.45181
0.556246
0.603007
0.648179
0.691762
0.733789
0.774351
0.813525
0.851354
0.887869
0.923099
0.957079
0.989849
1.02146
1.05196
1.08143
1.10988
1.13733
1.16381
1.18936
1.214
1.23777
1.26071
1.28283
1.30418
1.32478
1.34465
1.36383
1.38234
1.4002
1.41745
1.4341
1.45018
0.550834
0.59778
0.64315
0.686971
0.729238
0.769988
0.809313
0.847287
0.883951
0.919333
0.953465
0.986384
1.01814
1.04879
1.0784
1.107
1.13458
1.16118
1.18685
1.2116
1.23547
1.2585
1.28072
1.30214
1.32282
1.34276
1.362
1.38057
1.39849
1.41578
1.43247
1.44859
0.592776
0.638305
0.682303
0.724793
0.765764
0.805259
0.843373
0.880173
0.915697
0.949973
0.983036
1.01493
1.04573
1.07549
1.10422
1.13193
1.15865
1.18443
1.20929
1.23327
1.25639
1.27869
1.3002
1.32094
1.34095
1.36026
1.37888
1.39685
1.41418
1.43092
1.44707
0.587988
0.633657
0.677795
0.720448
0.761633
0.801336
0.839607
0.87654
0.912195
0.946607
0.979809
1.01185
1.04279
1.07269
1.10156
1.12939
1.15624
1.18213
1.20709
1.23117
1.25438
1.27677
1.29835
1.31917
1.33925
1.35861
1.37729
1.39531
1.41269
1.42946
1.44565
0.583406
0.629198
0.673463
0.716244
0.757585
0.797495
0.835965
0.873049
0.908834
0.943376
0.976712
1.00889
1.03999
1.07003
1.09902
1.12698
1.15394
1.17994
1.20501
1.22919
1.25249
1.27496
1.29663
1.31752
1.33766
1.35709
1.37582
1.39389
1.41132
1.42813
1.44435
0.579019
0.624919
0.669298
0.712196
0.753657
0.793721
0.832395
0.869673
0.905609
0.940282
0.973751
1.00607
1.03731
1.06749
1.09661
1.12469
1.15177
1.17789
1.20306
1.22733
1.25073
1.27329
1.29503
1.316
1.33621
1.35569
1.37448
1.3926
1.41007
1.42692
1.44318
0.708301
0.749874
0.790054
0.828879
0.866356
0.902486
0.937319
0.970925
1.00338
1.03476
1.06508
1.09433
1.12253
1.14973
1.17595
1.20123
1.2256
1.24909
1.27174
1.29356
1.3146
1.33488
1.35443
1.37327
1.39144
1.40896
1.42585
1.44214
0.704544
0.746223
0.786512
0.825449
0.863071
0.899388
0.93441
0.968196
1.00082
1.03236
1.0628
1.09217
1.1205
1.14781
1.17414
1.19953
1.224
1.24759
1.27032
1.29223
1.31334
1.33369
1.3533
1.37221
1.39042
1.40799
1.42492
1.44125
0.700927
0.742706
0.783103
0.822153
0.859891
0.89635
0.931556
0.965538
0.998349
1.03003
1.06061
1.0901
1.11855
1.14598
1.17243
1.19793
1.2225
1.24619
1.26901
1.29101
1.3122
1.33262
1.3523
1.37126
1.38953
1.40715
1.42412
1.44049
0.697446
0.739325
0.77983
0.818997
0.856858
0.893447
0.928796
0.962938
0.995905
1.02773
1.05844
1.08807
1.11666
1.14422
1.17079
1.1964
1.22109
1.24488
1.2678
1.28989
1.31116
1.33166
1.35141
1.37043
1.38876
1.40643
1.42345
1.43985
0.694074
0.736048
0.776658
0.815938
0.853921
0.89064
0.926124
0.960406
0.993516
1.02548
1.05634
1.08611
1.11483
1.14252
1.16922
1.19496
1.21976
1.24366
1.26668
1.28886
1.31022
1.3308
1.35062
1.36972
1.38811
1.40582
1.42289
1.43934
0.690796
0.732858
0.773567
0.812956
0.851056
0.8879
0.923516
0.957934
0.991184
1.02329
1.05429
1.0842
1.11306
1.14089
1.16772
1.19358
1.21851
1.24252
1.26565
1.28792
1.30938
1.33004
1.34994
1.3691
1.38755
1.40532
1.42244
1.43893
0.687596
0.72974
0.770542
0.810034
0.848248
0.885213
0.920958
0.95551
0.988898
1.02115
1.05229
1.08234
1.11134
1.13931
1.16628
1.19227
1.21732
1.24145
1.26469
1.28707
1.30862
1.32937
1.34935
1.36858
1.3871
1.40493
1.4221
1.43863
0.684463
0.726682
0.767572
0.807163
0.845485
0.882567
0.918437
0.953122
0.986648
1.01904
1.05032
1.08052
1.10967
1.13778
1.16488
1.19101
1.21619
1.24044
1.26379
1.28628
1.30793
1.32877
1.34884
1.36815
1.38673
1.40462
1.42185
1.43843
0.681389
0.723678
0.764648
0.804331
0.842757
0.879952
0.915944
0.950759
0.98442
1.01695
1.04838
1.07873
1.10802
1.13627
1.16352
1.18979
1.21509
1.23947
1.26295
1.28555
1.3073
1.32824
1.34839
1.36778
1.38644
1.40439
1.42167
1.4383
0.67837
0.72072
0.761765
0.801534
0.840057
0.87736
0.91347
0.94841
0.982206
1.01488
1.04645
1.07694
1.10638
1.13478
1.16218
1.18859
1.21403
1.23854
1.26214
1.28486
1.30672
1.32776
1.348
1.36748
1.38621
1.40423
1.42157
1.43825
0.675403
0.717807
0.758919
0.798768
0.837381
0.874786
0.911008
0.94607
0.979996
1.01281
1.04452
1.07516
1.10475
1.1333
1.16084
1.1874
1.21298
1.23763
1.26136
1.2842
1.30618
1.32732
1.34766
1.36722
1.38603
1.40412
1.42152
1.43826
0.672489
0.714939
0.75611
0.79603
0.834727
0.872227
0.908555
0.943734
0.977785
1.01073
1.04258
1.07337
1.10311
1.13181
1.1595
1.18621
1.21194
1.23673
1.26059
1.28356
1.30565
1.32691
1.34735
1.367
1.38589
1.40406
1.42152
1.43832
0.669629
0.712116
0.753338
0.793322
0.832095
0.869683
0.90611
0.941398
0.975569
1.00864
1.04064
1.07157
1.10145
1.13031
1.15815
1.18501
1.21089
1.23582
1.25982
1.28292
1.30514
1.32651
1.34705
1.3668
1.38578
1.40402
1.42155
1.43841
0.66683
0.709344
0.750608
0.790647
0.829488
0.867155
0.903673
0.939064
0.973349
1.00655
1.03867
1.06974
1.09977
1.12878
1.15678
1.18379
1.20982
1.2349
1.25904
1.28228
1.30463
1.32611
1.34677
1.36662
1.38569
1.40401
1.42161
1.43853
0.664096
0.706627
0.747923
0.788009
0.826909
0.864647
0.901248
0.936734
0.971124
1.00444
1.03669
1.0679
1.09807
1.12723
1.15538
1.18254
1.20873
1.23396
1.25825
1.28162
1.3041
1.32572
1.34648
1.36644
1.3856
1.40401
1.42169
1.43866
0.661437
0.703974
0.74529
0.785413
0.824363
0.862165
0.89884
0.934411
0.968898
1.00232
1.03469
1.06603
1.09634
1.12565
1.15395
1.18127
1.20761
1.23299
1.25743
1.28095
1.30357
1.32531
1.3462
1.36626
1.38552
1.40402
1.42177
1.43882
0.658857
0.701392
0.742718
0.782866
0.821857
0.859712
0.896453
0.932101
0.966677
1.0002
1.03268
1.06414
1.09459
1.12403
1.15249
1.17996
1.20645
1.23199
1.25659
1.28025
1.30301
1.32489
1.3459
1.36607
1.38544
1.40402
1.42186
1.43897
0.656351
0.698888
0.740216
0.780376
0.819396
0.857295
0.894093
0.92981
0.964465
0.998078
1.03066
1.06224
1.09281
1.12239
1.15099
1.17861
1.20526
1.23096
1.25571
1.27953
1.30243
1.32444
1.34558
1.36587
1.38535
1.40403
1.42195
1.43914
0.653906
0.696454
0.737788
0.777954
0.81699
0.854922
0.891767
0.927543
0.96227
0.995965
1.02864
1.06032
1.09102
1.12073
1.14946
1.17723
1.20404
1.22989
1.2548
1.27877
1.30182
1.32397
1.34524
1.36566
1.38524
1.40403
1.42203
1.4393
0.651514
0.694077
0.735427
0.775603
0.814647
0.852599
0.889481
0.925308
0.960096
0.993864
1.02663
1.05841
1.08921
1.11904
1.14791
1.17582
1.20278
1.22878
1.25385
1.27798
1.30118
1.32348
1.34489
1.36543
1.38513
1.40402
1.42212
1.43946
0.691751
0.733121
0.773315
0.812373
0.850337
0.887241
0.923108
0.95795
0.991783
1.02462
1.05649
1.08739
1.11733
1.14633
1.17438
1.20148
1.22764
1.25286
1.27715
1.30051
1.32296
1.34451
1.36518
1.385
1.404
1.42219
1.43962
0.68947
0.730859
0.771078
0.810159
0.848138
0.885058
0.920951
0.955837
0.989727
1.02264
1.05458
1.08557
1.11562
1.14473
1.17291
1.20015
1.22647
1.25184
1.27629
1.29981
1.32241
1.34411
1.36492
1.38486
1.40397
1.42226
1.43977
0.768883
0.807991
0.845996
0.882934
0.918845
0.953762
0.987699
1.02067
1.05268
1.08375
1.1139
1.14312
1.17142
1.1988
1.22526
1.25079
1.27539
1.29907
1.32183
1.34368
1.36463
1.3847
1.40392
1.42232
1.43993
0.766724
0.805859
0.843895
0.880861
0.916794
0.951732
0.985704
1.01872
1.0508
1.08195
1.11217
1.14149
1.16991
1.19742
1.22402
1.2497
1.27446
1.2983
1.32122
1.34322
1.36432
1.38453
1.40387
1.42238
1.44007
0.803761
0.841826
0.878826
0.914789
0.949751
0.983748
1.01681
1.04894
1.08015
1.11046
1.13987
1.16839
1.19602
1.22275
1.24858
1.2735
1.2975
1.32058
1.34274
1.36399
1.38434
1.40381
1.42243
1.44022
0.801691
0.839785
0.876817
0.912816
0.94781
0.981834
1.01492
1.0471
1.07837
1.10875
1.13824
1.16686
1.1946
1.22146
1.24743
1.2725
1.29667
1.31991
1.34223
1.36363
1.38413
1.40373
1.42247
1.44036
0.799647
0.837768
0.874831
0.910865
0.945897
0.979955
1.01307
1.04528
1.0766
1.10704
1.13661
1.16532
1.19316
1.22014
1.24625
1.27147
1.29579
1.3192
1.34169
1.36325
1.3839
1.40364
1.4225
1.4405
0.835773
0.872865
0.908932
0.944
0.978098
1.01125
1.0435
1.07486
1.10535
1.13499
1.16377
1.19171
1.2188
1.24504
1.2704
1.29488
1.31846
1.34111
1.36284
1.38364
1.40353
1.42252
1.44063
0.833794
0.870915
0.907014
0.942117
0.976253
1.00945
1.04173
1.07313
1.10367
1.13337
1.16222
1.19025
1.21744
1.2438
1.2693
1.29393
1.31767
1.3405
1.36239
1.38336
1.4034
1.42252
1.44075
0.868978
0.905107
0.940244
0.974416
1.00765
1.03997
1.07141
1.102
1.13174
1.16067
1.18877
1.21606
1.24253
1.26816
1.29294
1.31684
1.33984
1.36191
1.38304
1.40324
1.42251
1.44086
0.86705
0.903208
0.938377
0.972585
1.00586
1.03822
1.0697
1.10033
1.13012
1.15911
1.18728
1.21466
1.24123
1.26699
1.29191
1.31597
1.33913
1.36138
1.38269
1.40305
1.42247
1.44096
0.865129
0.901314
0.936514
0.970755
1.00406
1.03647
1.06799
1.09866
1.1285
1.15753
1.18577
1.21323
1.23989
1.26577
1.29082
1.31504
1.33837
1.3608
1.38229
1.40282
1.4224
1.44103
0.899423
0.934652
0.968925
1.00227
1.03471
1.06627
1.09698
1.12686
1.15595
1.18425
1.21177
1.23852
1.2645
1.28969
1.31405
1.33755
1.36015
1.38183
1.40255
1.42229
1.44107
0.897531
0.932787
0.967091
1.00047
1.03294
1.06454
1.09528
1.12521
1.15434
1.1827
1.21029
1.23712
1.26319
1.28849
1.313
1.33666
1.35944
1.38131
1.40221
1.42214
1.44108
0.895637
0.930919
0.965251
0.998659
1.03117
1.0628
1.09358
1.12354
1.15271
1.18112
1.20876
1.23567
1.26183
1.28724
1.31187
1.33569
1.35865
1.38071
1.40181
1.42193
1.44105
0.929043
0.963403
0.99684
1.02938
1.06105
1.09186
1.12186
1.15106
1.1795
1.2072
1.23417
1.26041
1.28591
1.31068
1.33465
1.35778
1.38002
1.40132
1.42164
1.44095
0.927157
0.961542
0.995009
1.02758
1.05928
1.09013
1.12016
1.1494
1.17786
1.2056
1.23262
1.25893
1.28452
1.30939
1.33351
1.3568
1.37923
1.40074
1.42127
1.44078
0.925259
0.959667
0.993161
1.02576
1.05749
1.08838
1.11844
1.14771
1.1762
1.20396
1.23102
1.25739
1.28306
1.30803
1.33227
1.35572
1.37833
1.40004
1.42079
1.44053
0.923345
0.957775
0.991293
1.02392
1.05568
1.0866
1.11669
1.14599
1.17452
1.2023
1.22938
1.25578
1.28151
1.30657
1.33093
1.35453
1.37732
1.39922
1.42019
1.44017
0.921416
0.955864
0.989404
1.02206
1.05385
1.0848
1.11492
1.14425
1.17281
1.20062
1.22771
1.25413
1.2799
1.30502
1.32948
1.35322
1.37617
1.39827
1.41946
1.43968
0.919471
0.953935
0.987495
1.02017
1.05199
1.08296
1.11312
1.14249
1.17107
1.19891
1.22603
1.25245
1.27823
1.30339
1.32792
1.35178
1.37489
1.39718
1.41859
1.43906
0.917515
0.951992
0.985567
1.01826
1.0501
1.0811
1.11129
1.14068
1.1693
1.19717
1.22431
1.25075
1.27653
1.3017
1.32626
1.3502
1.37346
1.39593
1.41755
1.4383
0.915553
0.95004
0.983628
1.01634
1.0482
1.07922
1.10944
1.13886
1.16751
1.19541
1.22258
1.24904
1.27483
1.29997
1.32453
1.34851
1.37187
1.39449
1.41628
1.43735
0.913604
0.9481
0.981698
1.01442
1.0463
1.07734
1.10758
1.13702
1.1657
1.19363
1.22083
1.24732
1.27313
1.29827
1.3228
1.34677
1.37016
1.3929
1.41487
1.43618
0.911659
0.94617
0.979786
1.01253
1.04443
1.0755
1.10576
1.13523
1.16394
1.1919
1.21912
1.24564
1.27146
1.29662
1.32113
1.34504
1.3684
1.39122
1.41347
1.43509
0.909832
0.944331
0.977943
1.01069
1.0426
1.07368
1.10397
1.13347
1.1622
1.19019
1.21746
1.24401
1.26987
1.29507
1.31961
1.34351
1.36681
1.38951
1.41168
1.4334
0.908216
0.94282
0.976532
1.00937
1.04136
1.07252
1.10287
1.13242
1.16119
1.1892
1.21646
1.243
1.26882
1.29394
1.31835
1.34207
1.36509
1.38739
1.4087
1.42888
2.61412
2.58327
2.55289
2.52296
2.49348
2.46445
2.43586
2.40771
2.38
2.35271
2.32585
2.2994
2.27338
2.24776
2.22255
2.19774
2.17333
2.14931
2.12567
2.10241
2.07952
2.05699
2.03483
2.01302
1.99155
1.97041
1.94961
1.92912
1.90894
1.88907
1.86949
1.85019
1.83117
1.8124
1.79389
1.77563
1.75759
1.73978
1.72217
1.70477
1.68755
1.67051
1.65365
1.63694
1.62039
1.60399
1.58774
1.57164
1.55568
1.53989
1.52422
1.50857
1.49295
1.47941
1.45656
2.61457
2.58376
2.55341
2.52351
2.49407
2.46507
2.43652
2.40841
2.38073
2.35348
2.32666
2.30027
2.27428
2.24871
2.22355
2.19878
2.17442
2.15044
2.12684
2.10363
2.08078
2.0583
2.03618
2.01441
1.99298
1.97189
1.95112
1.93067
1.91053
1.89069
1.87114
1.85188
1.83288
1.81415
1.79567
1.77743
1.75941
1.74162
1.72404
1.70665
1.68944
1.67241
1.65554
1.63882
1.62225
1.60581
1.58949
1.57328
1.55717
1.54114
1.52517
1.50905
1.49236
1.47632
1.45781
2.61448
2.58369
2.55336
2.52348
2.49407
2.4651
2.43658
2.4085
2.38085
2.35364
2.32685
2.30049
2.27454
2.24901
2.22388
2.19916
2.17483
2.15089
2.12733
2.10415
2.08134
2.0589
2.03681
2.01507
1.99368
1.97261
1.95187
1.93145
1.91134
1.89152
1.872
1.85275
1.83378
1.81506
1.79659
1.77836
1.76036
1.74257
1.725
1.70761
1.69041
1.67338
1.65651
1.6398
1.62322
1.60678
1.59046
1.57424
1.55813
1.54208
1.52605
1.50991
1.4932
1.47589
1.45752
2.61433
2.58356
2.55326
2.52342
2.49403
2.46509
2.4366
2.40856
2.38095
2.35377
2.32702
2.30069
2.27478
2.24929
2.2242
2.19951
2.17522
2.15132
2.1278
2.10466
2.08189
2.05948
2.03742
2.01572
1.99435
1.97332
1.95261
1.93221
1.91212
1.89233
1.87282
1.8536
1.83463
1.81593
1.79747
1.77925
1.76126
1.74348
1.7259
1.70852
1.69132
1.67429
1.65743
1.64072
1.62415
1.60772
1.59142
1.57524
1.55916
1.54315
1.52714
1.51101
1.49441
1.47686
1.45794
2.61425
2.5835
2.55323
2.52341
2.49405
2.46515
2.43669
2.40868
2.3811
2.35396
2.32724
2.30095
2.27508
2.24962
2.22457
2.19992
2.17567
2.1518
2.12832
2.10521
2.08248
2.0601
2.03808
2.01641
1.99507
1.97406
1.95338
1.93301
1.91294
1.89317
1.87368
1.85447
1.83552
1.81683
1.79839
1.78018
1.76219
1.74442
1.72685
1.70948
1.6923
1.67528
1.65844
1.64175
1.62521
1.60881
1.59254
1.5764
1.56035
1.54436
1.52834
1.51214
1.49543
1.47775
1.4585
2.61418
2.58346
2.55321
2.52343
2.4941
2.46522
2.4368
2.40881
2.38127
2.35416
2.32748
2.30123
2.27539
2.24997
2.22495
2.20034
2.17612
2.15228
2.12884
2.10576
2.08306
2.06071
2.03872
2.01707
1.99576
1.97478
1.95412
1.93377
1.91372
1.89397
1.8745
1.8553
1.83637
1.81769
1.79925
1.78105
1.76308
1.74532
1.72776
1.7104
1.69323
1.67624
1.65941
1.64274
1.62623
1.60986
1.59362
1.5775
1.56146
1.54546
1.52939
1.51305
1.49612
1.47822
1.45882
2.61413
2.58344
2.55322
2.52346
2.49416
2.46531
2.43692
2.40897
2.38146
2.35438
2.32773
2.30151
2.27571
2.25032
2.22533
2.20075
2.17657
2.15277
2.12935
2.10631
2.08363
2.06131
2.03935
2.01773
1.99644
1.97548
1.95484
1.93451
1.91448
1.89474
1.87528
1.8561
1.83718
1.81851
1.80008
1.78189
1.76393
1.74618
1.72864
1.71129
1.69413
1.67715
1.66034
1.6437
1.6272
1.61085
1.59463
1.57851
1.56247
1.54642
1.53026
1.51374
1.49658
1.47849
1.45913
2.6141
2.58343
2.55324
2.5235
2.49423
2.46542
2.43705
2.40913
2.38165
2.35461
2.328
2.30181
2.27604
2.25068
2.22573
2.20118
2.17702
2.15325
2.12986
2.10685
2.0842
2.06191
2.03997
2.01837
1.9971
1.97616
1.95554
1.93523
1.91521
1.89548
1.87604
1.85687
1.83795
1.8193
1.80088
1.7827
1.76475
1.74701
1.72947
1.71214
1.69499
1.67802
1.66123
1.6446
1.62812
1.61178
1.59555
1.57942
1.56334
1.54722
1.53092
1.51419
1.49684
1.47863
1.45942
2.61409
2.58345
2.55327
2.52357
2.49433
2.46554
2.4372
2.40931
2.38186
2.35485
2.32827
2.30211
2.27637
2.25104
2.22612
2.2016
2.17747
2.15373
2.13037
2.10738
2.08476
2.06249
2.04057
2.01899
1.99774
1.97682
1.95622
1.93592
1.91591
1.8962
1.87677
1.8576
1.8387
1.82005
1.80164
1.78347
1.76552
1.74779
1.73026
1.71294
1.6958
1.67884
1.66205
1.64543
1.62895
1.6126
1.59636
1.5802
1.56406
1.54784
1.53136
1.51444
1.49692
1.47867
1.45961
2.61409
2.58347
2.55333
2.52365
2.49443
2.46568
2.43737
2.40951
2.38209
2.35511
2.32855
2.30242
2.27671
2.25141
2.22652
2.20203
2.17793
2.15421
2.13087
2.10791
2.0853
2.06306
2.04116
2.0196
1.99837
1.97746
1.95687
1.93658
1.91659
1.89688
1.87746
1.8583
1.83941
1.82076
1.80236
1.78419
1.76625
1.74852
1.731
1.71368
1.69655
1.67959
1.66281
1.64618
1.62969
1.61333
1.59706
1.58085
1.56462
1.54826
1.5316
1.51451
1.49688
1.47862
1.45973
2.61411
2.58352
2.5534
2.52375
2.49456
2.46583
2.43755
2.40971
2.38232
2.35537
2.32884
2.30274
2.27706
2.25179
2.22692
2.20245
2.17838
2.15468
2.13137
2.10843
2.08584
2.06361
2.04173
2.02019
1.99897
1.97808
1.95749
1.93722
1.91723
1.89754
1.87812
1.85897
1.84008
1.82144
1.80304
1.78488
1.76693
1.74921
1.73169
1.71437
1.69723
1.68028
1.66348
1.64684
1.63034
1.61395
1.59764
1.58136
1.56502
1.5485
1.53167
1.51445
1.49675
1.47851
1.45977
2.61415
2.58358
2.55348
2.52386
2.49469
2.46599
2.43774
2.40993
2.38257
2.35564
2.32914
2.30307
2.27741
2.25216
2.22732
2.20288
2.17882
2.15515
2.13186
2.10893
2.08637
2.06415
2.04229
2.02076
1.99955
1.97867
1.9581
1.93783
1.91785
1.89816
1.87874
1.8596
1.84071
1.82207
1.80368
1.78551
1.76757
1.74984
1.73232
1.715
1.69785
1.68089
1.66408
1.64742
1.63089
1.61446
1.5981
1.58173
1.56526
1.54858
1.53161
1.51429
1.49655
1.47835
1.45975
2.6142
2.58365
2.55358
2.52398
2.49484
2.46616
2.43794
2.41016
2.38282
2.35592
2.32945
2.3034
2.27776
2.25254
2.22772
2.2033
2.17927
2.15561
2.13234
2.10943
2.08688
2.06468
2.04283
2.02131
2.00011
1.97924
1.95867
1.93841
1.91844
1.89875
1.87934
1.86019
1.8413
1.82266
1.80427
1.7861
1.76816
1.75042
1.7329
1.71556
1.69841
1.68143
1.6646
1.64792
1.63136
1.61488
1.59844
1.58196
1.56535
1.54853
1.53145
1.51406
1.4963
1.47815
1.45967
2.61426
2.58374
2.5537
2.52412
2.49501
2.46635
2.43815
2.4104
2.38308
2.35621
2.32976
2.30373
2.27812
2.25292
2.22812
2.20372
2.1797
2.15607
2.13281
2.10991
2.08738
2.06519
2.04335
2.02184
2.00065
1.97978
1.95922
1.93896
1.91899
1.89931
1.87989
1.86075
1.84186
1.82322
1.80481
1.78664
1.76869
1.75095
1.73341
1.71607
1.6989
1.6819
1.66505
1.64834
1.63173
1.6152
1.59866
1.58206
1.56532
1.54839
1.53122
1.51377
1.49601
1.47792
1.45956
2.61434
2.58384
2.55382
2.52427
2.49518
2.46655
2.43837
2.41064
2.38335
2.3565
2.33007
2.30407
2.27848
2.25329
2.22852
2.20413
2.18013
2.15651
2.13327
2.11039
2.08786
2.06569
2.04385
2.02235
2.00117
1.9803
1.95974
1.93949
1.91952
1.89983
1.88042
1.86127
1.84237
1.82373
1.80532
1.78714
1.76918
1.75143
1.73388
1.71651
1.69933
1.6823
1.66543
1.64868
1.63203
1.61541
1.59877
1.58204
1.56519
1.54816
1.53093
1.51344
1.49569
1.47766
1.45941
2.61444
2.58396
2.55396
2.52443
2.49537
2.46676
2.4386
2.4109
2.38363
2.35679
2.33039
2.3044
2.27883
2.25367
2.22891
2.20454
2.18056
2.15695
2.13372
2.11085
2.08833
2.06616
2.04433
2.02283
2.00166
1.9808
1.96024
1.93998
1.92001
1.90032
1.88091
1.86175
1.84285
1.8242
1.80578
1.78759
1.76962
1.75185
1.73429
1.71691
1.6997
1.68265
1.66574
1.64895
1.63223
1.61552
1.59877
1.58193
1.56499
1.54789
1.5306
1.51309
1.49535
1.47739
1.45923
2.61455
2.58409
2.55411
2.52461
2.49556
2.46698
2.43884
2.41116
2.38391
2.35709
2.33071
2.30474
2.27919
2.25404
2.2293
2.20494
2.18097
2.15738
2.13416
2.11129
2.08879
2.06662
2.0448
2.0233
2.00213
1.98127
1.96071
1.94045
1.92048
1.90079
1.88136
1.8622
1.8433
1.82463
1.8062
1.788
1.77002
1.75223
1.73465
1.71725
1.70002
1.68294
1.66599
1.64914
1.63234
1.61553
1.59868
1.58175
1.56473
1.54756
1.53023
1.51271
1.495
1.4771
1.45904
2.61467
2.58424
2.55428
2.52479
2.49577
2.4672
2.43909
2.41142
2.38419
2.3574
2.33103
2.30508
2.27954
2.25441
2.22968
2.20534
2.18138
2.1578
2.13458
2.11173
2.08923
2.06707
2.04525
2.02375
2.00258
1.98172
1.96116
1.9409
1.92092
1.90122
1.88179
1.86262
1.8437
1.82503
1.80659
1.78837
1.77037
1.75257
1.73497
1.71754
1.70028
1.68317
1.66618
1.64926
1.63236
1.61546
1.59852
1.58152
1.56442
1.5472
1.52984
1.51232
1.49464
1.4768
1.45883
2.61481
2.58439
2.55445
2.52499
2.49598
2.46744
2.43934
2.41169
2.38448
2.35771
2.33135
2.30542
2.2799
2.25478
2.23006
2.20573
2.18178
2.15821
2.135
2.11215
2.08965
2.0675
2.04568
2.02419
2.00301
1.98215
1.96158
1.94132
1.92133
1.90163
1.88219
1.86301
1.84408
1.82539
1.80694
1.78871
1.77069
1.75287
1.73524
1.71779
1.70051
1.68335
1.66629
1.64929
1.63231
1.61532
1.5983
1.58123
1.56408
1.54682
1.52944
1.51193
1.49428
1.4765
1.45862
2.61496
2.58456
2.55464
2.52519
2.49621
2.46768
2.43961
2.41197
2.38478
2.35802
2.33168
2.30576
2.28025
2.25515
2.23044
2.20611
2.18217
2.15861
2.1354
2.11256
2.09007
2.06791
2.04609
2.0246
2.00342
1.98255
1.96199
1.94171
1.92172
1.90201
1.88256
1.86337
1.84443
1.82573
1.80726
1.78901
1.77097
1.75313
1.73548
1.71801
1.70068
1.68347
1.66634
1.64926
1.6322
1.61513
1.59805
1.58091
1.56371
1.54643
1.52903
1.51153
1.49391
1.47619
1.45839
2.61512
2.58474
2.55484
2.52541
2.49644
2.46793
2.43987
2.41226
2.38508
2.35833
2.33201
2.3061
2.2806
2.25551
2.23081
2.20649
2.18256
2.159
2.1358
2.11296
2.09047
2.06831
2.04649
2.025
2.00382
1.98294
1.96237
1.94209
1.92209
1.90236
1.8829
1.8637
1.84475
1.82603
1.80754
1.78928
1.77122
1.75336
1.73569
1.71818
1.7008
1.68353
1.66633
1.64917
1.63203
1.6149
1.59775
1.58057
1.56333
1.54602
1.52862
1.51113
1.49355
1.47589
1.45817
2.6153
2.58494
2.55505
2.52564
2.49669
2.4682
2.44015
2.41255
2.38539
2.35865
2.33234
2.30645
2.28096
2.25587
2.23118
2.20687
2.18294
2.15938
2.13619
2.11335
2.09086
2.0687
2.04688
2.02538
2.00419
1.98331
1.96273
1.94244
1.92243
1.9027
1.88323
1.86401
1.84504
1.82631
1.80781
1.78952
1.77145
1.75356
1.73586
1.71831
1.70087
1.68353
1.66625
1.64902
1.63182
1.61463
1.59743
1.5802
1.56293
1.5456
1.5282
1.51073
1.49319
1.47559
1.45794
2.61549
2.58514
2.55528
2.52588
2.49694
2.46847
2.44044
2.41285
2.3857
2.35898
2.33268
2.30679
2.28131
2.25623
2.23154
2.20724
2.18332
2.15976
2.13657
2.11373
2.09124
2.06908
2.04725
2.02575
2.00456
1.98367
1.96308
1.94278
1.92276
1.90301
1.88353
1.8643
1.84532
1.82657
1.80805
1.78974
1.77165
1.75374
1.73599
1.71839
1.70089
1.68348
1.66613
1.64884
1.63157
1.61433
1.59708
1.57982
1.56252
1.54518
1.52778
1.51033
1.49283
1.47528
1.45771
2.61569
2.58537
2.55551
2.52613
2.49721
2.46875
2.44073
2.41316
2.38602
2.3593
2.33301
2.30714
2.28167
2.25659
2.23191
2.20761
2.18369
2.16014
2.13694
2.1141
2.09161
2.06945
2.04762