/*--------------------------------*- C++ -*----------------------------------*\
  =========                 |
  \\      /  F ield         | OpenFOAM: The Open Source CFD Toolbox
   \\    /   O peration     | Website:  https://openfoam.org
    \\  /    A nd           | Version:  10
     \\/     M anipulation  |
\*---------------------------------------------------------------------------*/
FoamFile
{
    format      ascii;
    class       surfaceScalarField;
    location    "50000";
    object      phi;
}
// * * * * * * * * * * * * * * * * * * * * * * * * * * * * * * * * * * * * * //

dimensions      [0 3 -1 0 0 0 0];

internalField   nonuniform List<scalar> 
35585
(
5.8951e-06
-3.54856e-06
5.77322e-06
-3.54616e-06
5.65165e-06
-3.53952e-06
5.5306e-06
-3.52918e-06
5.41028e-06
-3.51561e-06
5.29091e-06
-3.49921e-06
5.17271e-06
-3.48034e-06
5.0559e-06
-3.45929e-06
4.94068e-06
-3.4363e-06
4.82727e-06
-3.41157e-06
4.71584e-06
-3.38526e-06
4.60656e-06
-3.3575e-06
4.49957e-06
-3.32839e-06
4.395e-06
-3.29803e-06
4.29296e-06
-3.26648e-06
4.19354e-06
-3.23383e-06
4.09679e-06
-3.20012e-06
4.00278e-06
-3.16541e-06
3.91153e-06
-3.12975e-06
3.82305e-06
-3.0932e-06
3.73736e-06
-3.05581e-06
3.65444e-06
-3.01763e-06
3.57426e-06
-2.97872e-06
3.49681e-06
-2.93912e-06
3.42204e-06
-2.8989e-06
3.34991e-06
-2.85811e-06
3.28036e-06
-2.8168e-06
3.21334e-06
-2.77503e-06
3.14879e-06
-2.73287e-06
3.08664e-06
-2.69035e-06
3.02683e-06
-2.64755e-06
2.96929e-06
-2.60451e-06
2.91396e-06
-2.56129e-06
2.86076e-06
-2.51794e-06
2.80962e-06
-2.4745e-06
2.76048e-06
-2.43104e-06
2.71327e-06
-2.38759e-06
2.66791e-06
-2.34421e-06
2.62433e-06
-2.30093e-06
2.58249e-06
-2.25779e-06
2.5423e-06
-2.21484e-06
2.5037e-06
-2.17212e-06
2.46664e-06
-2.12966e-06
2.43105e-06
-2.08748e-06
2.39688e-06
-2.04563e-06
2.36407e-06
-2.00414e-06
2.33255e-06
-1.96302e-06
-1.92231e-06
2.30229e-06
6.16885e-06
-3.41444e-06
6.03514e-06
-3.41245e-06
5.90203e-06
-3.40641e-06
5.76973e-06
-3.39688e-06
5.63846e-06
-3.38434e-06
5.50845e-06
-3.36921e-06
5.37994e-06
-3.35183e-06
5.25315e-06
-3.33251e-06
5.1283e-06
-3.31146e-06
5.00561e-06
-3.28888e-06
4.88525e-06
-3.2649e-06
4.7674e-06
-3.23965e-06
4.65221e-06
-3.2132e-06
4.5398e-06
-3.18562e-06
4.43028e-06
-3.15696e-06
4.32372e-06
-3.12727e-06
4.22019e-06
-3.09659e-06
4.11973e-06
-3.06495e-06
4.02236e-06
-3.03238e-06
3.92809e-06
-2.99893e-06
3.83691e-06
-2.96463e-06
3.74879e-06
-2.92952e-06
3.66371e-06
-2.89364e-06
3.58163e-06
-2.85704e-06
3.50249e-06
-2.81976e-06
3.42624e-06
-2.78186e-06
3.35282e-06
-2.74337e-06
3.28215e-06
-2.70436e-06
3.21416e-06
-2.66488e-06
3.14879e-06
-2.62498e-06
3.08595e-06
-2.58471e-06
3.02557e-06
-2.54413e-06
2.96756e-06
-2.50329e-06
2.91186e-06
-2.46223e-06
2.85837e-06
-2.42102e-06
2.80703e-06
-2.3797e-06
2.75775e-06
-2.33831e-06
2.71047e-06
-2.29692e-06
2.66509e-06
-2.25555e-06
2.62156e-06
-2.21426e-06
2.57979e-06
-2.17308e-06
2.53972e-06
-2.13205e-06
2.50129e-06
-2.09122e-06
2.46441e-06
-2.05061e-06
2.42904e-06
-2.01026e-06
2.39511e-06
-1.97021e-06
2.36256e-06
-1.93047e-06
-1.89108e-06
2.33133e-06
6.40025e-06
6.25438e-06
6.10942e-06
5.96558e-06
5.82309e-06
-3.24185e-06
5.6822e-06
-3.22831e-06
5.54315e-06
-3.21278e-06
5.40619e-06
-3.19554e-06
5.27154e-06
-3.17681e-06
5.13941e-06
-3.15676e-06
5.01002e-06
-3.13551e-06
4.88352e-06
-3.11315e-06
4.76008e-06
-3.08975e-06
4.63981e-06
-3.06535e-06
4.52281e-06
-3.03996e-06
4.40916e-06
-3.01362e-06
4.29891e-06
-2.98634e-06
4.1921e-06
-2.95813e-06
4.08872e-06
-2.92901e-06
3.98879e-06
-2.899e-06
3.89228e-06
-2.86812e-06
3.79915e-06
-2.83639e-06
3.70935e-06
-2.80385e-06
3.62284e-06
-2.77053e-06
3.53955e-06
-2.73647e-06
3.45941e-06
-2.70172e-06
3.38235e-06
-2.66631e-06
3.30827e-06
-2.63029e-06
3.2371e-06
-2.59372e-06
3.16876e-06
-2.55664e-06
3.10315e-06
-2.5191e-06
3.04019e-06
-2.48116e-06
2.97978e-06
-2.44288e-06
2.92183e-06
-2.40429e-06
2.86627e-06
-2.36546e-06
2.813e-06
-2.32642e-06
2.76193e-06
-2.28725e-06
2.71298e-06
-2.24797e-06
2.66606e-06
-2.20864e-06
2.6211e-06
-2.1693e-06
2.57802e-06
-2.13e-06
2.53674e-06
-2.09077e-06
2.49718e-06
-2.05166e-06
2.45928e-06
-2.01271e-06
2.42296e-06
-1.97394e-06
2.38816e-06
-1.9354e-06
2.3548e-06
-1.89712e-06
-1.85911e-06
2.32284e-06
5.96716e-06
-3.08788e-06
5.81513e-06
-3.07629e-06
5.66531e-06
-3.06296e-06
5.51796e-06
-3.04819e-06
5.37332e-06
-3.03217e-06
5.23162e-06
-3.01506e-06
5.09307e-06
-2.99696e-06
4.95786e-06
-2.97793e-06
4.82612e-06
-2.95801e-06
4.69798e-06
-2.93721e-06
4.57354e-06
-2.91552e-06
4.45286e-06
-2.89294e-06
4.33599e-06
-2.86947e-06
4.22294e-06
-2.84508e-06
4.11371e-06
-2.81978e-06
4.00829e-06
-2.79357e-06
3.90663e-06
-2.76646e-06
3.80869e-06
-2.73845e-06
3.71441e-06
-2.70956e-06
3.6237e-06
-2.67983e-06
3.53651e-06
-2.64928e-06
3.45273e-06
-2.61794e-06
3.37228e-06
-2.58586e-06
3.29507e-06
-2.55308e-06
3.22099e-06
-2.51964e-06
3.14995e-06
-2.4856e-06
3.08185e-06
-2.451e-06
3.01658e-06
-2.41589e-06
2.95404e-06
-2.38034e-06
2.89414e-06
-2.34439e-06
2.83677e-06
-2.30809e-06
2.78184e-06
-2.27149e-06
2.72925e-06
-2.23466e-06
2.67891e-06
-2.19763e-06
2.63073e-06
-2.16045e-06
2.58461e-06
-2.12318e-06
2.54047e-06
-2.08586e-06
2.49823e-06
-2.04853e-06
2.4578e-06
-2.01124e-06
2.41911e-06
-1.97402e-06
2.38209e-06
-1.93692e-06
2.34665e-06
-1.89996e-06
2.31273e-06
-1.8632e-06
-1.82665e-06
2.28026e-06
6.07186e-06
-2.922e-06
5.90829e-06
-2.91272e-06
5.74732e-06
-2.902e-06
5.58925e-06
-2.89011e-06
5.43433e-06
-2.87725e-06
5.28283e-06
-2.86355e-06
5.13495e-06
-2.84908e-06
4.99089e-06
-2.83387e-06
4.85079e-06
-2.81792e-06
4.71478e-06
-2.80119e-06
4.58293e-06
-2.78368e-06
4.45531e-06
-2.76532e-06
4.33193e-06
-2.74609e-06
4.21281e-06
-2.72596e-06
4.09792e-06
-2.70489e-06
3.98722e-06
-2.68288e-06
3.88066e-06
-2.6599e-06
3.77817e-06
-2.63596e-06
3.67967e-06
-2.61107e-06
3.58507e-06
-2.58523e-06
3.49428e-06
-2.55848e-06
3.40718e-06
-2.53084e-06
3.32368e-06
-2.50236e-06
3.24366e-06
-2.47305e-06
3.167e-06
-2.44299e-06
3.0936e-06
-2.4122e-06
3.02334e-06
-2.38074e-06
2.9561e-06
-2.34866e-06
2.89178e-06
-2.31601e-06
2.83025e-06
-2.28286e-06
2.77141e-06
-2.24925e-06
2.71516e-06
-2.21524e-06
2.66137e-06
-2.18087e-06
2.60996e-06
-2.14621e-06
2.56082e-06
-2.11131e-06
2.51385e-06
-2.07621e-06
2.46897e-06
-2.04097e-06
2.42607e-06
-2.00563e-06
2.38507e-06
-1.97024e-06
2.34589e-06
-1.93484e-06
2.30844e-06
-1.89947e-06
2.27264e-06
-1.86417e-06
2.23843e-06
-1.82898e-06
-1.79394e-06
2.20573e-06
6.1384e-06
5.96274e-06
-2.73706e-06
5.79014e-06
-2.7294e-06
5.62094e-06
-2.7209e-06
5.45543e-06
-2.71174e-06
5.29388e-06
-2.70201e-06
5.13652e-06
-2.69173e-06
4.98355e-06
-2.6809e-06
4.8351e-06
-2.66946e-06
4.69127e-06
-2.65737e-06
4.55214e-06
-2.64455e-06
4.41775e-06
-2.63093e-06
4.2881e-06
-2.61644e-06
4.16316e-06
-2.60102e-06
4.0429e-06
-2.58463e-06
3.92725e-06
-2.56723e-06
3.81613e-06
-2.54878e-06
3.70945e-06
-2.52928e-06
3.60711e-06
-2.50873e-06
3.509e-06
-2.48712e-06
3.415e-06
-2.46448e-06
3.32498e-06
-2.44083e-06
3.23882e-06
-2.41619e-06
3.15639e-06
-2.39062e-06
3.07756e-06
-2.36415e-06
3.0022e-06
-2.33683e-06
2.93017e-06
-2.30871e-06
2.86136e-06
-2.27985e-06
2.79563e-06
-2.25029e-06
2.73286e-06
-2.22009e-06
2.67293e-06
-2.18932e-06
2.61571e-06
-2.15802e-06
2.5611e-06
-2.12626e-06
2.50897e-06
-2.09409e-06
2.45922e-06
-2.06156e-06
2.41175e-06
-2.02874e-06
2.36645e-06
-1.99567e-06
2.32321e-06
-1.9624e-06
2.28196e-06
-1.92899e-06
2.24259e-06
-1.89547e-06
2.20502e-06
-1.8619e-06
2.16917e-06
-1.82832e-06
2.13495e-06
-1.79476e-06
-1.76128e-06
2.10228e-06
5.97718e-06
5.79243e-06
5.6117e-06
-2.54018e-06
5.43533e-06
-2.53537e-06
5.2636e-06
-2.53028e-06
5.09674e-06
-2.52487e-06
4.93492e-06
-2.51907e-06
4.77827e-06
-2.51281e-06
4.62687e-06
-2.50597e-06
4.48076e-06
-2.49844e-06
4.33995e-06
-2.49011e-06
4.20441e-06
-2.4809e-06
4.07408e-06
-2.4707e-06
3.9489e-06
-2.45945e-06
3.82878e-06
-2.4471e-06
3.71359e-06
-2.4336e-06
3.60323e-06
-2.41892e-06
3.49756e-06
-2.40306e-06
3.39645e-06
-2.38601e-06
3.29975e-06
-2.36778e-06
3.20732e-06
-2.3484e-06
3.11902e-06
-2.32789e-06
3.03468e-06
-2.30629e-06
2.95417e-06
-2.28364e-06
2.87734e-06
-2.26e-06
2.80404e-06
-2.23541e-06
2.73412e-06
-2.20993e-06
2.66746e-06
-2.18362e-06
2.6039e-06
-2.15653e-06
2.54331e-06
-2.12873e-06
2.48557e-06
-2.10028e-06
2.43055e-06
-2.07124e-06
2.37813e-06
-2.04166e-06
2.32817e-06
-2.01161e-06
2.28059e-06
-1.98115e-06
2.23525e-06
-1.95033e-06
2.19206e-06
-1.91921e-06
2.15091e-06
-1.88784e-06
2.11171e-06
-1.85627e-06
2.07436e-06
-1.82455e-06
2.03878e-06
-1.79273e-06
2.00487e-06
-1.76086e-06
-1.72897e-06
1.97256e-06
5.559e-06
5.37184e-06
-2.34822e-06
5.19013e-06
-2.34857e-06
5.01408e-06
-2.34881e-06
4.84383e-06
-2.34882e-06
4.67947e-06
-2.34845e-06
4.52104e-06
-2.34754e-06
4.36855e-06
-2.34595e-06
4.22196e-06
-2.34352e-06
4.08119e-06
-2.34013e-06
3.94617e-06
-2.33567e-06
3.81677e-06
-2.33005e-06
3.69286e-06
-2.32319e-06
3.57431e-06
-2.31504e-06
3.46096e-06
-2.30557e-06
3.35265e-06
-2.29475e-06
3.24922e-06
-2.28258e-06
3.1505e-06
-2.26906e-06
3.05631e-06
-2.25421e-06
2.9665e-06
-2.23807e-06
2.88088e-06
-2.22067e-06
2.7993e-06
-2.20206e-06
2.72159e-06
-2.18229e-06
2.64758e-06
-2.1614e-06
2.57712e-06
-2.13947e-06
2.51004e-06
-2.11655e-06
2.44621e-06
-2.0927e-06
2.38548e-06
-2.068e-06
2.3277e-06
-2.0425e-06
2.27274e-06
-2.01627e-06
2.22046e-06
-1.98938e-06
2.17075e-06
-1.9619e-06
2.12347e-06
-1.93387e-06
2.07851e-06
-1.90537e-06
2.03575e-06
-1.87646e-06
1.9951e-06
-1.84718e-06
1.95644e-06
-1.81761e-06
1.91967e-06
-1.78779e-06
1.88471e-06
-1.75777e-06
1.85145e-06
-1.7276e-06
-1.69734e-06
1.81982e-06
5.26189e-06
5.07097e-06
4.88656e-06
-2.16441e-06
4.70878e-06
-2.17104e-06
4.53764e-06
-2.17732e-06
4.37315e-06
-2.18305e-06
4.21525e-06
-2.18804e-06
4.06384e-06
-2.19211e-06
3.91882e-06
-2.19511e-06
3.78003e-06
-2.19689e-06
3.64734e-06
-2.19736e-06
3.52057e-06
-2.19642e-06
3.39954e-06
-2.19401e-06
3.28406e-06
-2.19009e-06
3.17395e-06
-2.18464e-06
3.06901e-06
-2.17764e-06
2.96904e-06
-2.1691e-06
2.87387e-06
-2.15904e-06
2.78329e-06
-2.14749e-06
2.69711e-06
-2.13449e-06
2.61514e-06
-2.1201e-06
2.53721e-06
-2.10436e-06
2.46314e-06
-2.08733e-06
2.39276e-06
-2.06909e-06
2.3259e-06
-2.04968e-06
2.26239e-06
-2.02919e-06
2.20208e-06
-2.00769e-06
2.14482e-06
-1.98524e-06
2.09046e-06
-1.96191e-06
2.03885e-06
-1.93778e-06
1.98987e-06
-1.91291e-06
1.94338e-06
-1.88738e-06
1.89926e-06
-1.86125e-06
1.85739e-06
-1.83458e-06
1.81766e-06
-1.80745e-06
1.77995e-06
-1.7799e-06
1.74416e-06
-1.752e-06
1.7102e-06
-1.72381e-06
1.67796e-06
-1.69537e-06
-1.66674e-06
1.64736e-06
4.71326e-06
4.52938e-06
4.3529e-06
4.18374e-06
4.02177e-06
-2.02608e-06
3.86687e-06
-2.03721e-06
3.71886e-06
-2.0471e-06
3.57756e-06
-2.05559e-06
3.44276e-06
-2.06256e-06
3.31425e-06
-2.06792e-06
3.19183e-06
-2.07159e-06
3.07527e-06
-2.07353e-06
2.96436e-06
-2.07372e-06
2.85887e-06
-2.07215e-06
2.75858e-06
-2.06881e-06
2.66329e-06
-2.06375e-06
2.57278e-06
-2.05698e-06
2.48685e-06
-2.04856e-06
2.40529e-06
-2.03854e-06
2.32791e-06
-2.02698e-06
2.25451e-06
-2.01393e-06
2.1849e-06
-1.99948e-06
2.11891e-06
-1.98369e-06
2.05636e-06
-1.96664e-06
1.99709e-06
-1.94841e-06
1.94092e-06
-1.92907e-06
1.8877e-06
-1.9087e-06
1.83729e-06
-1.88737e-06
1.78955e-06
-1.86517e-06
1.74433e-06
-1.84217e-06
1.70151e-06
-1.81843e-06
1.66096e-06
-1.79404e-06
1.62257e-06
-1.76905e-06
1.58621e-06
-1.74354e-06
1.55179e-06
-1.71758e-06
1.51919e-06
-1.69121e-06
1.48833e-06
-1.6645e-06
-1.63751e-06
1.4591e-06
3.79118e-06
-1.86176e-06
3.6344e-06
-1.88043e-06
3.48495e-06
-1.89765e-06
3.3426e-06
-1.91323e-06
3.2071e-06
-1.92706e-06
3.0782e-06
-1.93902e-06
2.95567e-06
-1.94906e-06
2.83924e-06
-1.95711e-06
2.72868e-06
-1.96316e-06
2.62374e-06
-1.9672e-06
2.52417e-06
-1.96925e-06
2.42975e-06
-1.96932e-06
2.34024e-06
-1.96747e-06
2.25543e-06
-1.96374e-06
2.17508e-06
-1.95819e-06
2.09899e-06
-1.95089e-06
2.02696e-06
-1.9419e-06
1.95879e-06
-1.93131e-06
1.89429e-06
-1.91919e-06
1.83328e-06
-1.90563e-06
1.77558e-06
-1.89071e-06
1.72104e-06
-1.87452e-06
1.66947e-06
-1.85713e-06
1.62074e-06
-1.83864e-06
1.57469e-06
-1.81912e-06
1.53118e-06
-1.79866e-06
1.49008e-06
-1.77733e-06
1.45125e-06
-1.75521e-06
1.41458e-06
-1.73238e-06
1.37994e-06
-1.70891e-06
1.34723e-06
-1.68487e-06
1.31634e-06
-1.66032e-06
1.28717e-06
-1.63533e-06
-1.60997e-06
1.25963e-06
3.52731e-06
-1.69683e-06
3.37032e-06
-1.72345e-06
3.221e-06
-1.74833e-06
3.07908e-06
-1.77131e-06
2.94427e-06
-1.79224e-06
2.81629e-06
-1.81104e-06
2.69487e-06
-1.82763e-06
2.57973e-06
-1.84197e-06
2.4706e-06
-1.85403e-06
2.36722e-06
-1.86382e-06
2.26934e-06
-1.87136e-06
2.17669e-06
-1.87668e-06
2.08904e-06
-1.87982e-06
2.00614e-06
-1.88085e-06
1.92778e-06
-1.87983e-06
1.85373e-06
-1.87684e-06
1.78379e-06
-1.87195e-06
1.71773e-06
-1.86526e-06
1.65538e-06
-1.85684e-06
1.59653e-06
-1.84679e-06
1.54102e-06
-1.8352e-06
1.48866e-06
-1.82216e-06
1.43928e-06
-1.80776e-06
1.39274e-06
-1.79209e-06
1.34887e-06
-1.77525e-06
1.30753e-06
-1.75732e-06
1.26858e-06
-1.73838e-06
1.23189e-06
-1.71852e-06
1.19734e-06
-1.69783e-06
1.1648e-06
-1.67637e-06
1.13417e-06
-1.65423e-06
1.10533e-06
-1.63148e-06
1.07817e-06
-1.60818e-06
-1.58441e-06
1.05262e-06
3.2363e-06
-1.53319e-06
3.08086e-06
-1.568e-06
2.9333e-06
-1.60077e-06
2.79333e-06
-1.63133e-06
2.66062e-06
-1.65954e-06
2.53488e-06
-1.68531e-06
2.41581e-06
-1.70856e-06
2.30311e-06
-1.72927e-06
2.1965e-06
-1.74742e-06
2.0957e-06
-1.76302e-06
2.00044e-06
-1.7761e-06
1.91046e-06
-1.7867e-06
1.8255e-06
-1.79487e-06
1.74533e-06
-1.80068e-06
1.66971e-06
-1.80421e-06
1.5984e-06
-1.80554e-06
1.5312e-06
-1.80475e-06
1.46789e-06
-1.80195e-06
1.40827e-06
-1.79722e-06
1.35214e-06
-1.79066e-06
1.29932e-06
-1.78238e-06
1.24963e-06
-1.77247e-06
1.20291e-06
-1.76104e-06
1.15899e-06
-1.74817e-06
1.11771e-06
-1.73397e-06
1.07892e-06
-1.71853e-06
1.0425e-06
-1.70196e-06
1.0083e-06
-1.68432e-06
9.76191e-07
-1.66572e-06
9.46059e-07
-1.64624e-06
9.17787e-07
-1.62596e-06
8.91266e-07
-1.60496e-06
8.66392e-07
-1.58331e-06
-1.56109e-06
8.43069e-07
2.92521e-06
2.77305e-06
-1.41584e-06
2.62886e-06
-1.45659e-06
2.49232e-06
-1.49479e-06
2.3631e-06
-1.53032e-06
2.24088e-06
-1.56308e-06
2.12534e-06
-1.59302e-06
2.01617e-06
-1.62011e-06
1.91309e-06
-1.64434e-06
1.81581e-06
-1.66574e-06
1.72405e-06
-1.68434e-06
1.63755e-06
-1.70019e-06
1.55604e-06
-1.71336e-06
1.47928e-06
-1.72392e-06
1.40704e-06
-1.73196e-06
1.33907e-06
-1.73757e-06
1.27516e-06
-1.74084e-06
1.2151e-06
-1.74189e-06
1.15868e-06
-1.7408e-06
1.10571e-06
-1.73769e-06
1.056e-06
-1.73267e-06
1.00938e-06
-1.72585e-06
9.65663e-07
-1.71732e-06
9.24697e-07
-1.7072e-06
8.86322e-07
-1.6956e-06
8.50393e-07
-1.68261e-06
8.16766e-07
-1.66833e-06
7.85309e-07
-1.65286e-06
7.55892e-07
-1.6363e-06
7.28395e-07
-1.61874e-06
7.02703e-07
-1.60027e-06
6.78706e-07
-1.58096e-06
6.56302e-07
-1.5609e-06
-1.54018e-06
6.35393e-07
2.45478e-06
-1.26853e-06
2.31541e-06
-1.31722e-06
2.18363e-06
-1.36301e-06
2.0591e-06
-1.40579e-06
1.9415e-06
-1.44548e-06
1.8305e-06
-1.48203e-06
1.72581e-06
-1.51541e-06
1.62712e-06
-1.54565e-06
1.53414e-06
-1.57276e-06
1.4466e-06
-1.5968e-06
1.36424e-06
-1.61783e-06
1.28679e-06
-1.63591e-06
1.214e-06
-1.65114e-06
1.14565e-06
-1.66361e-06
1.0815e-06
-1.67341e-06
1.02132e-06
-1.68067e-06
9.64915e-07
-1.68548e-06
9.12074e-07
-1.68796e-06
8.62605e-07
-1.68822e-06
8.16322e-07
-1.68639e-06
7.73046e-07
-1.68257e-06
7.32608e-07
-1.67688e-06
6.94846e-07
-1.66944e-06
6.59606e-07
-1.66036e-06
6.26739e-07
-1.64974e-06
5.96106e-07
-1.63769e-06
5.67571e-07
-1.62433e-06
5.4101e-07
-1.60974e-06
5.16301e-07
-1.59403e-06
4.9333e-07
-1.5773e-06
4.71988e-07
-1.55962e-06
4.52173e-07
-1.54109e-06
-1.52179e-06
4.33789e-07
2.13454e-06
-1.12741e-06
2.00118e-06
-1.18386e-06
1.87524e-06
-1.23707e-06
1.75639e-06
-1.28694e-06
1.6443e-06
-1.33339e-06
1.53867e-06
-1.37639e-06
1.43918e-06
-1.41593e-06
1.34555e-06
-1.45202e-06
1.25749e-06
-1.4847e-06
1.17472e-06
-1.51404e-06
1.097e-06
-1.5401e-06
1.02406e-06
-1.56297e-06
9.55654e-07
-1.58274e-06
8.91558e-07
-1.59951e-06
8.31543e-07
-1.6134e-06
7.75393e-07
-1.62452e-06
7.22901e-07
-1.63299e-06
6.73869e-07
-1.63893e-06
6.28105e-07
-1.64246e-06
5.85429e-07
-1.64371e-06
5.45664e-07
-1.64281e-06
5.08646e-07
-1.63986e-06
4.74213e-07
-1.63501e-06
4.42214e-07
-1.62836e-06
4.12506e-07
-1.62003e-06
3.84947e-07
-1.61014e-06
3.59407e-07
-1.59879e-06
3.35762e-07
-1.5861e-06
3.13893e-07
-1.57216e-06
2.93686e-07
-1.55709e-06
2.75037e-07
-1.54097e-06
2.57842e-07
-1.52389e-06
-1.50596e-06
2.42006e-07
1.82089e-06
1.6944e-06
-1.05737e-06
1.57508e-06
-1.11775e-06
1.4626e-06
-1.17447e-06
1.35667e-06
-1.22746e-06
1.25696e-06
-1.27669e-06
1.16319e-06
-1.32216e-06
1.07508e-06
-1.3639e-06
9.92341e-07
-1.40196e-06
9.14712e-07
-1.43641e-06
8.41938e-07
-1.46733e-06
7.73772e-07
-1.4948e-06
7.09979e-07
-1.51894e-06
6.50332e-07
-1.53986e-06
5.94615e-07
-1.55768e-06
5.42618e-07
-1.57252e-06
4.94141e-07
-1.58451e-06
4.48995e-07
-1.59378e-06
4.06994e-07
-1.60046e-06
3.67961e-07
-1.60468e-06
3.31729e-07
-1.60657e-06
2.98136e-07
-1.60627e-06
2.67026e-07
-1.6039e-06
2.38253e-07
-1.59958e-06
2.11675e-07
-1.59345e-06
1.87158e-07
-1.58562e-06
1.64574e-07
-1.57621e-06
1.43799e-07
-1.56532e-06
1.24719e-07
-1.55308e-06
1.07223e-07
-1.53959e-06
9.12069e-08
-1.52495e-06
7.65721e-08
-1.50926e-06
-1.49261e-06
6.32238e-08
1.40273e-06
-9.38187e-07
1.29041e-06
-1.00543e-06
1.18467e-06
-1.06873e-06
1.08522e-06
-1.128e-06
9.91757e-07
-1.18323e-06
9.03998e-07
-1.2344e-06
8.21658e-07
-1.28156e-06
7.4446e-07
-1.32477e-06
6.72142e-07
-1.36409e-06
6.04454e-07
-1.39964e-06
5.41158e-07
-1.43151e-06
4.82029e-07
-1.45981e-06
4.26851e-07
-1.48469e-06
3.75419e-07
-1.50625e-06
3.27537e-07
-1.52464e-06
2.83015e-07
-1.53999e-06
2.41672e-07
-1.55244e-06
2.03334e-07
-1.56212e-06
1.67834e-07
-1.56918e-06
1.35012e-07
-1.57375e-06
1.04713e-07
-1.57597e-06
7.6789e-08
-1.57597e-06
5.10981e-08
-1.57389e-06
2.75056e-08
-1.56986e-06
5.8813e-09
-1.56399e-06
-1.38992e-08
-1.55642e-06
-3.19539e-08
-1.54727e-06
-4.83952e-08
-1.53664e-06
-6.33305e-08
-1.52466e-06
-7.68613e-08
-1.51142e-06
-8.90848e-08
-1.49704e-06
-1.4816e-06
-1.00091e-07
1.13346e-06
-8.26372e-07
1.02821e-06
-9.00177e-07
9.29279e-07
-9.69803e-07
8.36373e-07
-1.0351e-06
7.49184e-07
-1.09604e-06
6.67433e-07
-1.15265e-06
5.90834e-07
-1.20496e-06
5.19107e-07
-1.25304e-06
4.51991e-07
-1.29698e-06
3.89246e-07
-1.33689e-06
3.30647e-07
-1.37291e-06
2.75984e-07
-1.40515e-06
2.25058e-07
-1.43376e-06
1.77678e-07
-1.45887e-06
1.33663e-07
-1.48062e-06
9.28409e-08
-1.49917e-06
5.50424e-08
-1.51464e-06
2.01063e-08
-1.52718e-06
-1.21229e-08
-1.53695e-06
-4.17961e-08
-1.54408e-06
-6.90592e-08
-1.54871e-06
-9.40516e-08
-1.55098e-06
-1.16908e-07
-1.55104e-06
-1.3776e-07
-1.54901e-06
-1.56731e-07
-1.54502e-06
-1.7394e-07
-1.53922e-06
-1.89502e-07
-1.53171e-06
-2.03526e-07
-1.52262e-06
-2.16116e-07
-1.51207e-06
-2.27371e-07
-1.50017e-06
-2.37386e-07
-1.48702e-06
-1.47274e-06
-2.46249e-07
8.92623e-07
-7.21275e-07
7.93623e-07
-8.01177e-07
7.00673e-07
-8.76854e-07
6.13647e-07
-9.48071e-07
5.32317e-07
-1.01471e-06
4.56377e-07
-1.07671e-06
3.85452e-07
-1.13404e-06
3.19137e-07
-1.18672e-06
2.57077e-07
-1.23492e-06
1.99035e-07
-1.27885e-06
1.44831e-07
-1.3187e-06
9.42935e-08
-1.35461e-06
4.72546e-08
-1.38672e-06
3.55215e-09
-1.41517e-06
-3.697e-08
-1.4401e-06
-7.44666e-08
-1.46167e-06
-1.09087e-07
-1.48002e-06
-1.40978e-07
-1.49529e-06
-1.70283e-07
-1.50765e-06
-1.97142e-07
-1.51722e-06
-2.21691e-07
-1.52416e-06
-2.44063e-07
-1.52861e-06
-2.64386e-07
-1.53071e-06
-2.82785e-07
-1.53061e-06
-2.99378e-07
-1.52843e-06
-3.14282e-07
-1.52431e-06
-3.27608e-07
-1.51838e-06
-3.39462e-07
-1.51077e-06
-3.49945e-07
-1.50158e-06
-3.59155e-07
-1.49096e-06
-3.67183e-07
-1.47899e-06
-1.4658e-06
-3.74119e-07
6.82086e-07
-6.22685e-07
5.88783e-07
-7.07874e-07
5.00881e-07
-7.88952e-07
4.18484e-07
-8.65674e-07
3.41581e-07
-9.37804e-07
2.70021e-07
-1.00515e-06
2.03552e-07
-1.06757e-06
1.4184e-07
-1.12501e-06
8.4489e-08
-1.17757e-06
3.10899e-08
-1.22545e-06
-1.87207e-08
-1.26889e-06
-6.51843e-08
-1.30815e-06
-1.08439e-07
-1.34346e-06
-1.48605e-07
-1.375e-06
-1.85802e-07
-1.4029e-06
-2.20157e-07
-1.42731e-06
-2.51795e-07
-1.44838e-06
-2.80845e-07
-1.46624e-06
-3.07433e-07
-1.48106e-06
-3.31688e-07
-1.49296e-06
-3.53734e-07
-1.50211e-06
-3.73695e-07
-1.50865e-06
-3.91693e-07
-1.51272e-06
-4.07844e-07
-1.51446e-06
-4.22265e-07
-1.51401e-06
-4.35065e-07
-1.51151e-06
-4.46353e-07
-1.50709e-06
-4.56233e-07
-1.50089e-06
-4.64802e-07
-1.49302e-06
-4.72155e-07
-1.4836e-06
-4.78383e-07
-1.47277e-06
-1.46061e-06
-4.83573e-07
4.99312e-07
-5.3137e-07
4.12393e-07
-6.20954e-07
3.30044e-07
-7.06603e-07
2.52424e-07
-7.88054e-07
1.79639e-07
-8.65019e-07
1.11721e-07
-9.37231e-07
4.86313e-08
-1.00448e-06
-9.73382e-09
-1.06665e-06
-6.35907e-08
-1.12371e-06
-1.13304e-07
-1.17574e-06
-1.59304e-07
-1.22289e-06
-2.01984e-07
-1.26547e-06
-2.4165e-07
-1.3038e-06
-2.78469e-07
-1.33818e-06
-3.1253e-07
-1.36884e-06
-3.43932e-07
-1.39591e-06
-3.72778e-07
-1.41953e-06
-3.99179e-07
-1.43984e-06
-4.23246e-07
-1.45699e-06
-4.45092e-07
-1.47112e-06
-4.64833e-07
-1.48237e-06
-4.82582e-07
-1.4909e-06
-4.98454e-07
-1.49685e-06
-5.12558e-07
-1.50035e-06
-5.25004e-07
-1.50156e-06
-5.359e-07
-1.50061e-06
-5.45348e-07
-1.49765e-06
-5.53447e-07
-1.49279e-06
-5.60296e-07
-1.48617e-06
-5.65985e-07
-1.47791e-06
-5.70602e-07
-1.46815e-06
-1.45698e-06
-5.74233e-07
3.45616e-07
-4.47729e-07
2.65487e-07
-5.40825e-07
1.89113e-07
-6.30229e-07
1.16736e-07
-7.15677e-07
4.85488e-08
-7.96832e-07
-1.53358e-08
-8.73346e-07
-7.48908e-08
-9.44925e-07
-1.30163e-07
-1.01138e-06
-1.81262e-07
-1.07261e-06
-2.28357e-07
-1.12864e-06
-2.71683e-07
-1.17957e-06
-3.11576e-07
-1.22558e-06
-3.48416e-07
-1.26696e-06
-3.825e-07
-1.3041e-06
-4.13978e-07
-1.33736e-06
-4.42935e-07
-1.36696e-06
-4.69461e-07
-1.39301e-06
-4.93654e-07
-1.41565e-06
-5.15614e-07
-1.43503e-06
-5.35447e-07
-1.45129e-06
-5.53257e-07
-1.46456e-06
-5.69154e-07
-1.475e-06
-5.83243e-07
-1.48276e-06
-5.9563e-07
-1.48796e-06
-6.06422e-07
-1.49077e-06
-6.15719e-07
-1.49132e-06
-6.23622e-07
-1.48974e-06
-6.3023e-07
-1.48618e-06
-6.35634e-07
-1.48076e-06
-6.39926e-07
-1.47362e-06
-6.43192e-07
-1.46488e-06
-1.45466e-06
-6.45515e-07
2.23334e-07
-3.72047e-07
1.50221e-07
-4.67712e-07
7.99182e-08
-5.59926e-07
1.27501e-08
-6.48508e-07
-5.09686e-08
-7.33113e-07
-1.10993e-07
-8.13322e-07
-1.67177e-07
-8.88741e-07
-2.19482e-07
-9.5907e-07
-2.67961e-07
-1.02413e-06
-3.12742e-07
-1.08386e-06
-3.53999e-07
-1.13831e-06
-3.91949e-07
-1.18763e-06
-4.26847e-07
-1.23206e-06
-4.58991e-07
-1.27196e-06
-4.886e-07
-1.30776e-06
-5.15774e-07
-1.33978e-06
-5.406e-07
-1.36818e-06
-5.63168e-07
-1.39308e-06
-5.83572e-07
-1.41463e-06
-6.01911e-07
-1.43295e-06
-6.18286e-07
-1.44819e-06
-6.32799e-07
-1.46049e-06
-6.45554e-07
-1.47e-06
-6.56652e-07
-1.47687e-06
-6.66195e-07
-1.48123e-06
-6.74284e-07
-1.48323e-06
-6.81017e-07
-1.48301e-06
-6.86488e-07
-1.48071e-06
-6.90791e-07
-1.47646e-06
-6.94013e-07
-1.4704e-06
-6.96242e-07
-1.46265e-06
-1.45334e-06
-6.97559e-07
1.31243e-07
-3.04064e-07
6.52207e-08
-4.0169e-07
1.11433e-09
-4.95819e-07
-6.07854e-08
-5.86609e-07
-1.20084e-07
-6.73815e-07
-1.7641e-07
-7.56996e-07
-2.29486e-07
-8.35666e-07
-2.79155e-07
-9.09401e-07
-3.25378e-07
-9.77908e-07
-3.68209e-07
-1.04103e-06
-4.07774e-07
-1.09874e-06
-4.44245e-07
-1.15116e-06
-4.77819e-07
-1.19849e-06
-5.08709e-07
-1.24107e-06
-5.37107e-07
-1.27936e-06
-5.63134e-07
-1.31376e-06
-5.86867e-07
-1.34445e-06
-6.08393e-07
-1.37156e-06
-6.278e-07
-1.39522e-06
-6.45183e-07
-1.41556e-06
-6.60637e-07
-1.43273e-06
-6.74261e-07
-1.44687e-06
-6.86155e-07
-1.45811e-06
-6.96418e-07
-1.4666e-06
-7.05149e-07
-1.4725e-06
-7.12447e-07
-1.47593e-06
-7.18409e-07
-1.47705e-06
-7.23127e-07
-1.47599e-06
-7.26695e-07
-1.47289e-06
-7.292e-07
-1.46789e-06
-7.30728e-07
-1.46112e-06
-1.45271e-06
-7.31361e-07
6.75813e-08
-2.42696e-07
8.11326e-09
-3.42222e-07
-4.99249e-08
-4.37781e-07
-1.06584e-07
-5.29949e-07
-1.61527e-07
-6.18872e-07
-2.14303e-07
-7.0422e-07
-2.64504e-07
-7.85465e-07
-3.11841e-07
-8.62064e-07
-3.56162e-07
-9.33588e-07
-3.97433e-07
-9.99758e-07
-4.35717e-07
-1.06046e-06
-4.71135e-07
-1.11574e-06
-5.0384e-07
-1.16578e-06
-5.3399e-07
-1.21092e-06
-5.61726e-07
-1.25162e-06
-5.87144e-07
-1.28834e-06
-6.10315e-07
-1.32128e-06
-6.31317e-07
-1.35056e-06
-6.50234e-07
-1.3763e-06
-6.67154e-07
-1.39864e-06
-6.82166e-07
-1.41772e-06
-6.95366e-07
-1.43367e-06
-7.06849e-07
-1.44663e-06
-7.16711e-07
-1.45674e-06
-7.2505e-07
-1.46416e-06
-7.31963e-07
-1.46902e-06
-7.37542e-07
-1.47147e-06
-7.41882e-07
-1.47165e-06
-7.45075e-07
-1.4697e-06
-7.47208e-07
-1.46576e-06
-7.48368e-07
-1.45996e-06
-1.45244e-06
-7.48637e-07
3.05055e-08
-1.86733e-07
-2.35706e-08
-2.88146e-07
-7.6186e-08
-3.85166e-07
-1.27822e-07
-4.78313e-07
-1.78506e-07
-5.68188e-07
-2.27855e-07
-6.54871e-07
-2.75383e-07
-7.37937e-07
-3.20666e-07
-8.16781e-07
-3.6342e-07
-8.90834e-07
-4.03502e-07
-9.59676e-07
-4.40894e-07
-1.02307e-06
-4.75658e-07
-1.08097e-06
-5.07903e-07
-1.13354e-06
-5.37745e-07
-1.18107e-06
-5.65268e-07
-1.2241e-06
-5.90528e-07
-1.26308e-06
-6.13587e-07
-1.29822e-06
-6.34515e-07
-1.32963e-06
-6.53384e-07
-1.35743e-06
-6.70275e-07
-1.38175e-06
-6.85273e-07
-1.40272e-06
-6.98465e-07
-1.42047e-06
-7.09943e-07
-1.43515e-06
-7.19801e-07
-1.44688e-06
-7.2813e-07
-1.45583e-06
-7.35027e-07
-1.46212e-06
-7.40583e-07
-1.46591e-06
-7.44892e-07
-1.46734e-06
-7.48044e-07
-1.46655e-06
-7.50128e-07
-1.46368e-06
-7.51229e-07
-1.45886e-06
-1.45224e-06
-7.51429e-07
1.77241e-08
-1.35393e-07
-3.20981e-08
-2.38323e-07
-8.04388e-08
-3.36825e-07
-1.27721e-07
-4.31031e-07
-1.74405e-07
-5.21504e-07
-2.20463e-07
-6.08813e-07
-2.65469e-07
-6.92931e-07
-3.08916e-07
-7.73334e-07
-3.50385e-07
-8.49365e-07
-3.89609e-07
-9.20452e-07
-4.26463e-07
-9.86214e-07
-4.6094e-07
-1.0465e-06
-4.93093e-07
-1.10138e-06
-5.22996e-07
-1.15117e-06
-5.50678e-07
-1.19642e-06
-5.76161e-07
-1.23759e-06
-5.99492e-07
-1.27489e-06
-6.20727e-07
-1.30839e-06
-6.39929e-07
-1.33823e-06
-6.57169e-07
-1.36451e-06
-6.72521e-07
-1.38737e-06
-6.8607e-07
-1.40693e-06
-6.97899e-07
-1.42332e-06
-7.08095e-07
-1.43669e-06
-7.16751e-07
-1.44717e-06
-7.23956e-07
-1.45492e-06
-7.29803e-07
-1.46007e-06
-7.34382e-07
-1.46276e-06
-7.37784e-07
-1.46315e-06
-7.40097e-07
-1.46136e-06
-7.41407e-07
-1.45755e-06
-1.45185e-06
-7.41797e-07
2.61661e-08
-2.00932e-08
-1.92064e-07
-6.52067e-08
-2.91712e-07
-1.09202e-07
-3.87036e-07
-1.52505e-07
-4.78201e-07
-1.95522e-07
-5.65796e-07
-2.38146e-07
-6.50307e-07
-2.79913e-07
-7.31567e-07
-3.20312e-07
-8.08966e-07
-3.58943e-07
-8.81822e-07
-3.95561e-07
-9.49596e-07
-4.30065e-07
-1.01199e-06
-4.62443e-07
-1.069e-06
-4.92718e-07
-1.1209e-06
-5.20876e-07
-1.16826e-06
-5.46903e-07
-1.21157e-06
-5.7083e-07
-1.25096e-06
-5.92699e-07
-1.28653e-06
-6.1256e-07
-1.31837e-06
-6.30469e-07
-1.3466e-06
-6.46496e-07
-1.37134e-06
-6.6071e-07
-1.39271e-06
-6.73192e-07
-1.41084e-06
-6.84025e-07
-1.42586e-06
-6.93291e-07
-1.43791e-06
-7.01081e-07
-1.44713e-06
-7.07484e-07
-1.45366e-06
-7.12589e-07
-1.45766e-06
-7.16485e-07
-1.45925e-06
-7.19262e-07
-1.45859e-06
-7.21005e-07
-1.45581e-06
-1.45106e-06
-7.21799e-07
9.30848e-09
-1.48917e-07
-3.31886e-08
-2.49215e-07
-7.486e-08
-3.45364e-07
-1.15735e-07
-4.37327e-07
-1.56234e-07
-5.25296e-07
-1.96688e-07
-6.09853e-07
-2.36896e-07
-6.91358e-07
-2.76366e-07
-7.69497e-07
-3.14595e-07
-8.43593e-07
-3.51211e-07
-9.12979e-07
-3.86e-07
-9.77206e-07
-4.18865e-07
-1.03614e-06
-4.49771e-07
-1.08999e-06
-4.78664e-07
-1.13937e-06
-5.05503e-07
-1.18473e-06
-5.30301e-07
-1.22616e-06
-5.5308e-07
-1.26375e-06
-5.73875e-07
-1.29758e-06
-5.9273e-07
-1.32775e-06
-6.097e-07
-1.35437e-06
-6.24848e-07
-1.37756e-06
-6.38243e-07
-1.39744e-06
-6.49961e-07
-1.41414e-06
-6.60082e-07
-1.42778e-06
-6.68691e-07
-1.43852e-06
-6.75875e-07
-1.44648e-06
-6.81721e-07
-1.45181e-06
-6.86317e-07
-1.45465e-06
-6.89751e-07
-1.45515e-06
-6.92114e-07
-1.45345e-06
-1.44969e-06
-6.93486e-07
5.28244e-08
-1.08526e-07
1.25857e-08
-2.08976e-07
-2.72983e-08
-3.0548e-07
-6.66305e-08
-3.97995e-07
-1.05441e-07
-4.86485e-07
-1.44132e-07
-5.71163e-07
-1.82932e-07
-6.52558e-07
-2.21558e-07
-7.30871e-07
-2.59497e-07
-8.05654e-07
-2.96271e-07
-8.76204e-07
-3.31543e-07
-9.41935e-07
-3.65113e-07
-1.00257e-06
-3.96858e-07
-1.05824e-06
-4.26687e-07
-1.10954e-06
-4.54553e-07
-1.15686e-06
-4.80444e-07
-1.20027e-06
-5.04361e-07
-1.23983e-06
-5.26321e-07
-1.27562e-06
-5.46352e-07
-1.30772e-06
-5.64494e-07
-1.33623e-06
-5.80797e-07
-1.36126e-06
-5.95323e-07
-1.38292e-06
-6.08137e-07
-1.40132e-06
-6.19316e-07
-1.41661e-06
-6.28939e-07
-1.4289e-06
-6.37088e-07
-1.43833e-06
-6.4385e-07
-1.44505e-06
-6.49313e-07
-1.44919e-06
-6.53565e-07
-1.4509e-06
-6.56694e-07
-1.45032e-06
-1.44759e-06
-6.58786e-07
1.07258e-07
-7.06331e-08
6.90212e-08
-1.70739e-07
3.06634e-08
-2.67123e-07
-7.59261e-09
-3.59739e-07
-4.55283e-08
-4.4855e-07
-8.31668e-08
-5.33525e-07
-1.20858e-07
-6.14866e-07
-1.58726e-07
-6.93003e-07
-1.96419e-07
-7.6796e-07
-2.33425e-07
-8.39199e-07
-2.69294e-07
-9.06066e-07
-3.03711e-07
-9.68151e-07
-3.36451e-07
-1.0255e-06
-3.67383e-07
-1.07861e-06
-3.96451e-07
-1.12779e-06
-4.23617e-07
-1.1731e-06
-4.48859e-07
-1.21459e-06
-4.72171e-07
-1.2523e-06
-4.93565e-07
-1.28632e-06
-5.13065e-07
-1.31673e-06
-5.30707e-07
-1.34362e-06
-5.4654e-07
-1.36708e-06
-5.60623e-07
-1.38724e-06
-5.73024e-07
-1.4042e-06
-5.83816e-07
-1.4181e-06
-5.9308e-07
-1.42907e-06
-6.00899e-07
-1.43723e-06
-6.07359e-07
-1.44273e-06
-6.1255e-07
-1.44571e-06
-6.16559e-07
-1.44631e-06
-1.44468e-06
-6.19475e-07
1.69567e-07
1.33181e-07
9.61995e-08
5.88627e-08
-3.22402e-07
2.14127e-08
-4.111e-07
-1.59119e-08
-4.962e-07
-5.31076e-08
-5.7767e-07
-9.04342e-08
-6.55677e-07
-1.27908e-07
-7.30486e-07
-1.65146e-07
-8.01961e-07
-2.01642e-07
-8.6957e-07
-2.36967e-07
-9.32826e-07
-2.708e-07
-9.91672e-07
-3.02957e-07
-1.04645e-06
-3.33357e-07
-1.09739e-06
-3.61935e-07
-1.14453e-06
-3.88645e-07
-1.18788e-06
-4.13459e-07
-1.22749e-06
-4.36365e-07
-1.26342e-06
-4.5737e-07
-1.29573e-06
-4.76496e-07
-1.32449e-06
-4.93779e-07
-1.3498e-06
-5.09267e-07
-1.37175e-06
-5.23018e-07
-1.39045e-06
-5.35103e-07
-1.40602e-06
-5.45594e-07
-1.41857e-06
-5.54575e-07
-1.42825e-06
-5.62131e-07