/*--------------------------------*- C++ -*----------------------------------*\
  =========                 |
  \\      /  F ield         | OpenFOAM: The Open Source CFD Toolbox
   \\    /   O peration     | Website:  https://openfoam.org
    \\  /    A nd           | Version:  10
     \\/     M anipulation  |
\*---------------------------------------------------------------------------*/
FoamFile
{
    format      ascii;
    class       volVectorField;
    location    "50000";
    object      Urel;
}
// * * * * * * * * * * * * * * * * * * * * * * * * * * * * * * * * * * * * * //

dimensions      [0 1 -1 0 0 0 0];

internalField   nonuniform List<vector> 
17981
(
(0.147992 -0.393488 9.904e-22)
(0.144467 -0.404662 -9.92645e-22)
(0.14101 -0.415646 0)
(0.137615 -0.426469 -6.26266e-21)
(0.134283 -0.437156 1.37756e-20)
(0.131017 -0.44773 -7.45435e-21)
(0.12782 -0.458211 0)
(0.124695 -0.468612 6.4329e-22)
(0.121644 -0.478947 0)
(0.11867 -0.489224 0)
(0.115776 -0.499446 -7.85804e-22)
(0.112962 -0.509618 1.44967e-20)
(0.110231 -0.519738 -1.31118e-20)
(0.107583 -0.529804 0)
(0.105019 -0.539814 0)
(0.10254 -0.549763 0)
(0.100145 -0.559645 0)
(0.0978335 -0.569454 -1.47629e-20)
(0.0956049 -0.579184 1.41366e-20)
(0.0934582 -0.588829 2.93512e-20)
(0.091392 -0.598381 -2.7674e-20)
(0.0894048 -0.607836 -4.43297e-22)
(0.0874949 -0.617186 0)
(0.0856603 -0.626427 0)
(0.0838991 -0.635553 2.79147e-20)
(0.0822093 -0.644559 -2.63729e-20)
(0.0805887 -0.653441 2.71026e-20)
(0.0790351 -0.662194 -2.60397e-20)
(0.0775462 -0.670816 -4.04686e-22)
(0.0761199 -0.679303 0)
(0.0747539 -0.687653 1.95411e-22)
(0.0734461 -0.695863 -1.91843e-22)
(0.0721941 -0.703932 -1.8823e-22)
(0.0709958 -0.711857 2.36617e-20)
(0.0698492 -0.719639 -2.27943e-20)
(0.068752 -0.727276 -1.7726e-22)
(0.0677024 -0.734769 0)
(0.0666983 -0.742115 0)
(0.0657378 -0.749317 1.66309e-22)
(0.064819 -0.756374 -2.11302e-20)
(0.0639402 -0.763287 -1.00547e-22)
(0.0630996 -0.770057 1.9638e-20)
(0.0622955 -0.776685 7.60357e-23)
(0.0615263 -0.783172 0)
(0.0607905 -0.789519 0)
(0.0600866 -0.795729 0)
(0.0594131 -0.801802 0)
(0.0587687 -0.807741 -1.75744e-20)
(0.16776 -0.375569 -6.02465e-21)
(0.164053 -0.386461 0)
(0.160414 -0.397174 -1.73217e-20)
(0.156846 -0.407739 4.25936e-20)
(0.153352 -0.418186 -2.41809e-20)
(0.149935 -0.42854 3.64711e-20)
(0.146599 -0.438823 -3.52019e-20)
(0.143347 -0.449051 6.40433e-22)
(0.140182 -0.459239 1.43055e-21)
(0.137106 -0.469395 -5.18549e-20)
(0.134123 -0.479525 1.03244e-19)
(0.131233 -0.48963 -5.28863e-20)
(0.128438 -0.49971 0)
(0.12574 -0.509762 1.77755e-21)
(0.123137 -0.519781 -5.98476e-20)
(0.120631 -0.529762 5.72571e-20)
(0.11822 -0.539698 6.07089e-20)
(0.115904 -0.54958 -5.80887e-20)
(0.113681 -0.559401 9.26142e-22)
(0.111549 -0.569154 0)
(0.109507 -0.578829 -4.61735e-22)
(0.107553 -0.588419 6.00043e-20)
(0.105683 -0.597917 -5.6168e-20)
(0.103897 -0.607316 5.91555e-20)
(0.10219 -0.616609 -1.13401e-19)
(0.100561 -0.62579 5.47596e-20)
(0.0990067 -0.634853 -5.5851e-20)
(0.0975245 -0.643794 5.36557e-20)
(0.0961117 -0.652608 4.17859e-22)
(0.0947655 -0.661291 0)
(0.0934834 -0.669839 2.01175e-22)
(0.0922626 -0.67825 1.98081e-22)
(0.0911005 -0.686521 -4.99925e-20)
(0.0899947 -0.69465 4.85288e-20)
(0.0889426 -0.702635 -5.60201e-22)
(0.0879419 -0.710476 4.7405e-20)
(0.0869902 -0.71817 -4.55318e-20)
(0.0860852 -0.725718 0)
(0.0852248 -0.73312 4.41072e-20)
(0.0844069 -0.740375 -8.55424e-20)
(0.0836294 -0.747484 4.13203e-20)
(0.0828904 -0.754448 -4.12449e-20)
(0.0821881 -0.761267 -7.09777e-22)
(0.0815205 -0.767942 3.89463e-20)
(0.0808861 -0.774475 0)
(0.0802832 -0.780867 0)
(0.0797103 -0.787119 1.43252e-22)
(0.0791658 -0.793234 -7.09407e-23)
(0.185921 -0.355767 0)
(0.181976 -0.366386 9.50351e-21)
(0.178109 -0.376837 -1.01296e-20)
(0.174325 -0.387156 2.46783e-20)
(0.170627 -0.397375 -2.55625e-20)
(0.16702 -0.407523 -2.05024e-21)
(0.163507 -0.417625 0)
(0.160093 -0.427699 -1.37111e-21)
(0.156781 -0.437761 -4.41122e-21)
(0.153574 -0.447819 0)
(0.150474 -0.45788 1.67797e-21)
(0.147484 -0.467946 3.44539e-21)
(0.144605 -0.478014 0)
(0.141837 -0.488082 -1.93911e-23)
(0.139179 -0.498142 1.85659e-21)
(0.136633 -0.508187 0)
(0.134195 -0.518209 1.24751e-19)
(0.131865 -0.528198 -1.17394e-19)
(0.12964 -0.538144 -1.25722e-19)
(0.127518 -0.548038 1.19391e-19)
(0.125496 -0.557869 -1.88937e-21)
(0.123573 -0.567628 0)
(0.121743 -0.577307 9.26598e-22)
(0.120005 -0.586896 -9.23677e-22)
(0.118355 -0.596388 9.09874e-22)
(0.116789 -0.605776 -1.15793e-19)
(0.115305 -0.615052 1.12046e-19)
(0.113899 -0.62421 -8.72504e-22)
(0.112568 -0.633246 0)
(0.111308 -0.642153 1.08535e-19)
(0.110116 -0.650928 2.6165e-21)
(0.10899 -0.659568 -1.04212e-19)
(0.107925 -0.668068 0)
(0.10692 -0.676426 0)
(0.105971 -0.68464 -9.98175e-20)
(0.105075 -0.692708 9.66078e-20)
(0.10423 -0.700629 -3.69742e-22)
(0.103433 -0.708401 0)
(0.102682 -0.716025 3.54553e-22)
(0.101974 -0.7235 -3.4707e-22)
(0.101307 -0.730825 -8.74855e-20)
(0.100679 -0.738003 8.44961e-20)
(0.100088 -0.745032 1.62375e-22)
(0.0995317 -0.751914 -1.58796e-22)
(0.0990081 -0.75865 -3.10362e-22)
(0.0985155 -0.765242 0)
(0.0980523 -0.77169 -1.48096e-22)
(0.0976168 -0.777996 -7.5517e-20)
(0.186046 -0.374789 -1.54993e-21)
(0.182208 -0.384747 2.14537e-21)
(0.178481 -0.394686 8.50576e-20)
(0.17487 -0.404627 -1.75924e-19)
(0.171379 -0.414585 9.34004e-20)
(0.168012 -0.424573 -3.19002e-21)
(0.164771 -0.434594 1.10521e-19)
(0.161658 -0.444652 -1.12456e-19)
(0.158674 -0.454742 0)
(0.15582 -0.464859 -1.88749e-21)
(0.153094 -0.474996 1.24072e-19)
(0.150496 -0.485142 -1.20355e-19)
(0.148022 -0.495287 -1.24028e-19)
(0.145672 -0.50542 -9.80447e-21)
(0.143441 -0.515529 1.22523e-19)
(0.141327 -0.525601 -1.27492e-19)
(0.139326 -0.535626 1.22026e-19)
(0.137433 -0.545591 0)
(0.135646 -0.555487 1.22567e-19)
(0.13396 -0.565303 -2.42432e-19)
(0.132371 -0.575029 1.15264e-19)
(0.130875 -0.584657 1.19003e-19)
(0.129468 -0.59418 -1.13336e-19)
(0.128146 -0.603588 -8.95279e-22)
(0.126904 -0.612877 -1.14489e-19)
(0.12574 -0.62204 -7.14118e-22)
(0.124648 -0.631073 -3.99882e-21)
(0.123625 -0.639969 1.08129e-19)
(0.122669 -0.648726 1.06563e-19)
(0.121774 -0.657341 -2.07194e-19)
(0.120939 -0.66581 1.0154e-19)
(0.120159 -0.674131 -1.00442e-19)
(0.119432 -0.682303 9.72601e-20)
(0.118754 -0.690324 -9.63661e-20)
(0.118123 -0.698193 -2.4303e-21)
(0.117536 -0.705909 9.1085e-20)
(0.116991 -0.713473 1.05186e-21)
(0.116485 -0.720885 -8.80215e-20)
(0.116016 -0.728145 8.50497e-20)
(0.115582 -0.735253 3.28093e-22)
(0.115179 -0.742211 3.2075e-22)
(0.114808 -0.74902 8.0378e-20)
(0.114465 -0.755681 -7.80437e-20)
(0.114149 -0.762196 0)
(0.19951 -0.350504 -4.20054e-20)
(0.195398 -0.360291 -4.08688e-21)
(0.191416 -0.370089 0)
(0.187571 -0.379922 9.55743e-20)
(0.183868 -0.389808 -9.14942e-20)
(0.180311 -0.399757 6.55407e-21)
(0.176903 -0.409775 6.93035e-21)
(0.173645 -0.419863 0)
(0.17054 -0.430015 0)
(0.167585 -0.440225 -3.81223e-21)
(0.164779 -0.450481 0)
(0.162121 -0.460773 0)
(0.159607 -0.471086 -4.00288e-21)
(0.157234 -0.481408 2.00887e-21)
(0.154997 -0.491723 -1.31074e-19)
(0.152893 -0.502018 1.25347e-19)
(0.150915 -0.512278 -1.27873e-19)
(0.14906 -0.522492 1.24341e-19)
(0.147323 -0.532646 1.95818e-21)
(0.145697 -0.542728 0)
(0.144179 -0.552728 -1.24783e-19)
(0.142763 -0.562635 -5.28053e-21)
(0.141444 -0.57244 -5.02585e-21)
(0.140217 -0.582135 1.18507e-19)
(0.139078 -0.591712 -1.17708e-19)
(0.138021 -0.601164 -3.44504e-21)
(0.137042 -0.610486 1.14047e-19)
(0.136138 -0.619671 -1.12638e-19)
(0.135302 -0.628716 1.07663e-19)
(0.134533 -0.637616 0)
(0.133825 -0.646368 1.0562e-19)
(0.133175 -0.654969 -1.03465e-19)
(0.13258 -0.663418 0)
(0.132036 -0.671712 7.70897e-22)
(0.13154 -0.67985 7.55356e-22)
(0.131088 -0.687832 7.39717e-22)
(0.130679 -0.695656 9.25807e-20)
(0.130309 -0.703324 -1.82517e-19)
(0.129975 -0.710834 8.92805e-20)
(0.129676 -0.718188 0)
(0.129409 -0.725387 0)
(0.129171 -0.732432 8.3799e-20)
(0.128961 -0.739323 -8.07545e-20)
(0.128777 -0.746063 0)
(0.210923 -0.324562 -4.3643e-20)
(0.206489 -0.334199 -7.03062e-20)
(0.202209 -0.343884 1.579e-19)
(0.198091 -0.353642 -8.27e-20)
(0.194142 -0.363492 -1.05167e-19)
(0.190367 -0.373445 9.7039e-20)
(0.186768 -0.383506 -3.55308e-21)
(0.183349 -0.393672 0)
(0.180107 -0.403936 -1.26592e-19)
(0.177043 -0.414289 2.54051e-19)
(0.174152 -0.424717 8.05622e-21)
(0.171433 -0.435206 -1.25433e-19)
(0.168879 -0.445739 -4.05414e-21)
(0.166487 -0.4563 -1.34084e-19)
(0.16425 -0.466872 1.28122e-19)
(0.162163 -0.477438 -1.3363e-19)
(0.16022 -0.487983 -5.0793e-21)
(0.158413 -0.498492 1.27269e-19)
(0.156738 -0.508949 -6.0256e-21)
(0.155187 -0.519342 0)
(0.153754 -0.529657 6.13272e-24)
(0.152433 -0.539884 1.9498e-21)
(0.151218 -0.550011 1.24653e-19)
(0.150103 -0.56003 3.04907e-21)
(0.149083 -0.569932 -2.39097e-19)
(0.148152 -0.579708 1.14547e-19)
(0.147304 -0.589352 -3.6194e-21)
(0.146534 -0.598859 0)
(0.145838 -0.608222 -2.25988e-19)
(0.145212 -0.617438 2.17836e-19)
(0.144649 -0.626502 0)
(0.144147 -0.635411 8.27485e-22)
(0.143701 -0.644163 2.09373e-19)
(0.143308 -0.652756 -2.02922e-19)
(0.142963 -0.661188 0)
(0.142664 -0.669458 -7.63944e-22)
(0.142407 -0.677565 7.48317e-22)
(0.142189 -0.68551 7.32538e-22)
(0.142007 -0.693292 -1.85407e-19)
(0.141859 -0.700911 1.78603e-19)
(0.141742 -0.70837 -6.86715e-22)
(0.141653 -0.715668 -1.73482e-19)
(0.141591 -0.722807 1.67224e-19)
(0.141554 -0.729788 0)
(0.215312 -0.306516 -3.97386e-21)
(0.210689 -0.316126 -4.80575e-21)
(0.206262 -0.325856 0)
(0.202038 -0.335723 -6.1278e-21)
(0.198022 -0.345737 -6.63727e-21)
(0.194218 -0.355899 0)
(0.190626 -0.366205 -1.24813e-19)
(0.187244 -0.376644 1.18885e-19)
(0.184069 -0.387203 0)
(0.181098 -0.397866 -2.67815e-19)
(0.178324 -0.408613 2.59465e-19)
(0.175741 -0.419426 4.16763e-21)
(0.173342 -0.430285 0)
(0.17112 -0.44117 0)
(0.169067 -0.452063 -4.16625e-21)
(0.167176 -0.462945 0)
(0.165437 -0.473799 2.70103e-19)
(0.163844 -0.484608 -5.26682e-19)
(0.162388 -0.495358 5.22186e-19)
(0.161062 -0.506034 -2.52549e-19)
(0.159858 -0.516624 0)
(0.15877 -0.527115 2.53927e-19)
(0.15779 -0.537497 -2.46003e-19)
(0.156911 -0.547761 0)
(0.156128 -0.557897 2.46687e-19)
(0.155433 -0.567899 -4.74714e-19)
(0.154822 -0.57776 2.30212e-19)
(0.154287 -0.587473 -2.32761e-19)
(0.153825 -0.597034 2.22676e-19)
(0.15343 -0.606439 -2.24471e-19)
(0.153097 -0.615684 2.16625e-19)
(0.152822 -0.624765 0)
(0.1526 -0.633682 2.1025e-19)
(0.152427 -0.642431 -2.04698e-19)
(0.1523 -0.651012 0)
(0.152215 -0.659424 -2.00137e-19)
(0.152169 -0.667667 1.93519e-19)
(0.152158 -0.67574 -7.42238e-22)
(0.152179 -0.683645 -1.87059e-19)
(0.15223 -0.691381 3.64022e-19)
(0.152309 -0.69895 -1.76436e-19)
(0.152412 -0.706353 1.75781e-19)
(0.152537 -0.713592 1.70804e-21)
(0.211875 -0.296654 -5.50608e-21)
(0.207361 -0.306608 1.89071e-22)
(0.203098 -0.316757 6.8501e-21)
(0.199087 -0.327096 0)
(0.195328 -0.337618 -2.60392e-19)
(0.191816 -0.348307 4.94055e-19)
(0.188546 -0.359146 1.88895e-20)
(0.185511 -0.370115 1.7441e-20)
(0.182703 -0.38119 -2.72062e-19)
(0.180114 -0.392349 -4.20583e-21)
(0.177734 -0.40357 0)
(0.175553 -0.41483 -2.79316e-19)
(0.173562 -0.426108 -7.54074e-21)
(0.17175 -0.437382 2.71112e-19)
(0.170108 -0.448635 0)
(0.168627 -0.459846 1.74527e-23)
(0.167296 -0.471001 4.1699e-21)
(0.166106 -0.482083 -4.13256e-21)
(0.16505 -0.493078 0)
(0.164117 -0.503974 2.60657e-19)
(0.163301 -0.514759 -2.52615e-19)
(0.162593 -0.525422 0)
(0.161985 -0.535954 1.94326e-21)
(0.161472 -0.546348 2.47901e-19)
(0.161045 -0.556595 -2.35156e-19)
(0.1607 -0.566689 0)
(0.160428 -0.576625 2.35753e-19)
(0.160226 -0.586398 -2.27518e-19)
(0.160087 -0.596004 1.76147e-21)
(0.160007 -0.605441 0)
(0.159981 -0.614705 1.6978e-21)
(0.160004 -0.623795 0)
(0.160072 -0.632709 -2.1054e-19)
(0.160181 -0.641446 4.09929e-19)
(0.160328 -0.650007 -4.01733e-19)
(0.160509 -0.65839 1.97118e-19)
(0.16072 -0.666597 0)
(0.16096 -0.674628 7.36933e-22)
(0.161225 -0.682484 -1.85712e-19)
(0.161512 -0.690166 3.60811e-19)
(0.161819 -0.697676 -1.7852e-19)
(0.209893 -0.276344 -2.0816e-19)
(0.2054 -0.286717 1.97128e-19)
(0.201206 -0.297324 0)
(0.197307 -0.308149 7.69788e-21)
(0.193696 -0.319173 1.27814e-22)
(0.190364 -0.330373 0)
(0.187301 -0.341725 0)
(0.184497 -0.353202 1.69858e-20)
(0.18194 -0.364777 4.31576e-21)
(0.179616 -0.376427 4.31096e-21)
(0.177516 -0.388124 0)
(0.175625 -0.399845 -2.84629e-19)
(0.173932 -0.411568 2.68079e-19)
(0.172425 -0.423271 2.8245e-19)
(0.171093 -0.434935 -2.66482e-19)
(0.169924 -0.446541 -4.28608e-21)
(0.168908 -0.458073 4.24949e-21)
(0.168033 -0.469515 0)
(0.167293 -0.480855 4.16231e-21)
(0.166675 -0.492078 2.66379e-19)
(0.166171 -0.503175 -2.56454e-19)
(0.165774 -0.514135 -2.63161e-19)
(0.165474 -0.52495 2.51748e-19)
(0.165264 -0.535611 -3.88783e-21)
(0.165138 -0.546112 0)
(0.165088 -0.556449 3.76652e-21)
(0.165109 -0.566615 2.41043e-19)
(0.165193 -0.576606 -2.32855e-19)
(0.165337 -0.58642 2.30799e-19)
(0.165534 -0.596053 -4.49648e-19)
(0.165779 -0.605504 2.19058e-19)
(0.166069 -0.61477 -2.18077e-19)
(0.166398 -0.623851 2.10968e-19)
(0.166762 -0.632747 -8.1337e-22)
(0.167159 -0.641457 3.78096e-25)
(0.167584 -0.649982 7.81556e-22)
(0.168034 -0.658322 0)
(0.168507 -0.666479 -7.49763e-22)
(0.168999 -0.674454 0)
(0.169508 -0.682248 7.28882e-22)
(0.200451 -0.266887 0)
(0.196464 -0.278105 7.60452e-21)
(0.192807 -0.289549 8.07182e-21)
(0.189468 -0.301191 0)
(0.186431 -0.313001 -2.80305e-19)
(0.183684 -0.32495 2.58455e-19)
(0.181211 -0.337008 -8.68945e-21)
(0.178998 -0.349147 -4.42298e-21)
(0.177028 -0.361339 -2.90301e-19)
(0.175288 -0.373558 -1.2754e-20)
(0.173762 -0.385779 2.8256e-19)
(0.172438 -0.39798 0)
(0.171302 -0.41014 -2.87287e-19)
(0.17034 -0.422239 -9.48268e-21)
(0.169541 -0.43426 5.61294e-19)
(0.168894 -0.446186 -2.71971e-19)
(0.168385 -0.458004 -2.77211e-19)
(0.168007 -0.4697 5.36651e-19)
(0.167747 -0.481262 -2.68111e-19)
(0.167597 -0.49268 -2.05693e-21)
(0.16755 -0.503946 -2.03561e-21)
(0.167594 -0.515051 -2.55424e-19)
(0.167723 -0.525987 -5.06811e-21)
(0.16793 -0.536749 2.44766e-19)
(0.168206 -0.547331 -1.91562e-21)
(0.168547 -0.55773 0)
(0.168945 -0.56794 -1.85176e-21)
(0.169395 -0.577961 0)
(0.169891 -0.587789 0)
(0.17043 -0.597424 0)
(0.171005 -0.606864 1.72253e-21)
(0.171613 -0.616108 0)
(0.17225 -0.625158 -8.28298e-22)
(0.172913 -0.634013 4.51882e-25)
(0.173597 -0.642674 -7.96246e-22)
(0.1743 -0.651143 2.0229e-19)
(0.175018 -0.659421 -1.94508e-19)
(0.17575 -0.667509 1.95213e-19)
(0.182958 -0.284309 2.84026e-19)
(0.180337 -0.296793 -2.62007e-19)
(0.178016 -0.309392 8.91464e-21)
(0.175976 -0.322075 0)
(0.1742 -0.334811 -2.95943e-19)
(0.172671 -0.347573 2.83242e-19)
(0.171372 -0.360335 -2.6802e-23)
(0.170287 -0.373074 4.51763e-21)
(0.169401 -0.385766 0)
(0.1687 -0.398393 -4.48532e-21)
(0.168169 -0.410935 -4.4741e-21)
(0.167796 -0.423377 -2.87964e-19)
(0.167568 -0.435702 2.77215e-19)
(0.167473 -0.447897 4.35566e-21)
(0.167502 -0.45995 8.37866e-24)
(0.167641 -0.47185 2.7974e-19)
(0.167882 -0.483587 -2.65818e-19)
(0.168218 -0.495153 -2.07374e-21)
(0.168637 -0.50654 -2.04284e-21)
(0.169134 -0.517743 0)
(0.169699 -0.528757 2.56222e-19)
(0.170326 -0.539576 -2.4775e-19)
(0.171009 -0.550198 2.47904e-19)
(0.171742 -0.560619 -2.41749e-19)
(0.172518 -0.570838 -2.39403e-19)
(0.173332 -0.580853 2.33585e-19)
(0.174181 -0.590663 -1.79062e-21)
(0.175058 -0.600267 -2.24728e-19)
(0.175961 -0.609667 2.17679e-19)
(0.176884 -0.618862 -2.17013e-19)
(0.177825 -0.627853 2.12784e-19)
(0.178781 -0.636641 2.0847e-19)
(0.179747 -0.64523 -2.03674e-19)
(0.180722 -0.653619 -7.9143e-22)
(0.176996 -0.256022 0)
(0.174577 -0.269094 -1.06399e-22)
(0.17248 -0.282281 2.97115e-19)
(0.170684 -0.29555 -2.92992e-19)
(0.169169 -0.30887 0)
(0.167914 -0.322211 -9.21657e-21)
(0.166902 -0.335547 4.59387e-21)
(0.166114 -0.348853 3.02763e-19)
(0.165534 -0.362106 1.10649e-20)
(0.165145 -0.375285 -2.85521e-19)
(0.164933 -0.38837 -2.94015e-19)
(0.164882 -0.401346 2.87452e-19)
(0.16498 -0.414195 2.93849e-19)
(0.165213 -0.426905 -2.78777e-19)
(0.165571 -0.439463 2.92413e-19)
(0.166041 -0.451857 -2.82298e-19)
(0.166613 -0.464079 -4.3413e-21)
(0.167278 -0.47612 2.77582e-19)
(0.168026 -0.487972 -5.35718e-19)
(0.168848 -0.499629 -7.27534e-21)
(0.169737 -0.511086 2.6105e-19)
(0.170686 -0.522338 -2.61818e-19)
(0.171686 -0.533381 2.55387e-19)
(0.172732 -0.544213 -2.51465e-19)
(0.173819 -0.554831 4.94566e-19)
(0.174939 -0.565235 -2.4133e-19)
(0.176088 -0.575422 0)
(0.177262 -0.585394 -1.83254e-21)
(0.178456 -0.59515 1.79907e-21)
(0.179665 -0.604691 -3.53185e-21)
(0.180887 -0.614017 -2.23896e-19)
(0.182118 -0.623131 2.17963e-19)
(0.183355 -0.632034 1.66557e-21)
(0.184594 -0.640728 0)
(0.168761 -0.228487 -2.70287e-19)
(0.166626 -0.242183 2.88524e-19)
(0.164832 -0.25599 -5.95551e-19)
(0.163353 -0.269874 2.98343e-19)
(0.162168 -0.283803 -9.34933e-21)
(0.161254 -0.297747 -3.00256e-19)
(0.160591 -0.311678 2.87611e-19)
(0.16016 -0.32557 3.05805e-19)
(0.159942 -0.339399 -3.03237e-19)
(0.15992 -0.353146 3.04266e-19)
(0.160078 -0.36679 -3.02207e-19)
(0.160399 -0.380313 0)
(0.160871 -0.393701 -4.66446e-21)
(0.161478 -0.406939 2.96101e-19)
(0.162209 -0.420014 -5.88178e-19)
(0.163051 -0.432915 2.87698e-19)
(0.163994 -0.445632 7.05148e-24)
(0.165027 -0.458156 0)
(0.16614 -0.47048 -8.7939e-21)
(0.167323 -0.482598 2.82678e-19)
(0.16857 -0.494504 -5.48046e-19)
(0.169872 -0.506194 2.67753e-19)
(0.171221 -0.517663 0)
(0.17261 -0.52891 0)
(0.174035 -0.539932 -2.5991e-19)
(0.175487 -0.550728 5.0548e-19)
(0.176964 -0.561296 -2.47738e-19)
(0.178459 -0.571638 2.46801e-19)
(0.179968 -0.581752 -2.39315e-19)
(0.181486 -0.591641 -6.97379e-25)
(0.183011 -0.601304 -2.33477e-19)
(0.184538 -0.610744 2.24713e-19)
(0.186065 -0.619963 -8.72351e-22)
(0.187588 -0.628963 -2.2334e-19)
(0.158537 -0.202043 8.82054e-21)
(0.156772 -0.216381 0)
(0.155359 -0.230825 9.37683e-21)
(0.154272 -0.245337 0)
(0.153486 -0.259886 3.24742e-19)
(0.152979 -0.274441 -3.11845e-19)
(0.152728 -0.288974 0)
(0.152712 -0.303458 9.74071e-21)
(0.152912 -0.31787 3.23951e-19)
(0.153309 -0.332188 -3.02257e-19)
(0.153886 -0.346394 -4.8659e-21)
(0.154626 -0.360469 4.84814e-21)
(0.155516 -0.374397 3.18598e-19)
(0.156539 -0.388164 -6.14371e-19)
(0.157684 -0.401757 3.00861e-19)
(0.158936 -0.415166 3.15393e-19)
(0.160286 -0.428379 -2.91157e-19)
(0.161721 -0.441388 -2.99467e-19)
(0.163232 -0.454185 5.94889e-19)
(0.164809 -0.466765 -2.86489e-19)
(0.166443 -0.479121 0)
(0.168126 -0.491249 0)
(0.169851 -0.503145 0)
(0.171611 -0.514807 0)
(0.173399 -0.526233 2.10695e-21)
(0.175209 -0.53742 0)
(0.177036 -0.548369 -2.04068e-21)
(0.178874 -0.55908 2.60589e-19)
(0.180719 -0.569552 -2.50863e-19)
(0.182567 -0.579787 -5.16872e-25)
(0.184414 -0.589787 -2.45026e-19)
(0.186257 -0.599552 2.37798e-19)
(0.188092 -0.609085 1.83369e-21)
(0.189916 -0.618388 0)
(0.145361 -0.191956 2.86357e-19)
(0.144403 -0.207033 -3.13967e-19)
(0.143777 -0.222171 6.1959e-19)
(0.143455 -0.237336 -2.96012e-19)
(0.143414 -0.252496 9.9655e-21)
(0.143631 -0.267625 0)
(0.144083 -0.282696 -6.04506e-23)
(0.14475 -0.297684 -1.0057e-20)
(0.145613 -0.312569 3.28859e-19)
(0.146654 -0.327331 -3.07047e-19)
(0.147855 -0.341951 -1.80977e-23)
(0.149202 -0.356414 5.00048e-21)
(0.15068 -0.370706 0)
(0.152273 -0.384813 3.20989e-19)
(0.15397 -0.398723 -3.15392e-19)
(0.155759 -0.412428 3.15393e-19)
(0.157627 -0.425917 -6.17539e-19)
(0.159565 -0.439183 2.97583e-19)
(0.161563 -0.45222 4.71901e-21)
(0.163611 -0.465022 0)
(0.165702 -0.477584 0)
(0.167828 -0.489903 -2.9345e-19)
(0.16998 -0.501976 2.84593e-19)
(0.172154 -0.513801 -2.20963e-21)
(0.174342 -0.525377 0)
(0.176539 -0.536703 2.14247e-21)
(0.17874 -0.547779 -2.10801e-21)
(0.18094 -0.558605 0)
(0.183135 -0.569183 2.62466e-19)
(0.185321 -0.579514 -5.10631e-19)
(0.187495 -0.589599 2.50325e-19)
(0.189653 -0.599442 2.46547e-19)
(0.191793 -0.609045 -2.42861e-19)
(0.13279 -0.169105 3.04218e-19)
(0.132352 -0.184797 -3.0018e-19)
(0.132245 -0.200541 9.85738e-21)
(0.132442 -0.216303 3.31188e-19)
(0.132919 -0.232052 -3.08128e-19)
(0.133651 -0.24776 -1.02673e-20)
(0.134616 -0.2634 3.28741e-19)
(0.135792 -0.278949 2.37816e-20)
(0.13716 -0.294384 -3.28071e-19)
(0.138702 -0.309687 -1.56667e-20)
(0.1404 -0.324839 -1.04398e-20)
(0.142237 -0.339823 -3.43464e-19)
(0.144199 -0.354626 6.63679e-19)
(0.146271 -0.369234 -6.60169e-19)
(0.14844 -0.383636 3.18696e-19)
(0.150693 -0.39782 -3.29387e-19)
(0.15302 -0.411779 3.19114e-19)
(0.155408 -0.425504 4.99205e-21)
(0.157849 -0.438989 -3.19663e-19)
(0.160333 -0.452228 3.09983e-19)
(0.162851 -0.465216 4.83063e-21)
(0.165396 -0.47795 0)
(0.16796 -0.490427 0)
(0.170537 -0.502644 -2.99628e-19)
(0.173119 -0.514601 2.90858e-19)
(0.175702 -0.526297 2.88468e-19)
(0.178281 -0.537732 -2.82288e-19)
(0.18085 -0.548906 0)
(0.183406 -0.55982 4.29795e-21)
(0.185944 -0.570477 -2.72017e-19)
(0.188461 -0.580877 2.66291e-19)
(0.190954 -0.591024 2.62398e-19)
(0.19342 -0.60092 -2.60623e-19)
(0.119481 -0.147942 3.06657e-19)
(0.119611 -0.164216 0)
(0.120069 -0.180535 -1.0221e-20)
(0.120829 -0.196866 -9.61883e-23)
(0.121863 -0.213176 -1.05598e-20)
(0.123148 -0.229437 3.59238e-19)
(0.12466 -0.245622 -6.86907e-19)
(0.126379 -0.261707 3.49336e-19)
(0.128283 -0.27767 0)
(0.130354 -0.293492 3.53854e-19)
(0.132574 -0.309155 -3.25757e-19)
(0.134926 -0.324641 0)
(0.137395 -0.339936 3.56744e-19)
(0.139967 -0.355027 -6.89823e-19)
(0.142628 -0.369902 6.91521e-19)
(0.145365 -0.384551 8.22244e-21)
(0.148167 -0.398964 -6.76651e-19)
(0.151023 -0.413134 3.31855e-19)
(0.153922 -0.427054 -7.08732e-24)
(0.156856 -0.440717 3.32153e-19)
(0.159816 -0.45412 -3.32557e-19)
(0.162793 -0.467257 0)
(0.165781 -0.480127 0)
(0.168772 -0.492728 -3.18352e-19)
(0.17176 -0.505057 -4.63928e-21)
(0.17474 -0.517114 3.04923e-19)
(0.177706 -0.528899 0)
(0.180654 -0.540412 0)
(0.18358 -0.551656 -2.27233e-21)
(0.186478 -0.56263 -2.23487e-21)
(0.189347 -0.573338 -4.39391e-21)
(0.192183 -0.583782 2.79988e-19)
(0.194983 -0.593964 -5.52807e-19)
(0.106582 -0.145302 3.14644e-19)
(0.107635 -0.16216 3.45301e-19)
(0.108984 -0.179026 -3.42787e-19)
(0.110602 -0.195865 -3.46154e-19)
(0.112465 -0.212647 3.33067e-19)
(0.11455 -0.229347 0)
(0.116833 -0.245939 -1.12564e-20)
(0.119294 -0.262401 3.68145e-19)
(0.121913 -0.278714 2.43164e-20)
(0.124673 -0.294859 -7.37562e-19)
(0.127556 -0.31082 3.51758e-19)
(0.130547 -0.326583 3.62166e-19)
(0.133631 -0.342133 -3.56498e-19)
(0.136795 -0.35746 0)
(0.140026 -0.372552 -3.62374e-19)
(0.143313 -0.3874 7.11379e-19)
(0.146644 -0.401997 -3.54706e-19)
(0.15001 -0.416334 -5.47348e-21)
(0.153401 -0.430407 0)
(0.156809 -0.444209 5.36638e-21)
(0.160225 -0.457738 0)
(0.163643 -0.470989 0)
(0.167054 -0.483961 -3.31406e-19)
(0.170454 -0.496651 3.27116e-19)
(0.173836 -0.50906 0)
(0.177195 -0.521186 0)
(0.180526 -0.533031 -2.44587e-21)
(0.183826 -0.544594 -3.12591e-19)
(0.187089 -0.555879 3.0148e-19)
(0.190314 -0.566887 3.54146e-25)
(0.193496 -0.57762 -2.97062e-19)
(0.196633 -0.588081 2.92951e-19)
(0.0936512 -0.127956 3.47574e-19)
(0.0953136 -0.145321 -3.23441e-19)
(0.0972684 -0.162693 3.53059e-19)
(0.0994881 -0.180035 -3.73392e-19)
(0.101946 -0.197315 -3.63781e-19)
(0.104616 -0.214503 3.50843e-19)
(0.107475 -0.231575 0)
(0.110502 -0.248506 0)
(0.113675 -0.265277 -3.85938e-19)
(0.116978 -0.281873 3.73793e-19)
(0.120393 -0.298278 1.7837e-20)
(0.123906 -0.314477 5.93799e-21)
(0.127503 -0.330458 5.9284e-21)
(0.131169 -0.346209 -3.83707e-19)
(0.134893 -0.361719 -9.29558e-21)
(0.138664 -0.376979 3.70664e-19)
(0.14247 -0.391981 3.76649e-19)
(0.146301 -0.406718 -3.65893e-19)
(0.150149 -0.421182 0)
(0.154004 -0.435369 0)
(0.157859 -0.449273 -3.62422e-19)
(0.161707 -0.462893 3.57767e-19)
(0.165539 -0.476224 3.53765e-19)
(0.16935 -0.489265 -6.95755e-19)
(0.173135 -0.502014 3.39439e-19)
(0.176887 -0.514472 -3.39487e-19)
(0.180603 -0.526639 6.67125e-19)
(0.184277 -0.538515 -3.22635e-19)
(0.187907 -0.550103 0)
(0.191488 -0.561403 3.21221e-19)
(0.195017 -0.572418 -6.2328e-19)
(0.198492 -0.583152 3.06657e-19)
(0.0811833 -0.112047 -3.33997e-19)
(0.0834352 -0.12989 -1.12551e-20)
(0.0859774 -0.147754 1.15392e-20)
(0.0887803 -0.165572 3.85549e-19)
(0.0918187 -0.183312 -3.60212e-19)
(0.0950695 -0.200952 2.42013e-20)
(0.098506 -0.218462 -4.0004e-19)
(0.102101 -0.235822 -1.56332e-20)
(0.10583 -0.253014 3.7797e-19)
(0.109673 -0.270025 1.24581e-20)
(0.113615 -0.286839 -1.25365e-20)
(0.117643 -0.303443 -6.27265e-21)
(0.121743 -0.319825 -6.26755e-21)
(0.125903 -0.335974 -6.2377e-21)
(0.130112 -0.351879 0)
(0.134359 -0.36753 0)
(0.138633 -0.382919 -6.14895e-21)
(0.142924 -0.398037 0)
(0.147223 -0.412878 -3.9789e-19)
(0.151522 -0.427435 -1.3232e-20)
(0.155811 -0.441704 7.55612e-19)
(0.160085 -0.455681 -7.59413e-19)
(0.164336 -0.469362 3.69502e-19)
(0.168556 -0.482744 -5.74754e-21)
(0.172742 -0.495827 -2.83732e-21)
(0.176886 -0.50861 0)
(0.180985 -0.521092 3.55778e-19)
(0.185034 -0.533275 -6.96526e-19)
(0.189028 -0.545158 3.40891e-19)
(0.192965 -0.556745 0)
(0.196841 -0.568038 3.36468e-19)
(0.200654 -0.579039 -3.26826e-19)
(0.0692876 -0.0972441 -3.78281e-19)
(0.0721075 -0.115491 7.45335e-19)
(0.0752171 -0.13382 -3.78215e-19)
(0.0785924 -0.152164 1.25387e-20)
(0.0822049 -0.170453 -4.2976e-19)
(0.0860239 -0.188623 -1.94789e-20)
(0.0900153 -0.206615 8.42259e-19)
(0.0941482 -0.224387 -4.21394e-19)
(0.0984024 -0.241933 4.26658e-19)
(0.102767 -0.259282 -4.26723e-19)
(0.107227 -0.276442 0)
(0.111764 -0.293398 0)
(0.116363 -0.310138 -6.59933e-21)
(0.121013 -0.326648 4.34612e-19)
(0.125703 -0.342917 -4.15874e-19)
(0.130422 -0.358933 -6.54642e-21)
(0.13516 -0.374685 -4.21941e-19)
(0.139909 -0.390166 4.10308e-19)
(0.144658 -0.405368 -4.02941e-19)
(0.149398 -0.420282 4.10846e-19)
(0.154122 -0.434903 4.14589e-19)
(0.158822 -0.449226 6.83153e-21)
(0.16349 -0.463247 -3.9312e-19)
(0.16812 -0.476963 6.12468e-21)
(0.172707 -0.490372 -3.86813e-19)
(0.177244 -0.503473 3.76351e-19)
(0.181726 -0.516264 -2.94257e-21)
(0.186149 -0.528747 0)
(0.190509 -0.540922 -3.68163e-19)
(0.194802 -0.55279 -4.1773e-21)
(0.199025 -0.564354 -6.69991e-21)
(0.203176 -0.575617 3.51807e-19)
(0.0580473 -0.0836782 4.07916e-19)
(0.0614184 -0.102162 -3.7177e-19)
(0.0650743 -0.120794 1.28257e-20)
(0.0689933 -0.139506 1.31974e-20)
(0.0731489 -0.158226 1.34892e-20)
(0.0775115 -0.176879 4.36692e-19)
(0.0820498 -0.195392 -9.02729e-19)
(0.0867337 -0.213704 4.51731e-19)
(0.091534 -0.231766 1.40229e-20)
(0.0964241 -0.249551 0)
(0.101385 -0.267055 -4.68275e-19)
(0.106407 -0.284312 -1.37198e-20)
(0.111487 -0.301355 4.4809e-19)
(0.116614 -0.318181 0)
(0.121774 -0.334774 -4.52135e-19)
(0.126957 -0.351121 4.46716e-19)
(0.132154 -0.36721 1.38483e-20)
(0.137354 -0.38303 4.45445e-19)
(0.142547 -0.398571 1.97829e-21)
(0.147726 -0.413823 -4.2369e-19)
(0.152881 -0.428781 0)
(0.158004 -0.443437 -4.3063e-19)
(0.163088 -0.457786 -6.89447e-21)
(0.168126 -0.471825 4.21287e-19)
(0.173112 -0.48555 -4.09698e-19)
(0.178039 -0.498959 4.08271e-19)
(0.182904 -0.512052 3.14659e-21)
(0.1877 -0.524827 0)
(0.192424 -0.537286 0)
(0.197071 -0.549429 3.00898e-21)
(0.20164 -0.561259 2.96171e-21)
(0.206126 -0.572778 0)
(0.0476845 -0.0713307 4.25408e-19)
(0.0515955 -0.0899421 -3.89467e-19)
(0.0557881 -0.108771 4.34431e-19)
(0.0602436 -0.12775 -4.49678e-19)
(0.0649358 -0.146797 -1.05582e-22)
(0.069833 -0.165826 0)
(0.0749015 -0.184751 0)
(0.0801091 -0.203504 4.87206e-19)
(0.0854266 -0.222029 -9.72258e-19)
(0.0908282 -0.240282 4.70012e-19)
(0.0962913 -0.258237 1.49518e-20)
(0.101797 -0.275883 0)
(0.107336 -0.29324 -4.82024e-19)
(0.112909 -0.310354 -1.29442e-20)
(0.118514 -0.327248 9.48849e-19)
(0.12414 -0.343906 -4.75033e-19)
(0.129776 -0.360312 4.77056e-19)
(0.135411 -0.376453 -4.57132e-19)
(0.141035 -0.392318 0)
(0.146639 -0.407896 -1.44879e-20)
(0.152214 -0.423178 7.18118e-21)
(0.15775 -0.438156 4.59932e-19)
(0.163241 -0.452824 -4.4084e-19)
(0.168678 -0.467177 -6.9871e-21)
(0.174055 -0.481211 -1.38067e-20)
(0.179367 -0.494922 -4.39575e-19)
(0.184606 -0.50831 4.27994e-19)
(0.189769 -0.521372 4.27795e-19)
(0.194851 -0.534109 8.40719e-21)
(0.199848 -0.546521 -4.13598e-19)
(0.204757 -0.558611 -4.15005e-19)
(0.209574 -0.570381 -4.33522e-21)
(0.0384516 -0.060116 -2.4042e-19)
(0.0428681 -0.0787104 1.96065e-19)
(0.0475598 -0.097599 2.3507e-19)
(0.0525136 -0.116722 -2.29535e-19)
(0.0577069 -0.135995 4.84883e-19)
(0.0631089 -0.155318 -4.85308e-19)
(0.0686841 -0.174593 0)
(0.0743967 -0.19373 1.58736e-20)
(0.080213 -0.212659 5.21415e-19)
(0.0861031 -0.231324 -5.02461e-19)
(0.0920419 -0.249687 0)
(0.0980103 -0.26773 1.58694e-20)
(0.103996 -0.285453 1.58128e-20)
(0.109997 -0.302885 0)
(0.116019 -0.320072 0)
(0.122061 -0.337033 7.89373e-21)
(0.128113 -0.353749 -1.57231e-20)
(0.134161 -0.370206 4.98742e-19)
(0.140197 -0.386389 -4.85705e-19)
(0.146208 -0.402287 1.5495e-23)
(0.152185 -0.417889 -1.53727e-20)
(0.15812 -0.433185 0)
(0.164003 -0.448169 4.79858e-19)
(0.169827 -0.462833 -4.74807e-19)
(0.175585 -0.477173 7.40132e-21)
(0.181269 -0.491184 -3.65223e-21)
(0.186874 -0.504863 0)
(0.192395 -0.51821 -3.559e-21)
(0.197826 -0.531223 -3.99375e-24)
(0.203164 -0.543904 -4.42011e-19)
(0.208404 -0.556251 4.33629e-19)
(0.213544 -0.568269 0)
(0.0304689 -0.0499928 -2.65713e-20)
(0.0353453 -0.0684476 2.34235e-19)
(0.0404901 -0.0872524 -2.44786e-19)
(0.0458953 -0.106378 2.71063e-19)
(0.0515437 -0.125749 -2.33838e-19)
(0.0574069 -0.145259 -2.7012e-19)
(0.0634487 -0.164793 2.62243e-19)
(0.0696299 -0.184244 -3.11209e-19)
(0.075913 -0.203521 3.01935e-19)
(0.0822634 -0.222552 1.70616e-20)
(0.0886521 -0.241286 1.70347e-20)
(0.0950568 -0.259693 -3.40092e-20)
(0.101464 -0.277766 -1.69586e-20)
(0.10787 -0.295523 -5.47446e-19)
(0.114287 -0.313015 1.08686e-18)
(0.120721 -0.330277 -5.40506e-19)
(0.127164 -0.347303 -5.35465e-19)
(0.133605 -0.364074 -1.17104e-20)
(0.14003 -0.380576 5.19644e-19)
(0.14643 -0.396794 8.29767e-21)
(0.152793 -0.412716 8.24145e-21)
(0.15911 -0.428331 0)
(0.165371 -0.443631 -8.09172e-21)
(0.171567 -0.458608 0)
(0.177691 -0.473254 -7.92971e-21)
(0.183736 -0.487567 5.17437e-19)
(0.189695 -0.501541 -9.91879e-19)
(0.195562 -0.515174 4.86309e-19)
(0.201333 -0.528465 4.81945e-19)
(0.207001 -0.541414 -4.76637e-19)
(0.212564 -0.554021 3.66211e-21)
(0.218019 -0.566288 -3.65151e-21)
(0.0237686 -0.040768 2.41298e-19)
(0.0290651 -0.0590675 0)