/*--------------------------------*- C++ -*----------------------------------*\
  =========                 |
  \\      /  F ield         | OpenFOAM: The Open Source CFD Toolbox
   \\    /   O peration     | Website:  https://openfoam.org
    \\  /    A nd           | Version:  10
     \\/     M anipulation  |
\*---------------------------------------------------------------------------*/
FoamFile
{
    format      ascii;
    class       volScalarField;
    location    "1100";
    object      k;
}
// * * * * * * * * * * * * * * * * * * * * * * * * * * * * * * * * * * * * * //

dimensions      [0 2 -2 0 0 0 0];

internalField   nonuniform List<scalar> 
420
(
2.22045e-16
2.22045e-16
2.22045e-16
2.22045e-16
2.22045e-16
2.22045e-16
2.22045e-16
2.2678e-16
2.24398e-16
2.22045e-16
2.22045e-16
2.22045e-16
2.22045e-16
2.22045e-16
2.22045e-16
2.22045e-16
2.22045e-16
2.22045e-16
2.22045e-16
2.22045e-16
2.22045e-16
2.22045e-16
2.22045e-16
2.22045e-16
2.22045e-16
2.22045e-16
2.22045e-16
2.22045e-16
2.22045e-16
2.22045e-16
2.22045e-16
2.22045e-16
2.22045e-16
2.22045e-16
2.22045e-16
2.22045e-16
2.22045e-16
2.22045e-16
2.22045e-16
2.22045e-16
2.22045e-16
2.22045e-16
2.22045e-16
2.22045e-16
2.22045e-16
2.22045e-16
2.22045e-16
2.22045e-16
2.22045e-16
2.22045e-16
2.22045e-16
2.22045e-16
2.22045e-16
2.22045e-16
2.22045e-16
2.22045e-16
2.22045e-16
2.22045e-16
2.22045e-16
2.22045e-16
2.22045e-16
2.22045e-16
2.22045e-16
2.22045e-16
2.22045e-16
2.22045e-16
2.22045e-16
2.22045e-16
2.22045e-16
2.22045e-16
2.22045e-16
2.22045e-16
2.22045e-16
2.22045e-16
2.22045e-16
2.22045e-16
2.22045e-16
2.22045e-16
2.22045e-16
2.22045e-16
2.22045e-16
2.22045e-16
2.22045e-16
2.22045e-16
2.22045e-16
2.22045e-16
2.22045e-16
2.22045e-16
2.22045e-16
2.22045e-16
2.22045e-16
2.22045e-16
2.22045e-16
2.22045e-16
2.22045e-16
2.22045e-16
2.22045e-16
2.22045e-16
2.22045e-16
2.22045e-16
2.22045e-16
2.22045e-16
2.22045e-16
2.29389e-16
2.6819e-16
2.71187e-16
2.82393e-16
2.28375e-16
2.22045e-16
4.22396e-16
2.22045e-16
2.22045e-16
2.22045e-16
2.33838e-16
2.73699e-16
2.73183e-16
2.80222e-16
2.25778e-16
2.22045e-16
4.20502e-16
2.22045e-16
2.22045e-16
2.22045e-16
2.39845e-16
2.80495e-16
2.76199e-16
2.77085e-16
2.22999e-16
2.22045e-16
4.21283e-16
2.22045e-16
2.22045e-16
2.22045e-16
2.47002e-16
2.87063e-16
2.78855e-16
2.73579e-16
2.22045e-16
2.22045e-16
4.22598e-16
2.22045e-16
2.22045e-16
2.22045e-16
2.54893e-16
2.92025e-16
2.80919e-16
2.70052e-16
2.22045e-16
2.22045e-16
4.24018e-16
2.22045e-16
2.22045e-16
2.22045e-16
2.62377e-16
2.94631e-16
2.82299e-16
2.67075e-16
2.22045e-16
2.22045e-16
4.24086e-16
2.22045e-16
2.22045e-16
2.22045e-16
2.6806e-16
2.94764e-16
2.8306e-16
2.64638e-16
2.22045e-16
2.22045e-16
4.24972e-16
2.22045e-16
2.22045e-16
2.22045e-16
2.72231e-16
2.94098e-16
2.83221e-16
2.62873e-16
2.22045e-16
2.22045e-16
4.26576e-16
2.22045e-16
2.22045e-16
2.24579e-16
2.75022e-16
2.92108e-16
2.82611e-16
2.61704e-16
2.22045e-16
2.22045e-16
4.29405e-16
2.22045e-16
2.22045e-16
2.33314e-16
2.77191e-16
2.89547e-16
2.8216e-16
2.61714e-16
2.22045e-16
2.22045e-16
4.32683e-16
2.22045e-16
2.22045e-16
2.49493e-16
2.78224e-16
2.86424e-16
2.80987e-16
2.6252e-16
2.22045e-16
2.22045e-16
4.35549e-16
2.22045e-16
2.22045e-16
2.60362e-16
2.76533e-16
2.82991e-16
2.7962e-16
2.63277e-16
2.22045e-16
2.22045e-16
4.35445e-16
2.22045e-16
2.27793e-16
2.6514e-16
2.70569e-16
2.77425e-16
2.77108e-16
2.63695e-16
2.22045e-16
2.22045e-16
4.3656e-16
2.22045e-16
2.54281e-16
2.56905e-16
2.59091e-16
2.69597e-16
2.73359e-16
2.64904e-16
2.22045e-16
2.22045e-16
4.43128e-16
2.47709e-16
2.49591e-16
2.45424e-16
2.4896e-16
2.63351e-16
2.70617e-16
2.66928e-16
2.22045e-16
2.22045e-16
4.48236e-16
2.4573e-16
2.38867e-16
2.34067e-16
2.39332e-16
2.57648e-16
2.67827e-16
2.69285e-16
2.22045e-16
2.22045e-16
4.51787e-16
2.38519e-16
2.2901e-16
2.24518e-16
2.31013e-16
2.52993e-16
2.64802e-16
2.71804e-16
2.23136e-16
2.22045e-16
4.54459e-16
2.31551e-16
2.22045e-16
2.22045e-16
2.24616e-16
2.49601e-16
2.62125e-16
2.74249e-16
2.2598e-16
2.22045e-16
4.56075e-16
2.25912e-16
2.22045e-16
2.22045e-16
2.22045e-16
2.47531e-16
2.61279e-16
2.77055e-16
2.29088e-16
2.22045e-16
4.55103e-16
2.22045e-16
2.22045e-16
2.22045e-16
2.22045e-16
2.48493e-16
2.63287e-16
2.8093e-16
2.33009e-16
2.22045e-16
4.52822e-16
2.22045e-16
2.22045e-16
2.22045e-16
2.22045e-16
2.51656e-16
2.673e-16
2.84779e-16
2.363e-16
2.22045e-16
4.57014e-16
2.22045e-16
2.22045e-16
2.22045e-16
2.22045e-16
2.52543e-16
2.67984e-16
2.85802e-16
2.31976e-16
2.22045e-16
4.78521e-16
2.22045e-16
2.22045e-16
2.23686e-16
2.44337e-16
2.43967e-16
2.40023e-16
2.35263e-16
2.30547e-16
2.26561e-16
2.24398e-16
2.22045e-16
2.22045e-16
2.22045e-16
2.22045e-16
2.28575e-16
2.31879e-16
2.33033e-16
2.32599e-16
2.31603e-16
2.30828e-16
2.22045e-16
2.22045e-16
2.22045e-16
2.22045e-16
2.22045e-16
2.22045e-16
2.22045e-16
2.22173e-16
2.26314e-16
2.30734e-16
2.22045e-16
2.22045e-16
2.22045e-16
2.22045e-16
2.22045e-16
2.22045e-16
2.22045e-16
2.22045e-16
2.22045e-16
2.22045e-16
2.22045e-16
2.22045e-16
2.22045e-16
2.22045e-16
2.22045e-16
2.22045e-16
2.22045e-16
2.22045e-16
2.22045e-16
2.22045e-16
2.22045e-16
2.22045e-16
2.22045e-16
2.22045e-16
2.22045e-16
2.22045e-16
2.22045e-16
2.22045e-16
2.22045e-16
2.22045e-16
2.22045e-16
2.22045e-16
2.22045e-16
2.22045e-16
2.22045e-16
2.22045e-16
2.22045e-16
2.22045e-16
2.22045e-16
2.22045e-16
2.22045e-16
2.22045e-16
2.22045e-16
2.22045e-16
2.22045e-16
2.22045e-16
2.22045e-16
2.22045e-16
2.22045e-16
2.22045e-16
2.22045e-16
2.22045e-16
2.22045e-16
2.22045e-16
2.22045e-16
2.22045e-16
2.22045e-16
2.22045e-16
2.22045e-16
2.22045e-16
2.22045e-16
2.22045e-16
2.22045e-16
2.22045e-16
2.22045e-16
2.22045e-16
2.22045e-16
2.22045e-16
2.22045e-16
2.22045e-16
)
;

boundaryField
{
    right
    {
        type            cyclic;
    }
    left
    {
        type            cyclic;
    }
    outerWall
    {
        type            kqRWallFunction;
        value           nonuniform List<scalar> 
22
(
4.22396e-16
4.20502e-16
4.21283e-16
4.22598e-16
4.24018e-16
4.24086e-16
4.24972e-16
4.26576e-16
4.29405e-16
4.32683e-16
4.35549e-16
4.35445e-16
4.3656e-16
4.43128e-16
4.48236e-16
4.51787e-16
4.54459e-16
4.56075e-16
4.55103e-16
4.52822e-16
4.57014e-16
4.78521e-16
)
;
    }
    stirrerWall
    {
        type            kqRWallFunction;
        value           uniform 2.22045e-16;
    }
    top
    {
        type            empty;
    }
    bottom
    {
        type            empty;
    }
}


// ************************************************************************* //
