/*--------------------------------*- C++ -*----------------------------------*\
  =========                 |
  \\      /  F ield         | OpenFOAM: The Open Source CFD Toolbox
   \\    /   O peration     | Website:  https://openfoam.org
    \\  /    A nd           | Version:  10
     \\/     M anipulation  |
\*---------------------------------------------------------------------------*/
FoamFile
{
    format      ascii;
    class       volScalarField;
    location    "1100";
    object      nut;
}
// * * * * * * * * * * * * * * * * * * * * * * * * * * * * * * * * * * * * * //

dimensions      [0 2 -1 0 0 0 0];

internalField   nonuniform List<scalar> 
420
(
1.04478e-20
6.14803e-20
1.76719e-19
3.48083e-19
5.34662e-19
6.97785e-19
7.89138e-19
6.91418e-19
6.77065e-19
6.56301e-19
1.04473e-20
5.93923e-20
1.66434e-19
3.26199e-19
5.06882e-19
6.66145e-19
7.5854e-19
7.67903e-19
7.12502e-19
6.18157e-19
1.04471e-20
5.65427e-20
1.48802e-19
2.82014e-19
4.37216e-19
5.82808e-19
6.79991e-19
7.00919e-19
6.50982e-19
5.58744e-19
1.04472e-20
5.55578e-20
1.37984e-19
2.48051e-19
3.7366e-19
4.9479e-19
5.82857e-19
6.10228e-19
5.69061e-19
4.85265e-19
1.04476e-20
5.65899e-20
1.35857e-19
2.30967e-19
3.31806e-19
4.26129e-19
4.94498e-19
5.14317e-19
4.76111e-19
4.04062e-19
1.04483e-20
5.92493e-20
1.38326e-19
2.19316e-19
2.94001e-19
3.56733e-19
3.9447e-19
4.04674e-19
3.76214e-19
3.21273e-19
1.04493e-20
5.94676e-20
1.26988e-19
1.79254e-19
2.19059e-19
2.48848e-19
2.68809e-19
2.85722e-19
2.78211e-19
2.40388e-19
1.04506e-20
4.75721e-20
7.83531e-20
9.82346e-20
1.12903e-19
1.26256e-19
1.46847e-19
1.74491e-19
1.82778e-19
1.56628e-19
1.04522e-20
2.14539e-20
2.77647e-20
3.32091e-20
3.87151e-20
4.52438e-20
5.55493e-20
7.02676e-20
7.82662e-20
7.30758e-20
2.82342e-21
3.6643e-21
4.61494e-21
5.67535e-21
6.84552e-21
8.12545e-21
9.51514e-21
1.10146e-20
1.26238e-20
1.43428e-20
5.60787e-19
4.92868e-19
4.94419e-19
5.96585e-19
8.26208e-19
9.04475e-19
5.86045e-19
4.44442e-19
2.67352e-19
1.17946e-19
5.19057e-19
4.55873e-19
4.71989e-19
6.04658e-19
8.47776e-19
9.09784e-19
5.76858e-19
4.4409e-19
2.59912e-19
1.17421e-19
4.65382e-19
4.14352e-19
4.50161e-19
6.19622e-19
8.73958e-19
9.15998e-19
5.73403e-19
4.44282e-19
2.53226e-19
1.1764e-19
4.03985e-19
3.70587e-19
4.31383e-19
6.43927e-19
9.02318e-19
9.20582e-19
5.72315e-19
4.54965e-19
2.46159e-19
1.18005e-19
3.38697e-19
3.26656e-19
4.17323e-19
6.776e-19
8.8734e-19
9.22415e-19
5.76676e-19
4.71511e-19
2.42819e-19
1.18398e-19
2.72519e-19
2.83638e-19
4.07991e-19
6.59068e-19
7.57693e-19
9.22764e-19
5.79419e-19
4.83505e-19
2.40226e-19
1.18411e-19
2.05905e-19
2.40777e-19
4.00244e-19
6.48487e-19
7.25211e-19
8.66053e-19
5.85315e-19
4.85096e-19
2.39303e-19
1.18649e-19
1.38843e-19
1.95104e-19
3.90875e-19
6.81607e-19
7.2677e-19
8.15644e-19
5.89267e-19
4.88757e-19
2.39597e-19
1.19085e-19
7.6895e-20
1.49978e-19
3.88671e-19
7.25817e-19
7.4327e-19
8.09341e-19
6.15596e-19
4.9466e-19
2.4176e-19
1.19862e-19
3.32886e-20
1.1169e-19
4.08465e-19
7.58216e-19
7.58241e-19
7.94312e-19
6.54128e-19
5.02211e-19
2.46478e-19
1.2076e-19
1.03958e-20
8.90849e-20
4.81601e-19
7.42326e-19
7.50171e-19
7.59132e-19
6.43895e-19
5.08262e-19
2.48818e-19
1.2181e-19
1.03958e-20
1.12803e-19
5.63927e-19
6.5845e-19
6.96881e-19
7.07512e-19
5.93821e-19
5.08592e-19
2.49715e-19
1.21781e-19
6.5857e-20
2.97684e-19
5.54705e-19
6.43753e-19
6.98576e-19
7.11072e-19
5.97274e-19
5.10355e-19
2.51388e-19
1.21842e-19
2.94413e-19
5.09353e-19
6.11779e-19
6.89737e-19
7.47918e-19
7.57808e-19
6.32859e-19
5.21686e-19
2.54631e-19
1.23692e-19
5.41289e-19
5.79162e-19
6.39409e-19
7.03087e-19
7.65493e-19
7.74099e-19
6.37315e-19
5.29105e-19
2.62624e-19
1.25132e-19
6.13162e-19
6.22561e-19
6.64578e-19
7.23922e-19
7.95046e-19
8.3324e-19
6.51651e-19
5.35391e-19
2.73455e-19
1.26136e-19
6.38233e-19
6.46249e-19
6.36567e-19
6.80167e-19
8.06908e-19
8.87892e-19
6.66877e-19
5.40851e-19
2.85493e-19
1.26891e-19
6.43059e-19
6.232e-19
6.05834e-19
6.41548e-19
7.82293e-19
8.76746e-19
6.91229e-19
5.46071e-19
2.95611e-19
1.27349e-19
6.51553e-19
5.99062e-19
5.80581e-19
6.1369e-19
7.61424e-19
8.69626e-19
7.21748e-19
5.47067e-19
2.97977e-19
1.27082e-19
6.33746e-19
5.72884e-19
5.54246e-19
5.93766e-19
7.51081e-19
8.7031e-19
7.15776e-19
5.46126e-19
2.94292e-19
1.26447e-19
6.11354e-19
5.4376e-19
5.27368e-19
5.76523e-19
7.52243e-19
8.79223e-19
6.05441e-19
4.31315e-19
2.87082e-19
1.27616e-19
5.84753e-19
5.13774e-19
5.03331e-19
5.66871e-19
7.58197e-19
8.86064e-19
5.72921e-19
3.62544e-19
2.756e-19
1.33618e-19
1.43428e-20
1.19832e-19
4.2223e-19
6.68392e-19
7.03572e-19
6.9556e-19
6.77604e-19
6.97447e-19
7.04725e-19
6.83702e-19
1.26238e-20
8.7157e-20
3.03578e-19
5.64902e-19
7.22161e-19
7.81923e-19
7.69352e-19
7.35906e-19
7.10617e-19
6.46106e-19
1.10146e-20
6.73755e-20
2.03938e-19
4.15274e-19
6.04702e-19
7.13974e-19
7.66889e-19
7.93902e-19
7.3774e-19
6.70708e-19
9.51514e-21
5.3943e-20
1.43909e-19
2.79327e-19
4.34028e-19
5.68693e-19
6.65962e-19
7.29955e-19
7.6481e-19
7.85719e-19
8.12545e-21
4.47764e-20
1.11451e-19
2.02718e-19
3.09372e-19
4.16892e-19
5.12046e-19
5.87449e-19
6.39984e-19
6.79163e-19
6.84552e-21
3.79532e-20
9.25457e-20
1.61284e-19
2.37617e-19
3.14899e-19
3.86094e-19
4.44915e-19
4.88106e-19
5.20304e-19
5.67535e-21
3.20639e-20
7.93197e-20
1.35573e-19
1.92882e-19
2.45811e-19
2.89771e-19
3.21411e-19
3.40186e-19
3.50145e-19
4.61494e-21
2.64908e-20
6.6678e-20
1.09653e-19
1.44096e-19
1.6714e-19
1.80007e-19
1.85241e-19
1.85855e-19
1.83488e-19
3.6643e-21
2.07294e-20
4.48921e-20
5.85145e-20
6.34297e-20
6.47928e-20
6.48265e-20
6.4453e-20
6.42584e-20
6.3565e-20
2.82342e-21
1.04522e-20
1.04506e-20
1.04493e-20
1.04483e-20
1.04476e-20
1.04472e-20
1.04471e-20
1.04473e-20
1.04478e-20
)
;

boundaryField
{
    right
    {
        type            cyclic;
    }
    left
    {
        type            cyclic;
    }
    outerWall
    {
        type            nutkWallFunction;
        Cmu             0.09;
        kappa           0.41;
        E               9.8;
        value           uniform 0;
    }
    stirrerWall
    {
        type            nutkWallFunction;
        Cmu             0.09;
        kappa           0.41;
        E               9.8;
        value           uniform 0;
    }
    top
    {
        type            empty;
    }
    bottom
    {
        type            empty;
    }
}


// ************************************************************************* //
