/*--------------------------------*- C++ -*----------------------------------*\
  =========                 |
  \\      /  F ield         | OpenFOAM: The Open Source CFD Toolbox
   \\    /   O peration     | Website:  https://openfoam.org
    \\  /    A nd           | Version:  10
     \\/     M anipulation  |
\*---------------------------------------------------------------------------*/
FoamFile
{
    format      ascii;
    class       volScalarField;
    location    "1100";
    object      omega;
}
// * * * * * * * * * * * * * * * * * * * * * * * * * * * * * * * * * * * * * //

dimensions      [0 0 -1 0 0 0 0];

internalField   nonuniform List<scalar> 
420
(
21252.7
3611.64
1256.49
637.908
415.299
318.213
281.376
279.57
298.891
338.327
21253.7
3738.61
1334.13
680.702
438.06
333.328
292.726
289.157
311.641
359.204
21254.2
3927.03
1492.22
787.354
507.86
380.991
326.541
316.791
341.092
397.399
21254
3996.64
1609.2
895.159
594.243
448.766
380.959
363.872
390.195
457.574
21253.2
3923.75
1634.4
961.37
669.2
521.074
449.031
431.727
466.371
549.531
21251.7
3747.63
1605.23
1012.44
755.25
622.439
562.894
548.7
590.208
691.14
21249.7
3733.88
1748.55
1238.72
1013.63
892.291
826.031
777.134
798.115
923.692
21247.1
4667.53
2833.9
2260.35
1966.68
1758.69
1512.08
1272.53
1214.83
1417.66
21243.8
10349.9
7997.37
6686.25
5735.34
4907.74
3997.26
3159.98
2837.04
3038.55
78643.9
60596.7
48114.3
39124.4
32436.5
27327.1
23335.9
20159.1
17589.3
15481.3
395.952
450.515
449.102
384.504
324.604
299.828
358.562
443.224
830.532
3581.27
427.784
487.076
470.445
386.728
322.843
300.272
359.453
447.799
854.307
3581.17
477.123
535.884
493.256
387.082
320.949
301.528
359.734
452.25
876.863
3581.13
549.636
599.17
514.727
383.586
318.14
302.912
359.631
456.799
902.038
3581.18
655.584
679.751
532.069
376.17
314.872
304.548
359.137
458.83
914.445
3581.3
814.787
782.844
544.239
366.457
311.999
305.928
358.434
459.24
924.314
3581.49
1078.39
922.2
554.774
357.711
309.536
307.004
357.248
457.733
927.879
3581.76
1599.25
1138.08
568.07
349.009
307.356
307.755
355.755
454.305
926.74
3582.1
2887.63
1480.51
577.813
340.683
305.661
308.093
353.948
448.883
918.449
3582.51
6670.29
1988.05
571.197
332.903
304.82
308.184
352.539
442.134
900.87
3582.99
21359.1
2492.51
518.049
325.335
304.831
308.003
352.283
436.87
892.399
3575.63
21359.1
1968.42
443.446
321.458
304.763
306.791
351.29
436.587
889.192
3575.63
3371.62
765.217
368.287
318.406
304.122
304.982
349.482
435.078
883.274
3582.99
754.195
404.229
335.795
318.439
304.038
302.093
346.208
425.629
872.024
3582.51
387.083
343.638
334.328
323.308
305.962
300.216
344.542
419.661
845.483
3582.1
333.855
338.471
341.54
330.539
309.121
298.798
343.235
414.734
811.998
3581.76
328.719
345.12
352.701
339.641
313.534
298.237
342.874
412.565
777.759
3581.49
332.772
356.298
366.511
350.116
319.063
298.974
343.577
413.83
751.138
3581.3
340.203
370.654
382.452
361.819
325.09
300.45
346.076
418.757
745.173
3581.18
350.369
387.591
400.625
373.96
330.847
302.521
350.267
426.658
754.504
3581.13
363.201
408.351
421.043
385.145
334.54
304.018
355.687
436.807
773.453
3581.17
379.724
432.184
441.15
391.702
333.084
302.443
358.829
442.676
805.677
3581.27
15481.3
1852.97
529.773
345.917
315.64
311.42
312.829
316.314
321.488
328.211
17589.3
2547.64
731.426
393.068
316.516
296.55
290.911
289.587
291.118
293.584
20159.1
3295.63
1088.79
534.694
367.197
310.998
289.54
279.849
277.317
277.395
23335.9
4116.28
1542.95
794.927
511.591
390.447
333.419
304.189
290.326
282.6
27327.1
4958.96
1992.31
1095.34
717.727
532.618
433.642
377.981
346.953
326.938
32436.5
5850.49
2399.3
1376.73
934.466
705.13
575.104
499.072
454.911
426.76
39124.4
6925.06
2799.36
1637.82
1151.19
903.314
766.276
690.843
652.716
634.151
48114.3
8381.96
3330.1
2024.98
1540.95
1328.5
1233.53
1198.68
1194.72
1210.13
60596.7
10711.6
4946.19
3794.69
3500.64
3427
3425.22
3445.06
3455.49
3493.19
78643.9
21243.8
21247.1
21249.7
21251.7
21253.2
21254
21254.2
21253.7
21252.7
)
;

boundaryField
{
    right
    {
        type            cyclic;
    }
    left
    {
        type            cyclic;
    }
    outerWall
    {
        beta1           0.075;
        blended         0;
        type            omegaWallFunction;
        value           nonuniform List<scalar> 
22
(
3581.27
3581.17
3581.13
3581.18
3581.3
3581.49
3581.76
3582.1
3582.51
3582.99
3575.63
3575.63
3582.99
3582.51
3582.1
3581.76
3581.49
3581.3
3581.18
3581.13
3581.17
3581.27
)
;
    }
    stirrerWall
    {
        beta1           0.075;
        blended         0;
        type            omegaWallFunction;
        value           nonuniform List<scalar> 
42
(
21252.7
21253.7
21254.2
21254
21253.2
21251.7
21249.7
21247.1
21243.8
78643.9
78643.9
60596.7
48114.3
39124.4
32436.5
27327.1
23335.9
20159.1
17589.3
15481.3
21359.1
21359.1
15481.3
17589.3
20159.1
23335.9
27327.1
32436.5
39124.4
48114.3
60596.7
78643.9
78643.9
21243.8
21247.1
21249.7
21251.7
21253.2
21254
21254.2
21253.7
21252.7
)
;
    }
    top
    {
        type            empty;
    }
    bottom
    {
        type            empty;
    }
}


// ************************************************************************* //
