/*--------------------------------*- C++ -*----------------------------------*\
  =========                 |
  \\      /  F ield         | OpenFOAM: The Open Source CFD Toolbox
   \\    /   O peration     | Website:  https://openfoam.org
    \\  /    A nd           | Version:  10
     \\/     M anipulation  |
\*---------------------------------------------------------------------------*/
FoamFile
{
    format      ascii;
    class       volScalarField;
    location    "1100";
    object      p;
}
// * * * * * * * * * * * * * * * * * * * * * * * * * * * * * * * * * * * * * //

dimensions      [0 2 -2 0 0 0 0];

internalField   nonuniform List<scalar> 
420
(
-0.0260256
16.2445
32.8612
51.7942
72.3531
94.0065
116.212
138.168
159.383
179.375
0.0475441
15.8188
32.1671
50.8799
71.3655
93.1478
115.691
138.122
159.749
180.013
-0.232342
15.3581
31.4597
49.9435
70.3494
92.2741
115.152
137.979
159.952
180.471
-0.581603
14.9085
30.8151
49.0914
69.3892
91.3488
114.394
137.501
159.797
180.61
-0.8636
14.5471
30.2499
48.2739
68.3591
90.1848
113.22
136.494
159.106
180.307
-1.00982
14.3383
29.8038
47.4841
67.201
88.6995
111.524
134.853
157.787
179.504
-1.03171
14.31
29.5286
46.7711
65.9566
86.9173
109.318
132.563
155.833
178.277
-0.992269
14.4507
29.4558
46.2032
64.7431
84.9928
106.764
129.717
153.311
176.695
-1.0125
14.7455
29.5836
45.8513
63.7624
83.2681
104.278
126.648
150.15
174.1
-1.28831
15.073
29.628
45.4621
62.8561
81.7388
102.054
123.705
146.421
169.889
197.681
214.911
231.384
246.822
260.987
273.7
281.937
292.77
291.355
298.408
198.424
215.627
232
247.335
261.454
274.217
282.8
294.195
295.867
305.58
199.031
216.265
232.58
247.897
262.114
275.102
284.231
296.78
300.476
309.074
199.404
216.761
233.091
248.475
262.877
276.166
285.971
299.869
305.506
310.351
199.464
217.058
233.496
249.047
263.705
277.343
287.863
302.851
309.467
313.167
199.199
217.132
233.771
249.591
264.54
278.534
289.687
305.287
312.112
316.145
198.761
216.991
233.828
250.032
265.33
279.674
291.249
307.103
314.136
318.323
198.317
216.664
233.596
250.33
266.1
280.824
292.708
308.931
316.616
319.588
197.483
216.46
233.415
250.628
266.925
282.082
294.382
311.536
320.566
320.034
195.73
216.974
233.856
251.112
267.763
283.367
296.438
315.359
324.156
319.373
195.165
217.209
234.347
251.661
268.46
284.301
297.293
318.707
322.509
314.592
195.639
216.928
234.521
251.792
268.553
284.383
297.394
318.114
318.576
310.187
199.596
217.088
234.686
251.99
268.634
284.319
297.619
314.592
315.914
309.766
198.976
216.51
234.202
251.624
268.256
283.795
296.813
312.714
314.412
307.54
197.691
215.612
233.433
250.879
267.451
282.833
295.573
311.298
312.793
305.046
196.731
214.705
232.543
249.902
266.312
281.452
293.817
309.105
310.13
302.58
196.13
213.971
231.666
248.804
264.93
279.747
291.734
306.46
306.926
300.062
195.792
213.427
230.884
247.714
263.478
277.965
289.578
303.459
303.732
300.789
195.657
213.104
230.312
246.807
262.173
276.251
287.093
299.661
301.664
309.076
195.753
213.092
230.109
246.313
261.283
274.733
284.02
294.43
298.554
319.15
196.172
213.496
230.387
246.372
260.986
273.786
281.406
290.607
292.112
303.899
196.95
214.236
230.927
246.655
261.009
273.689
281.253
291.502
290.898
283.061
182.652
180.151
178.713
178.044
177.749
177.653
177.672
177.801
178.11
178.721
156.903
157.214
157.482
157.774
158.053
158.296
158.475
158.588
158.681
158.973
130.076
132.679
134.74
136.185
137.177
137.825
138.188
138.299
138.201
138.143
105.6
108.665
111.586
113.803
115.377
116.4
116.961
117.126
116.952
116.621
83.748
86.348
89.1732
91.5518
93.3229
94.5098
95.1814
95.3963
95.2081
94.7122
64.2058
66.1164
68.3328
70.3661
71.9561
73.0523
73.6746
73.8721
73.6919
73.1566
46.7868
48.0314
49.4474
50.8344
51.9673
52.7549
53.1848
53.2796
53.0681
52.554
31.3955
32.0247
32.6401
33.2648
33.7931
34.1533
34.3062
34.2458
33.9767
33.5119
17.9871
17.9566
17.8814
17.8631
17.8698
17.8432
17.7343
17.519
17.1783
16.7559
5.52842
4.51476
3.58993
2.99571
2.57212
2.19253
1.79538
1.35697
0.867205
0.431972
)
;

boundaryField
{
    right
    {
        type            cyclic;
    }
    left
    {
        type            cyclic;
    }
    outerWall
    {
        type            zeroGradient;
    }
    stirrerWall
    {
        type            zeroGradient;
    }
    top
    {
        type            empty;
    }
    bottom
    {
        type            empty;
    }
}


// ************************************************************************* //
