/*--------------------------------*- C++ -*----------------------------------*\
  =========                 |
  \\      /  F ield         | OpenFOAM: The Open Source CFD Toolbox
   \\    /   O peration     | Website:  https://openfoam.org
    \\  /    A nd           | Version:  10
     \\/     M anipulation  |
\*---------------------------------------------------------------------------*/
FoamFile
{
    format      ascii;
    class       surfaceScalarField;
    location    "1100";
    object      phi;
}
// * * * * * * * * * * * * * * * * * * * * * * * * * * * * * * * * * * * * * //

dimensions      [0 3 -1 0 0 0 0];

internalField   nonuniform List<scalar> 
788
(
7.56265e-07
3.39844e-07
1.16727e-06
1.76814e-05
2.18581e-06
2.3839e-05
3.85703e-06
2.68488e-05
5.93412e-06
2.68752e-05
8.29472e-06
2.34413e-05
1.07275e-05
1.38308e-05
1.26304e-05
-3.32109e-06
1.40337e-05
-2.43478e-05
-4.40157e-05
1.43565e-05
1.19359e-06
-8.57259e-07
1.74489e-06
1.71463e-05
2.81903e-06
2.27388e-05
4.68617e-06
2.48793e-05
7.3744e-06
2.41146e-05
1.11687e-05
1.96884e-05
1.55996e-05
9.44916e-06
1.85906e-05
-6.32567e-06
1.92502e-05
-2.50501e-05
-4.29824e-05
1.81254e-05
2.10631e-06
-2.91268e-06
4.6401e-06
1.4588e-05
7.52277e-06
1.96922e-05
1.10607e-05
2.12138e-05
1.50935e-05
2.00639e-05
1.94418e-05
1.53265e-05
2.29592e-05
5.8545e-06
2.39551e-05
-7.37595e-06
2.297e-05
-2.40242e-05
-4.05401e-05
2.0573e-05
2.23212e-06
-5.18413e-06
5.89786e-06
1.07939e-05
1.00312e-05
1.54454e-05
1.46305e-05
1.65452e-05
1.93105e-05
1.53193e-05
2.36126e-05
1.0924e-05
2.65307e-05
2.81136e-06
2.66833e-05
-7.59953e-06
2.48235e-05
-2.21368e-05
-3.6949e-05
2.12567e-05
1.78377e-06
-6.99995e-06
5.53305e-06
6.9173e-06
1.01055e-05
1.07392e-05
1.50856e-05
1.14671e-05
2.00044e-05
1.03043e-05
2.41772e-05
6.64923e-06
2.67509e-05
1.63551e-07
2.66889e-05
-7.56211e-06
2.40289e-05
-1.95086e-05
-3.20944e-05
1.90788e-05
8.44758e-07
-7.87543e-06
3.93115e-06
3.70953e-06
8.23742e-06
6.29101e-06
1.30168e-05
6.60066e-06
1.77263e-05
5.5423e-06
2.16066e-05
2.71266e-06
2.36131e-05
-1.90419e-06
2.31512e-05
-7.17747e-06
1.93176e-05
-1.57863e-05
-2.56845e-05
1.27753e-05
-4.53787e-07
-7.46399e-06
1.44917e-06
1.7051e-06
4.87264e-06
2.76684e-06
8.80325e-06
2.62538e-06
1.26566e-05
1.66209e-06
1.5599e-05
-2.89274e-07
1.651e-05
-2.90547e-06
1.49081e-05
-5.67814e-06
9.53732e-06
-1.04935e-05
-1.80803e-05
1.90502e-06
-1.89401e-06
-5.61609e-06
-1.33981e-06
1.07211e-06
7.33232e-07
6.26363e-07
3.16023e-06
1.81787e-07
5.36924e-06
-5.58697e-07
6.57307e-06
-1.54785e-06
5.92442e-06
-2.32974e-06
2.77971e-06
-2.54839e-06
-3.70375e-06
-3.93997e-06
-1.10499e-05
-1.06e-05
-3.46131e-06
-2.19374e-06
-3.74825e-06
1.30115e-06
-3.11652e-06
-1.05724e-08
-2.33093e-06
-5.84832e-07
-1.68053e-06
-1.20688e-06
-1.57875e-06
-1.66728e-06
-2.54056e-06
-1.36148e-06
-5.26471e-06
2.72474e-07
-1.05611e-05
1.52636e-06
-4.71336e-06
-1.67656e-05
-2.2171e-06
-9.19601e-07
-9.05756e-07
-1.47354e-06
-2.68069e-06
-4.35163e-06
-5.69562e-06
-5.40687e-06
-3.90263e-06
-8.60228e-06
1.34022e-05
-6.32146e-05
1.15211e-05
-9.27853e-05
9.55008e-06
-0.000132833
7.81068e-06
-0.000183938
6.60588e-06
-0.000249565
7.33246e-06
-0.000339707
8.68301e-06
-0.00042964
7.69193e-06
-0.000650972
1.75878e-05
-0.000803953
-0.000666278
1.56134e-05
-6.08552e-05
1.22852e-05
-8.95316e-05
9.28874e-06
-0.00012989
7.00916e-06
-0.000181626
5.51734e-06
-0.000247866
5.20694e-06
-0.000339555
5.89644e-06
-0.000430342
3.71004e-06
-0.00064868
5.92639e-06
-0.000806359
-0.000660377
1.6932e-05
-5.72e-05
1.25841e-05
-8.51946e-05
8.86261e-06
-0.000126249
6.0272e-06
-0.000178802
4.01251e-06
-0.000245753
2.92583e-06
-0.000338633
3.42979e-06
-0.000431034
3.96686e-07
-0.000645494
1.48348e-06
-0.000807548
-0.000658855
1.63775e-05
-5.23423e-05
1.12282e-05
-8.00948e-05
7.16662e-06
-0.000122301
3.99595e-06
-0.00017573
1.58121e-06
-0.0002434
1.0969e-08
-0.000337035
4.44659e-07
-0.000431578
-3.8358e-06
-0.00064123
-5.35695e-06
-0.0008059
-0.000664207
1.30017e-05
-4.63927e-05
7.83457e-06
-7.50052e-05
4.23043e-06
-0.000118801
1.26453e-06
-0.000172858
-9.08728e-07
-0.00024108
-2.79226e-06
-0.000335418
-1.91497e-06
-0.000432241
-6.2961e-06
-0.000636886
-7.1023e-06
-0.000804986
-0.000671366
6.26633e-06
-3.99709e-05
2.61063e-06
-7.13345e-05
3.87846e-07
-0.000116611
-1.88102e-06
-0.000170665
-3.50094e-06
-0.00023918
-5.29779e-06
-0.000333919
-4.14652e-06
-0.000433283
-8.56162e-06
-0.000632514
-9.74627e-06
-0.000803742
-0.00068118
-2.76872e-06
-3.52228e-05
-3.25701e-06
-7.07019e-05
-3.74382e-06
-0.000116105
-5.06287e-06
-0.000169329
-6.08906e-06
-0.000237997
-7.53875e-06
-0.000332666
-5.9218e-06
-0.00043485
-1.0523e-05
-0.000627934
-1.14734e-05
-0.000802744
-0.000692667
-1.04352e-05
-3.51801e-05
-7.93632e-06
-7.30106e-05
-7.37263e-06
-0.000116708
-7.95627e-06
-0.000168681
-8.49476e-06
-0.000237434
-9.51592e-06
-0.000331755
-7.5618e-06
-0.000436712
-1.25619e-05
-0.000622869
-1.35961e-05
-0.000801774
-0.000706274
-1.28841e-05
-3.89073e-05
-9.86799e-06
-7.57983e-05
-9.48633e-06
-0.000117154
-9.98732e-06
-0.000168165
-1.05001e-05
-0.000236885
-1.17991e-05
-0.00033042
-9.19236e-06
-0.000439297
-1.33601e-05
-0.000618679
-1.5724e-05
-0.000799568
-0.000721924
-7.15128e-06
-4.00604e-05
-7.91305e-06
-7.51288e-05
-9.55765e-06
-0.000115511
-1.03204e-05
-0.000167282
-1.0609e-05
-0.000236581
-1.14164e-05
-0.000329613
-8.42406e-06
-0.000442439
-1.14339e-05
-0.00061558
-1.1724e-05
-0.00079955
-0.000733648
-1.29314e-06
-3.87903e-05
-4.23793e-06
-7.21601e-05
-5.8696e-06
-0.000113834
-6.66748e-06
-0.000166375
-7.36462e-06
-0.000236014
-8.15068e-06
-0.000328869
-5.12452e-06
-0.000445487
-6.79629e-07
-0.00061985
-6.64741e-06
-0.000793787
-0.000740295
1.18109e-07
-3.89286e-05
-2.42643e-06
-6.95747e-05
-3.66615e-06
-0.000112557
-4.0923e-06
-0.000165974
-4.60763e-06
-0.000235617
-5.48421e-06
-0.000327985
-3.91347e-06
-0.000447133
-1.44335e-06
-0.000622273
-7.33212e-06
-0.000788061
-0.000747631
-1.18618e-05
-3.3033e-05
5.98186e-06
-1.26615e-05
-6.88864e-05
-1.3074e-05
-0.000112041
-1.31312e-05
-0.000165807
-1.32546e-05
-0.000235604
-1.3859e-05
-0.000327443
-1.42036e-05
-0.000446862
-1.64577e-05
-0.000619836
-1.16144e-05
-0.000793035
-0.000759327
-1.77458e-05
-3.92502e-05
2.38103e-05
-1.44087e-05
-7.21399e-05
-1.24971e-05
-0.000113913
-1.13157e-05
-0.000166896
-1.11173e-05
-0.000235967
-1.1651e-05
-0.000326824
-1.11595e-05
-0.000447365
-1.10006e-05
-0.000619939
-1.48107e-05
-0.000789325
-0.000774191
-1.6853e-05
-4.41829e-05
2.18605e-05
-1.31136e-05
-7.59644e-05
-1.0338e-05
-0.000116604
-8.52268e-06
-0.000168622
-8.0516e-06
-0.000236542
-8.81108e-06
-0.000325918
-1.01994e-05
-0.000445957
-9.61832e-06
-0.00062055
-1.50251e-05
-0.000783971
-0.000789255
-1.35561e-05
-4.82891e-05
1.7569e-05
-1.00182e-05
-7.95483e-05
-7.02343e-06
-0.000119453
-4.91926e-06
-0.000170655
-4.12902e-06
-0.000237391
-4.85908e-06
-0.000325244
-7.28193e-06
-0.000443443
-6.89612e-06
-0.000620974
-1.32461e-05
-0.000777602
-0.000802486
-9.30855e-06
-5.18565e-05
1.27479e-05
-5.87626e-06
-8.28171e-05
-2.88599e-06
-0.000122342
-5.8929e-07
-0.000172881
5.16448e-07
-0.000238438
-5.60008e-08
-0.000324694
-3.51034e-06
-0.000439927
-3.58888e-06
-0.000620896
-9.40027e-06
-0.000771686
-0.000811858
-4.57849e-06
-5.50072e-05
7.77355e-06
-1.34351e-06
-8.58836e-05
1.68749e-06
-0.000125295
4.31182e-06
-0.000175422
5.89526e-06
-0.000240045
5.9848e-06
-0.000324764
1.81332e-06
-0.000435626
2.29448e-06
-0.000621314
-2.99819e-06
-0.000766292
-0.000814947
5.40227e-08
-5.79458e-05
2.95977e-06
3.17428e-06
-8.89707e-05
6.45755e-06
-0.000128508
9.67577e-06
-0.000178551
1.2293e-05
-0.000242742
1.40667e-05
-0.000326502
1.03811e-05
-0.000431763
1.16745e-05
-0.000622564
5.36713e-06
-0.000759854
-0.000809697
4.6263e-06
-6.08228e-05
-1.76545e-06
7.95878e-06
-9.23209e-05
1.17236e-05
-0.00013215
1.5706e-05
-0.000182493
1.97265e-05
-0.00024698
2.41759e-05
-0.000331019
2.30945e-05
-0.000430419
3.01938e-05
-0.000629662
2.51961e-05
-0.000754736
-0.000784058
1.01555e-05
-6.38137e-05
-7.25518e-06
1.32653e-05
-9.53707e-05
1.65401e-05
-0.000135275
1.9792e-05
-0.000185683
2.31544e-05
-0.000250408
2.8608e-05
-0.000336596
3.01558e-05
-0.000431863
4.55787e-05
-0.000645053
5.96365e-05
-0.000768844
-0.000724867
1.18224e-05
-1.15293e-05
1.11112e-05
1.04903e-05
9.89949e-06
9.68286e-06
1.26166e-05
9.25044e-06
1.54425e-05
4.09022e-05
-8.0424e-06
1.40659e-05
-1.77152e-05
3.35634e-05
-2.31599e-05
2.72215e-05
-2.72041e-05
2.16077e-05
-3.05329e-05
1.61617e-05
-3.34994e-05
1.08353e-05
-3.63408e-05
5.84031e-06
-3.90961e-05
9.87794e-07
-4.19645e-05
-4.26265e-06
-9.68049e-06
-1.2031e-06
1.51623e-05
-3.86459e-06
3.62668e-05
-7.45839e-06
3.07574e-05
-1.04822e-05
2.44886e-05
-1.28808e-05
1.85276e-05
-1.49637e-05
1.30063e-05
-1.69853e-05
7.89845e-06
-1.90078e-05
2.89453e-06
-2.08686e-05
-2.53271e-06
-7.67079e-06
1.61136e-06
1.35969e-05
4.16081e-06
3.37193e-05
3.83039e-06
3.10233e-05
2.76345e-06
2.55927e-05
1.778e-06
1.97019e-05
9.18785e-07
1.40411e-05
1.998e-07
8.66633e-06
-2.56376e-07
3.31325e-06
-4.52797e-07
-2.38229e-06
-6.49794e-06
3.10442e-06
1.05636e-05
9.02097e-06
2.78059e-05
1.22515e-05
2.78396e-05
1.3975e-05
2.40226e-05
1.50594e-05
1.88136e-05
1.5798e-05
1.34237e-05
1.63703e-05
8.13907e-06
1.68917e-05
2.84489e-06
1.69109e-05
-2.3463e-06
-5.37748e-06
3.37682e-06
7.21713e-06
1.08113e-05
2.03473e-05
1.64313e-05
2.22752e-05
2.0339e-05
2.0249e-05
2.29866e-05
1.62953e-05
2.48253e-05
1.16669e-05
2.60814e-05
6.95123e-06
2.67994e-05
2.22935e-06
2.66199e-05
-2.08193e-06
-4.19929e-06
2.90075e-06
4.29231e-06
1.02958e-05
1.29391e-05
1.70494e-05
1.56354e-05
2.24079e-05
1.50158e-05
2.62926e-05
1.24908e-05
2.89224e-05
9.09237e-06
3.05067e-05
5.43134e-06
3.10487e-05
1.73798e-06
3.04215e-05
-1.42236e-06
-2.79069e-06
2.23887e-06
2.02391e-06
8.59432e-06
6.65924e-06
1.53065e-05
9.10045e-06
2.10477e-05
9.35113e-06
2.54621e-05
8.10137e-06
2.85257e-05
6.04473e-06
3.03234e-05
3.65015e-06
3.08386e-05
1.17424e-06
3.01151e-05
-7.25382e-07
-1.49557e-06
1.68327e-06
3.52337e-07
6.42609e-06
2.06413e-06
1.19938e-05
3.64307e-06
1.71066e-05
4.22119e-06
2.12648e-05
3.9131e-06
2.42393e-05
3.02516e-06
2.59808e-05
1.84039e-06
2.64661e-05
5.94499e-07
2.58854e-05
-2.0636e-07
-5.74108e-07
1.04739e-06
-6.59545e-07
3.81852e-06
-5.98795e-07
7.52605e-06
-6.33116e-08
1.12275e-05
4.80014e-07
1.44116e-05
6.69377e-07
1.67746e-05
5.62159e-07
1.8172e-05
3.20956e-07
1.86081e-05
1.12074e-07
1.82386e-05
1.11658e-07
-1.70578e-07
-6.38118e-07
-1.24176e-06
-1.3389e-06
-8.93961e-07
-2.64413e-07
2.57451e-07
5.55702e-07
6.83521e-07
7.74626e-07
)
;

boundaryField
{
    right
    {
        type            cyclic;
        value           nonuniform List<scalar> 
20
(
0.000683963
0.000794049
0.000651679
0.000428985
0.000338806
0.000250188
0.000185486
0.000135166
9.52301e-05
6.44271e-05
4.3514e-05
2.2738e-05
1.41367e-06
-1.60303e-05
-2.5578e-05
-2.89475e-05
-2.87209e-05
-2.50995e-05
-1.81324e-05
-7.8474e-07
)
;
    }
    left
    {
        type            cyclic;
        value           nonuniform List<scalar> 
20
(
-0.000683963
-0.000794049
-0.000651679
-0.000428985
-0.000338806
-0.000250188
-0.000185486
-0.000135166
-9.52301e-05
-6.44271e-05
-4.3514e-05
-2.2738e-05
-1.41367e-06
1.60303e-05
2.5578e-05
2.89475e-05
2.87209e-05
2.50995e-05
1.81324e-05
7.8474e-07
)
;
    }
    outerWall
    {
        type            calculated;
        value           uniform 0;
    }
    stirrerWall
    {
        type            calculated;
        value           uniform 0;
    }
    top
    {
        type            empty;
        value           nonuniform List<scalar> 0();
    }
    bottom
    {
        type            empty;
        value           nonuniform List<scalar> 0();
    }
}


// ************************************************************************* //
