/*--------------------------------*- C++ -*----------------------------------*\
  =========                 |
  \\      /  F ield         | OpenFOAM: The Open Source CFD Toolbox
   \\    /   O peration     | Website:  https://openfoam.org
    \\  /    A nd           | Version:  10
     \\/     M anipulation  |
\*---------------------------------------------------------------------------*/
FoamFile
{
    format      ascii;
    class       volVectorField;
    location    "1100";
    object      U;
}
// * * * * * * * * * * * * * * * * * * * * * * * * * * * * * * * * * * * * * //

dimensions      [0 1 -1 0 0 0 0];

internalField   nonuniform List<vector> 
420
(
(0.812016 9.13125 9.37655e-18)
(-0.437225 11.778 -6.74081e-17)
(-0.2811 13.6 -3.34188e-16)
(-0.223729 15.1463 8.95917e-17)
(-0.107341 16.419 -5.95347e-16)
(0.0824859 17.4024 0)
(0.279258 17.8468 0)
(0.279422 17.6169 7.05206e-16)
(0.37535 17.0809 -7.47165e-16)
(0.358219 16.6466 0)
(0.22967 9.08881 3.41195e-17)
(-1.23913 11.6907 -1.57898e-16)
(-1.20883 13.4437 1.00419e-15)
(-1.25466 14.9074 -1.38625e-15)
(-1.1926 16.1413 4.23721e-16)
(-1.01783 17.0838 -7.38137e-20)
(-0.714233 17.5337 3.11404e-15)
(-0.509073 17.4221 -1.01512e-15)
(-0.425014 17.0286 1.37001e-15)
(-0.578801 16.6979 0)
(-0.37809 8.92865 6.06027e-17)
(-1.7894 11.4655 -7.00782e-16)
(-1.70876 13.2177 9.44387e-16)
(-1.6958 14.6538 1.49151e-15)
(-1.62507 15.8555 -9.64193e-16)
(-1.47839 16.765 4.17164e-15)
(-1.274 17.2281 1.76069e-15)
(-1.25907 17.2764 5.30626e-15)
(-1.38043 17.0321 -2.08625e-15)
(-1.64266 16.7905 -3.9952e-15)
(-1.03701 8.69539 2.78355e-18)
(-2.47179 11.0556 6.43726e-16)
(-2.37316 12.8032 -1.19021e-15)
(-2.345 14.2215 9.87422e-16)
(-2.30575 15.4302 -1.85552e-15)
(-2.23598 16.3414 1.68431e-15)
(-2.15766 16.9083 -1.00007e-14)
(-2.27909 17.1518 0)
(-2.51012 17.0351 -4.27725e-15)
(-2.85907 16.8777 3.65614e-15)
(-1.71185 8.39962 0)
(-3.24999 10.5053 4.776e-16)
(-3.20594 12.2201 -4.4666e-16)
(-3.21774 13.6198 0)
(-3.24085 14.8337 -2.3387e-16)
(-3.25719 15.805 -3.28019e-16)
(-3.29946 16.4652 3.37135e-15)
(-3.52512 16.9207 -4.24256e-15)
(-3.84687 16.9532 0)
(-4.29929 16.9001 -1.45576e-14)
(-2.39492 8.09544 -2.39398e-18)
(-4.08571 9.87881 0)
(-4.14649 11.5019 0)
(-4.24494 12.8624 1.6792e-15)
(-4.35703 14.071 -2.46208e-15)
(-4.46967 15.0865 2.7068e-15)
(-4.65137 15.8595 5.35283e-16)
(-4.99896 16.4784 8.97916e-15)
(-5.45142 16.7024 -1.07821e-14)
(-6.05 16.7855 7.07669e-15)
(-3.08982 7.81453 0)
(-4.96257 9.2226 -5.11025e-16)
(-5.15096 10.6935 -2.82734e-15)
(-5.37954 11.9767 -1.10477e-15)
(-5.61854 13.1492 -4.40009e-15)
(-5.87277 14.1833 2.79418e-15)
(-6.23237 15.0466 -6.34485e-15)
(-6.75894 15.7881 7.02754e-16)
(-7.40657 16.2252 -3.2017e-15)
(-8.15496 16.4716 -1.11244e-14)
(-3.8294 7.57747 -9.26739e-18)
(-5.84016 8.57949 5.29847e-16)
(-6.16799 9.85486 3.96512e-15)
(-6.56232 11.0227 6.38714e-16)
(-6.97883 12.1196 2.89647e-15)
(-7.4393 13.1307 0)
(-8.0336 14.0538 7.22194e-15)
(-8.79488 14.9255 8.03613e-15)
(-9.67898 15.6182 8.80486e-15)
(-10.4957 16.0155 9.36625e-15)
(-4.6511 7.34614 -1.45301e-17)
(-6.70122 8.00449 5.47783e-16)
(-7.19689 9.13296 -5.812e-16)
(-7.79387 10.2094 -2.4989e-15)
(-8.40215 11.2345 7.97481e-15)
(-9.04123 12.2069 1.06411e-14)
(-9.76626 13.1545 -3.70885e-15)
(-10.6171 14.102 0)
(-11.5491 14.9676 0)
(-12.3128 15.3438 -1.12644e-14)
(-5.51656 7.03347 -3.85594e-17)
(-6.92226 7.70779 7.67232e-16)
(-7.5083 8.64987 0)
(-8.29584 9.58202 0)
(-9.18079 10.5038 -3.6236e-15)
(-10.1511 11.4522 -4.18535e-17)
(-11.1829 12.4798 6.78888e-15)
(-12.1816 13.6399 -1.50589e-14)
(-12.9475 14.7393 1.71923e-14)
(-13.279 14.9993 1.21833e-15)
(0.260557 16.2854 0)
(0.131218 15.8872 0)
(0.0122219 15.3681 0)
(-0.0684345 14.8096 -9.52816e-16)
(-0.247186 14.1326 0)
(0.160165 13.0557 0)
(-0.38966 12.8089 9.59929e-16)
(-0.759197 8.21142 0)
(2.92947 8.1865 0)
(-5.22306 17.7266 0)
(-0.769668 16.4472 1.73847e-15)
(-0.982523 16.0883 2.90987e-15)
(-1.14185 15.5047 8.87018e-17)
(-1.20852 14.8641 1.01467e-15)
(-1.35018 14.1143 4.10359e-17)
(-0.913585 12.9764 1.23179e-15)
(-1.40823 12.7464 -7.78726e-17)
(-1.56368 8.12417 -1.42152e-18)
(2.10916 8.13834 -2.20689e-15)
(-6.80447 17.8341 -8.38024e-16)
(-1.90156 16.6075 1.58643e-15)
(-2.17556 16.2528 0)
(-2.33842 15.5911 -2.34704e-15)
(-2.37516 14.8792 -1.97271e-15)
(-2.47221 14.0698 6.04511e-15)
(-2.01256 12.8793 -1.2259e-15)
(-2.40524 12.5567 1.93191e-15)
(-2.32401 8.06357 0)
(1.35143 8.15406 2.44251e-15)
(-8.0144 17.3284 -5.28463e-17)
(-3.19817 16.7566 3.28924e-15)
(-3.52746 16.3731 8.45755e-15)
(-3.64564 15.6047 -9.17045e-15)
(-3.61681 14.8153 3.70112e-15)
(-3.64357 13.9434 -1.35619e-17)
(-3.1489 12.7128 0)
(-3.421 12.2928 -1.95255e-15)
(-3.06629 7.98633 -2.53758e-15)
(0.524927 8.1941 -2.45386e-15)
(-9.46377 16.6353 3.9424e-15)
(-4.73461 16.8295 3.034e-15)
(-5.06884 16.3647 -2.81179e-15)
(-5.05101 15.4804 9.29237e-15)
(-4.90896 14.6339 -3.78681e-15)
(-4.82529 13.7202 3.09663e-15)
(-4.27363 12.4661 -4.85288e-15)
(-4.40746 11.9491 3.89186e-15)
(-3.73471 7.90299 2.53439e-15)
(-0.343966 8.16973 0)
(-10.2797 15.7552 -8.01287e-15)
(-6.56007 16.7325 3.61479e-15)
(-6.76066 16.1164 -1.69389e-14)
(-6.49375 15.1522 -4.94047e-15)
(-6.21235 14.3017 1.15944e-14)
(-5.99724 13.38 9.59626e-15)
(-5.36137 12.123 8.93636e-17)
(-5.36483 11.5099 3.89092e-17)
(-4.36911 7.75424 -2.76552e-15)
(-1.17997 8.06718 -2.67376e-15)
(-11.1796 14.7631 8.66032e-15)
(-8.6088 16.3553 3.94673e-15)
(-8.44011 15.5221 6.14094e-15)
(-7.86997 14.5865 0)
(-7.47479 13.8057 -3.94568e-15)
(-7.12822 12.9113 -6.30538e-15)
(-6.39991 11.685 1.10278e-16)
(-6.28093 10.9713 -1.2301e-14)
(-4.96452 7.58729 -2.70496e-15)
(-1.98655 7.88275 5.31267e-15)
(-11.9375 13.6318 -4.40038e-15)
(-10.5409 15.6091 1.65662e-14)
(-9.85737 14.5759 -5.97455e-15)
(-9.08679 13.8312 0)
(-8.65103 13.1687 -1.65106e-16)
(-8.19097 12.3235 2.6156e-14)
(-7.38427 11.1572 -1.02696e-14)
(-7.1407 10.3319 -8.47065e-15)
(-5.54359 7.40137 5.64813e-15)
(-2.76389 7.642 -5.71175e-15)
(-12.6875 12.3768 0)
(-11.7097 14.4722 3.63048e-16)
(-10.9184 13.5038 -6.06148e-15)
(-10.1399 13.0271 0)
(-9.71081 12.4531 8.59175e-15)
(-9.16757 11.6519 -1.97242e-14)
(-8.30952 10.5566 1.04191e-14)
(-8.00564 9.60282 4.19652e-15)
(-6.06868 7.25506 0)
(-3.48746 7.31243 -2.69268e-16)
(-13.3329 11.0134 4.68574e-15)
(-11.8878 13.7258 4.24634e-16)
(-11.7306 12.6388 5.30439e-17)
(-11.0825 12.2576 0)
(-10.6215 11.6973 -1.66598e-14)
(-9.98757 10.9288 6.23251e-15)
(-9.0812 9.9046 -5.3449e-15)
(-8.58671 8.80908 4.2421e-15)
(-6.51934 7.00893 6.55131e-16)
(-4.00371 7.14779 3.4197e-16)
(-13.8087 9.63226 -4.80481e-15)
(-11.5675 14.2544 3.36212e-15)
(-12.3743 12.2219 -6.38837e-15)
(-11.8293 11.7621 0)
(-11.3139 11.1948 0)
(-10.6481 10.4434 0)
(-9.73424 9.47881 -2.72851e-15)
(-9.03167 8.28786 1.08082e-14)
(-6.72323 6.89834 0)
(-4.50461 7.10751 0)
(-13.9902 8.63588 0)
(-12.243 13.7551 -3.44044e-15)
(-13.0919 11.8857 -6.57773e-15)
(-12.4813 11.3019 0)
(-11.869 10.7167 4.51175e-15)
(-11.1379 9.98595 -3.39142e-15)
(-10.1934 9.04937 2.81368e-15)
(-9.35321 7.80175 4.53702e-15)
(-6.95779 6.40622 -2.00027e-16)
(-5.08651 6.82332 1.50477e-15)
(-14.2261 7.95797 0)
(-14.9229 11.3917 5.20043e-16)
(-14.1205 10.8791 -1.31739e-17)
(-13.3356 10.2957 0)
(-12.5789 9.77229 2.43993e-16)
(-11.7337 9.13529 7.33658e-15)
(-10.7361 8.27464 -5.27212e-15)
(-9.78561 6.97797 -1.31627e-14)
(-7.35477 5.73865 -7.3568e-15)
(-5.67163 6.19408 1.26108e-14)
(-14.5616 6.82062 4.87472e-15)
(-15.7925 9.95198 -1.54428e-14)
(-14.9047 9.59168 5.75571e-15)
(-14.0538 9.2548 0)
(-13.2403 8.88054 -8.8439e-15)
(-12.3501 8.36193 -7.18096e-15)
(-11.32 7.6178 1.11421e-14)
(-10.3232 6.27922 4.57305e-15)
(-7.66656 5.58934 0)
(-6.17241 5.71004 -6.15381e-15)
(-14.6933 5.28357 2.47769e-16)
(-16.0413 8.57424 -3.07299e-16)
(-15.2891 8.36387 5.66319e-15)
(-14.5021 8.18922 0)
(-13.7095 7.93987 1.72703e-14)
(-12.8263 7.53733 2.66298e-17)
(-11.7791 6.93476 -1.52387e-16)
(-10.7599 5.51925 9.51322e-15)
(-7.95494 5.07303 -7.02439e-15)
(-6.71799 5.33227 -6.60213e-15)
(-14.6886 3.8115 0)
(-16.1816 7.38356 -3.45404e-15)
(-15.5275 7.24991 1.21113e-14)
(-14.813 7.16804 1.06248e-14)
(-14.0687 7.01197 -1.2484e-14)
(-13.2243 6.71603 -2.13305e-14)
(-12.1847 6.27026 -3.18669e-16)
(-11.1784 4.83711 -4.63987e-15)
(-8.22722 4.60921 -3.69104e-15)
(-7.21993 5.00712 -6.32847e-15)
(-14.5479 2.38354 -4.42598e-15)
(-16.2818 6.28996 -1.10956e-14)
(-15.6814 6.20918 6.11798e-15)
(-15.0261 6.19219 -4.77328e-15)
(-14.3376 6.10555 -1.30394e-14)
(-13.548 5.89953 1.01142e-14)
(-12.532 5.61798 -3.17308e-16)
(-11.5723 4.18588 8.98532e-15)
(-8.48375 4.11685 3.99934e-15)
(-7.75508 4.76582 3.1421e-15)
(-14.3454 1.05256 -2.73249e-16)
(-16.3396 5.25145 3.31951e-15)
(-15.7763 5.21721 -3.12691e-15)
(-15.1645 5.24529 -1.78741e-16)
(-14.5249 5.21646 1.29733e-14)
(-13.7943 5.08645 -1.78333e-14)
(-12.8154 4.99413 5.54841e-15)
(-11.9417 3.58656 -4.63602e-15)
(-8.72026 3.62267 1.07779e-14)
(-8.07201 4.58366 0)
(-14.1837 -0.0857427 9.11427e-17)
(-16.3585 4.23245 3.76225e-15)
(-15.8152 4.24628 3.15979e-15)
(-15.23 4.3145 5.42153e-15)
(-14.6242 4.34208 -8.66888e-15)
(-13.941 4.28388 3.4843e-15)
(-12.998 4.42287 0)
(-12.2715 3.05838 -2.1568e-15)
(-8.82837 3.22685 -7.32847e-15)
(-8.54096 4.49157 -7.59826e-17)
(-14.2192 -0.876353 4.294e-15)
(-16.3451 3.23132 1.77864e-15)
(-15.808 3.31451 0)
(-15.2468 3.42797 2.72587e-15)
(-14.6622 3.51245 2.35306e-15)
(-13.996 3.52002 1.23682e-16)
(-13.0497 3.89508 -1.37874e-15)
(-12.4841 2.58604 2.1563e-15)
(-8.83987 3.09022 0)
(-8.77348 4.71853 3.00308e-15)
(-14.5747 -1.16627 3.65059e-15)
(-16.3054 2.334 1.9779e-15)
(-15.7521 2.45008 -3.37235e-15)
(-15.2137 2.56244 -1.34418e-16)
(-14.6507 2.63718 9.34549e-16)
(-13.9973 2.61023 -7.46747e-17)
(-13.0931 3.15232 1.29173e-15)
(-12.589 1.78167 -1.94763e-15)
(-8.48777 2.76691 -5.37726e-17)
(-9.12794 5.41236 2.27034e-15)
(-13.845 -2.23336 -2.62182e-15)
(-16.1738 1.3124 2.84016e-29)
(-15.6955 1.23781 0)
(-15.1628 1.16579 0)
(-14.619 1.11067 -9.81037e-16)
(-13.9858 0.928243 0)
(-12.9385 1.39255 0)
(-12.8791 0.52278 9.89113e-16)
(-8.13751 0.190919 0)
(-8.33421 4.44065 0)
(-18.9406 -4.43644 -1.01012e-29)
(-15.2474 12.7072 1.17555e-15)
(-16.5611 9.72988 -8.4859e-15)
(-16.6998 8.45731 8.12133e-15)
(-16.7461 7.27819 -1.12731e-14)
(-16.822 6.20592 7.78251e-15)
(-16.8761 5.17739 -1.6652e-14)
(-16.8912 4.15871 4.19565e-15)
(-16.868 3.16103 -4.59411e-15)
(-16.8395 2.231 0)
(-16.6442 1.32381 -5.94114e-16)
(-15.5002 12.0124 1.44707e-14)
(-16.5718 8.91528 0)
(-16.9427 8.02166 8.12328e-15)
(-17.0019 6.98072 -3.2109e-15)
(-17.1003 5.99772 -1.17479e-14)
(-17.193 5.03411 0)
(-17.2577 4.06421 -4.86286e-15)
(-17.2868 3.09911 -2.3673e-15)
(-17.3153 2.17295 1.51617e-15)
(-17.1676 1.28573 -7.36884e-16)
(-14.9491 11.1784 -1.18463e-14)
(-16.0847 8.23614 0)
(-16.758 7.49651 6.97742e-15)
(-16.9408 6.60508 8.86747e-16)
(-17.1102 5.73431 9.23725e-15)
(-17.2707 4.84585 -4.30055e-15)
(-17.4159 3.93642 0)
(-17.5455 3.0268 5.45382e-15)
(-17.6832 2.16763 -1.00203e-15)
(-17.7159 1.20972 8.02464e-16)
(-13.8488 10.3764 5.42835e-15)
(-15.2323 7.81533 -2.16263e-15)
(-16.2061 7.09513 5.2832e-15)
(-16.6238 6.30637 -5.31801e-15)
(-16.9403 5.54999 6.19482e-16)
(-17.2127 4.77074 3.32657e-15)
(-17.4509 3.96261 -1.00143e-14)
(-17.6548 3.14589 1.7036e-15)
(-17.8424 2.32558 3.07938e-15)
(-17.9221 1.31406 8.77374e-17)
(-12.6205 9.63277 -8.0489e-15)
(-14.0618 7.44843 5.88489e-15)
(-15.2676 6.71246 0)
(-15.9055 5.97064 2.18135e-15)
(-16.3487 5.27961 2.35743e-15)
(-16.7091 4.57209 -3.62787e-16)
(-16.9995 3.8251 1.60336e-15)
(-17.2237 3.05297 4.07819e-15)
(-17.4051 2.23137 2.86568e-17)
(-17.4676 1.17556 4.22932e-16)
(-11.3766 8.91085 -3.21361e-15)
(-12.6741 7.13575 4.08413e-15)
(-13.9829 6.39513 1.93399e-15)
(-14.774 5.67643 -3.03563e-15)
(-15.3555 5.01606 -1.97991e-15)
(-15.7954 4.34715 -2.13822e-16)
(-16.1264 3.63119 -3.61394e-15)
(-16.3505 2.87 1.13072e-15)
(-16.5001 2.03496 4.06087e-16)
(-16.5062 0.980543 -4.44225e-16)
(-10.1731 8.19084 0)
(-11.2159 6.82782 -1.37564e-15)
(-12.4831 6.12398 4.66933e-16)
(-13.3427 5.42547 -7.75979e-16)
(-13.997 4.7758 1.20216e-15)
(-14.4983 4.1164 0)
(-14.865 3.41339 8.49501e-16)
(-15.0996 2.66237 1.36583e-15)
(-15.2351 1.82408 -1.25505e-15)
(-15.2244 0.805203 -3.83093e-17)
(-9.01151 7.46678 0)
(-9.78551 6.48823 -2.70003e-16)
(-10.8733 5.861 2.3536e-15)
(-11.6916 5.20206 -1.73367e-15)
(-12.3515 4.56196 0)
(-12.87 3.90509 -3.36108e-16)
(-13.249 3.20879 -9.8484e-16)
(-13.4927 2.46823 7.81485e-16)
(-13.6226 1.62447 8.89492e-16)
(-13.6433 0.667722 -3.62475e-16)
(-7.89107 6.67634 -8.42043e-16)
(-8.4811 5.97718 2.85458e-16)
(-9.31692 5.39306 3.04942e-16)
(-10.0121 4.74741 -3.26496e-16)
(-10.6027 4.09369 0)
(-11.0773 3.41382 3.70238e-16)
(-11.4263 2.69618 5.41743e-16)
(-11.6496 1.93674 -6.03816e-16)
(-11.7665 1.12193 -1.43751e-16)
(-11.7786 0.296818 9.74215e-18)
(-6.39023 6.25758 -2.17478e-16)
(-6.59006 6.05262 3.64293e-17)
(-6.99154 5.61299 2.80588e-17)
(-7.41693 5.07231 0)
(-7.81824 4.521 -1.12965e-17)
(-8.17092 3.96133 0)
(-8.46463 3.38077 -3.88306e-17)
(-8.70186 2.7602 9.85701e-17)
(-8.90341 2.07607 3.4215e-17)
(-9.03276 1.45582 -9.25291e-18)
)
;

boundaryField
{
    right
    {
        type            cyclic;
    }
    left
    {
        type            cyclic;
    }
    outerWall
    {
        type            calculated;
        value           nonuniform List<vector> 
22
(
(-1.55201 41.8305 0)
(-4.64749 41.6006 0)
(-7.71741 41.1419 0)
(-10.7449 40.4569 0)
(-13.7132 39.5492 0)
(-16.6061 38.424 0)
(-19.4075 37.0874 0)
(-22.1022 35.5467 0)
(-24.6752 33.8104 0)
(-27.1124 31.8882 0)
(-28.9573 30.2506 0)
(-30.2506 28.9573 0)
(-31.8882 27.1124 0)
(-33.8104 24.6752 0)
(-35.5467 22.1022 0)
(-37.0874 19.4075 0)
(-38.424 16.6061 0)
(-39.5492 13.7132 0)
(-40.4569 10.7449 0)
(-41.1419 7.71741 0)
(-41.6006 4.64749 0)
(-41.8305 1.55201 0)
)
;
    }
    stirrerWall
    {
        type            calculated;
        value           nonuniform List<vector> 
42
(
(-0.310178 8.3662 0)
(-0.928834 8.32046 0)
(-1.54239 8.22894 0)
(-2.14746 8.09214 0)
(-2.74072 7.91082 0)
(-3.31888 7.68598 0)
(-3.87877 7.41885 0)
(-4.41729 7.11092 0)
(-4.93148 6.76387 0)
(-5.4185 6.37963 0)
(-6.07951 6.64185 0)
(-6.92878 7.56862 0)
(-7.77806 8.49539 0)
(-8.62734 9.42216 0)
(-9.47661 10.3489 0)
(-10.3259 11.2757 0)
(-11.1752 12.2025 0)
(-12.0244 13.1292 0)
(-12.8737 14.056 0)
(-13.723 14.9828 0)
(-14.4723 15.1215 0)
(-15.1215 14.4723 0)
(-14.9828 13.723 0)
(-14.056 12.8737 0)
(-13.1292 12.0244 0)
(-12.2025 11.1752 0)
(-11.2757 10.3259 0)
(-10.3489 9.47661 0)
(-9.42216 8.62734 0)
(-8.49539 7.77806 0)
(-7.56862 6.92878 0)
(-6.64185 6.07951 0)
(-6.37963 5.4185 0)
(-6.76387 4.93148 0)
(-7.11092 4.41729 0)
(-7.41885 3.87877 0)
(-7.68598 3.31888 0)
(-7.91082 2.74072 0)
(-8.09214 2.14746 0)
(-8.22894 1.54239 0)
(-8.32046 0.928834 0)
(-8.3662 0.310178 0)
)
;
    }
    top
    {
        type            empty;
    }
    bottom
    {
        type            empty;
    }
}


// ************************************************************************* //
