/*--------------------------------*- C++ -*----------------------------------*\
  =========                 |
  \\      /  F ield         | OpenFOAM: The Open Source CFD Toolbox
   \\    /   O peration     | Website:  https://openfoam.org
    \\  /    A nd           | Version:  10
     \\/     M anipulation  |
\*---------------------------------------------------------------------------*/
FoamFile
{
    format      ascii;
    class       volVectorField;
    location    "1100";
    object      Urel;
}
// * * * * * * * * * * * * * * * * * * * * * * * * * * * * * * * * * * * * * //

dimensions      [0 1 -1 0 0 0 0];

internalField   nonuniform List<vector> 
420
(
(1.14602 0.123001 9.37655e-18)
(-0.0567247 1.51666 -6.74081e-17)
(0.145916 2.08515 -3.34188e-16)
(0.249812 2.37767 8.95917e-17)
(0.412733 2.39646 -5.95347e-16)
(0.649098 2.12574 0)
(0.892413 1.31587 0)
(0.939123 -0.168328 7.05206e-16)
(1.0816 -1.95877 -7.47165e-16)
(1.11102 -3.64754 0)
(1.22985 0.129846 3.41195e-17)
(-0.099711 1.48559 -1.57898e-16)
(0.0698771 1.99201 1.00419e-15)
(0.163371 2.20883 -1.38625e-15)
(0.364772 2.1957 4.23721e-16)
(0.678899 1.89107 -7.38137e-20)
(1.12187 1.09362 3.11404e-15)
(1.46641 -0.265398 -1.01512e-15)
(1.68986 -1.90633 1.37001e-15)
(1.67547 -3.4846 0)
(1.28277 0.0682618 6.06027e-17)
(0.102685 1.37272 -7.00782e-16)
(0.414623 1.89214 9.44387e-16)
(0.658933 2.09514 1.49151e-15)
(0.961047 2.06357 -9.64193e-16)
(1.33914 1.73965 4.17164e-15)
(1.77496 0.969161 1.76069e-15)
(2.02135 -0.216115 5.30626e-15)
(2.13145 -1.69408 -2.08625e-15)
(2.1007 -3.16942 -3.9952e-15)
(1.2754 -0.0176802 2.78355e-18)
(0.162559 1.13063 6.43726e-16)
(0.583227 1.66593 -1.19021e-15)
(0.933489 1.87177 9.87422e-16)
(1.2949 1.86774 -1.85552e-15)
(1.68687 1.56602 1.68431e-15)
(2.08741 0.919947 -1.00007e-14)
(2.28823 -0.0496507 0)
(2.37948 -1.37947 -4.27725e-15)
(2.35281 -2.7501 3.65614e-15)
(1.23939 -0.118215 0)
(0.11213 0.80275 4.776e-16)
(0.567187 1.33246 -4.4666e-16)
(0.966492 1.54682 0)
(1.35455 1.57517 -2.3387e-16)
(1.74942 1.36074 -3.28019e-16)
(2.1184 0.8352 3.37135e-15)
(2.30402 0.104776 -4.24256e-15)
(2.39358 -1.04862 0)
(2.35249 -2.28777 -1.45576e-14)
(1.17891 -0.180298 -2.39398e-18)
(-0.0143145 0.452029 0)
(0.422635 0.923712 0)
(0.82203 1.13255 1.6792e-15)
(1.20786 1.18929 -2.46208e-15)
(1.59319 1.05284 2.7068e-15)
(1.90952 0.673756 5.35283e-16)
(2.05999 0.140456 8.97916e-15)
(2.10562 -0.787769 -1.07821e-14)
(2.00515 -1.85702 7.07669e-15)
(1.08692 -0.173589 0)
(-0.204293 0.123416 -5.11025e-16)
(0.189037 0.482924 -2.82734e-15)
(0.542307 0.654443 -1.10477e-15)
(0.885247 0.715093 -4.40009e-15)
(1.21303 0.637222 2.79418e-15)
(1.4355 0.388544 -6.34485e-15)
(1.49104 0.0178626 7.02754e-16)
(1.42556 -0.657272 -3.2017e-15)
(1.25935 -1.52314 -1.11244e-14)
(0.927249 -0.0791046 -9.26739e-18)
(-0.421187 -0.14206 5.29847e-16)
(-0.0864892 0.0680101 3.96512e-15)
(0.181851 0.170291 6.38714e-16)
(0.428123 0.201537 2.89647e-15)
(0.630515 0.146747 0)
(0.699135 0.0038902 7.22194e-15)
(0.600827 -0.19043 8.03613e-15)
(0.379739 -0.563807 8.80486e-15)
(0.226029 -1.23258 9.36625e-15)
(0.659269 0.0632185 -1.45301e-17)
(-0.651376 -0.291471 5.47783e-16)
(-0.407339 -0.176358 -5.812e-16)
(-0.264459 -0.113522 -2.4989e-15)
(-0.132746 -0.102119 7.97481e-15)
(-0.0317552 -0.143656 1.06411e-14)
(-0.016632 -0.209977 -3.70885e-15)
(-0.127285 -0.276464 0)
(-0.318993 -0.425009 0)
(-0.34242 -1.06294 -1.12644e-14)
(0.318276 0.164252 -3.85594e-17)
(-0.274838 -0.116983 7.67232e-16)
(-0.0480447 -0.130745 0)
(-0.0225809 -0.154646 0)
(-0.0943901 -0.189118 -3.6236e-15)
(-0.251416 -0.197028 -4.18535e-17)
(-0.469982 -0.125828 6.78888e-15)
(-0.655261 0.0777593 -1.50589e-14)
(-0.607733 0.220655 1.71923e-14)
(-0.1258 -0.475928 1.21833e-15)
(1.06016 -5.26987 0)
(0.980434 -7.00482 0)
(0.916364 -9.00403 0)
(0.89652 -11.2013 -9.52816e-16)
(0.7851 -13.6927 0)
(1.267 -16.7785 0)
(0.799715 -19.2496 9.59929e-16)
(0.521565 -26.3096 0)
(4.31141 -29.0611 0)
(-3.72909 -22.5398 0)
(1.62475 -4.98946 1.73847e-15)
(1.56045 -6.67788 2.90987e-15)
(1.5656 -8.7334 8.87018e-17)
(1.68103 -11.0038 1.01467e-15)
(1.741 -13.558 4.10359e-17)
(2.40083 -16.6938 1.23179e-15)
(2.15334 -19.1358 -7.78726e-17)
(2.27155 -26.2071 -1.42152e-18)
(6.24738 -28.9046 -2.20689e-15)
(-2.33078 -22.211 -8.38024e-16)
(2.07451 -4.59285 1.58643e-15)
(2.04718 -6.2623 0)
(2.15744 -8.37976 -2.34704e-15)
(2.4231 -10.7035 -1.97271e-15)
(2.66086 -13.2974 6.04511e-15)
(3.49121 -16.4638 -1.2259e-15)
(3.50895 -18.974 1.93191e-15)
(4.04461 -25.8892 0)
(8.22317 -28.4804 2.44251e-15)
(-0.585603 -22.2752 -5.28463e-17)
(2.33771 -4.09094 3.28924e-15)
(2.35187 -5.76731 8.45755e-15)
(2.61394 -7.96725 -9.17045e-15)
(3.06379 -10.3415 3.70112e-15)
(3.50318 -12.9683 -1.35619e-17)
(4.51396 -16.1418 0)
(4.81329 -18.713 -1.95255e-15)
(5.80068 -25.4012 -2.53758e-15)
(10.0924 -27.8304 -2.45386e-15)
(0.879267 -22.3089 3.9424e-15)
(2.33068 -3.55074 3.034e-15)
(2.43477 -5.27934 -2.81179e-15)
(2.9379 -7.56302 9.29237e-15)
(3.61726 -9.95891 -3.78681e-15)
(4.29585 -12.5879 3.09663e-15)
(5.50619 -15.7414 -4.85288e-15)
(6.10165 -18.3613 3.89186e-15)
(7.58185 -24.7356 2.53439e-15)
(11.8666 -27.0467 0)
(2.92068 -22.3153 -8.01287e-15)
(1.99583 -3.06845 3.61479e-15)
(2.32601 -4.91236 -1.69389e-14)
(3.18059 -7.23603 -4.94047e-15)
(4.11264 -9.59176 1.15944e-14)
(5.04815 -12.18 9.59626e-15)
(6.48164 -15.2822 8.93636e-17)
(7.36129 -17.9383 3.89092e-17)
(9.33478 -23.9559 -2.76552e-15)
(13.6065 -26.1474 -2.67376e-15)
(4.80546 -22.2242 8.66032e-15)
(1.39073 -2.75751 3.94673e-15)
(2.17972 -4.77585 6.14094e-15)
(3.43664 -7.02363 0)
(4.59223 -9.25719 -3.94568e-15)
(5.78071 -11.7601 -6.30538e-15)
(7.44117 -14.7673 1.10278e-16)
(8.59222 -17.4529 -1.2301e-14)
(11.0513 -23.0201 -2.70496e-15)
(15.2945 -25.1418 5.31267e-15)
(6.74432 -22.069 -4.40038e-15)
(0.847318 -2.71071 1.65662e-14)
(2.23728 -4.8797 -5.97455e-15)
(3.78997 -6.88198 0)
(5.0917 -8.93688 -1.65106e-16)
(6.51053 -11.3236 2.6156e-14)
(8.37878 -14.1969 -1.02696e-14)
(9.79768 -16.9119 -8.47065e-15)
(12.6961 -21.9348 5.64813e-15)
(16.9166 -24.0108 -5.71175e-15)
(8.58818 -21.8409 0)
(1.00478 -2.95383 3.63048e-16)
(2.5846 -5.00252 -6.06148e-15)
(4.23629 -6.67529 0)
(5.6321 -8.57358 8.59175e-15)
(7.24569 -10.841 -1.97242e-14)
(9.28883 -13.5597 1.04191e-14)
(10.9048 -16.3109 4.19652e-15)
(14.2945 -20.6486 0)
(18.4842 -22.7946 -2.69268e-16)
(10.4196 -21.5331 4.68574e-15)
(2.083 -2.71088 4.24634e-16)
(3.10662 -4.81665 5.30439e-17)
(4.71406 -6.32579 0)
(6.23728 -8.13493 -1.66598e-14)
(8.04723 -10.2862 6.23251e-15)
(10.2557 -12.8414 -5.3449e-15)
(12.1918 -15.6319 4.2421e-15)
(15.8553 -19.3088 6.55131e-16)
(20.1382 -21.2479 3.4197e-16)
(12.2899 -21.064 -4.80481e-15)
(3.34822 -1.33007 3.36212e-15)
(3.46719 -4.32949 -6.38837e-15)
(5.03721 -5.85991 0)
(6.68754 -7.61261 0)
(8.60991 -9.67648 0)
(10.9151 -12.0942 -2.72851e-15)
(13.158 -14.894 1.08082e-14)
(17.1719 -18.0648 0)
(21.2788 -19.8279 0)
(13.8839 -20.4831 0)
(3.34145 -1.16065 -3.44044e-15)
(3.45948 -3.95585 -6.57773e-15)
(5.14076 -5.56464 0)
(6.93842 -7.28473 4.51175e-15)
(8.98194 -9.27209 -3.39142e-15)
(11.3795 -11.5999 2.81368e-15)
(13.8286 -14.3879 4.53702e-15)
(18.0054 -17.4889 -2.00027e-16)
(21.8489 -18.9601 1.50477e-15)
(14.8929 -19.9162 0)
(1.51376 -2.57913 5.20043e-16)
(3.33493 -3.95821 -1.31739e-17)
(5.24779 -5.50086 0)
(7.25335 -7.08649 2.43993e-16)
(9.48128 -8.89951 7.33658e-15)
(12.0098 -11.0622 -5.27212e-15)
(14.6554 -13.8005 -1.31627e-14)
(18.963 -16.636 -7.3568e-15)
(22.724 -17.9479 1.26108e-14)
(16.1346 -19.278 4.87472e-15)
(1.63359 -2.76245 -1.54428e-14)
(3.60163 -3.91135 5.75571e-15)
(5.64863 -5.12138 0)
(7.78642 -6.46237 -8.8439e-15)
(10.1429 -8.05133 -7.18096e-15)
(12.7962 -9.98055 1.11421e-14)
(15.5905 -12.6312 4.57305e-15)
(20.2372 -14.7739 0)
(23.9346 -16.2616 -6.15381e-15)
(17.8532 -18.4689 2.47769e-16)
(2.27852 -2.814 -3.07299e-16)
(4.16649 -3.73077 5.66319e-15)
(6.21107 -4.68754 0)
(8.39609 -5.80285 1.72703e-14)
(10.8209 -7.16418 2.66298e-17)
(13.575 -8.82829 -1.52387e-16)
(16.4839 -11.4191 9.51322e-15)
(21.3813 -13.1667 -7.02439e-15)
(24.9348 -14.3482 -6.60213e-15)
(19.5292 -17.4642 0)
(2.93128 -2.61597 -3.45404e-15)
(4.77042 -3.36991 1.21113e-14)
(6.79714 -4.13857 1.06248e-14)
(8.99425 -5.05504 -1.2484e-14)
(11.4471 -6.1929 -2.13305e-14)
(14.2676 -7.57082 -3.18669e-16)
(17.2458 -10.036 -4.63987e-15)
(22.3801 -11.4066 -3.69104e-15)
(25.8046 -12.2739 -6.32847e-15)
(21.1528 -16.2982 -4.42598e-15)
(3.5191 -2.26594 -1.10956e-14)
(5.34738 -2.87749 6.11798e-15)
(7.36221 -3.48215 -4.77328e-15)
(9.55593 -4.21945 -1.30394e-14)
(12.012 -5.14587 1.01142e-14)
(14.8733 -6.22503 -3.17308e-16)
(17.8759 -8.54025 8.98532e-15)
(23.2264 -9.58704 3.99934e-15)
(26.4595 -10.0206 3.1421e-15)
(22.642 -14.9325 -2.73249e-16)
(4.04062 -1.81384 3.31951e-15)
(5.86773 -2.2864 -3.12691e-15)
(7.87893 -2.74362 -1.78741e-16)
(10.0679 -3.30976 1.29733e-14)
(12.5138 -4.03469 -1.78333e-14)
(15.3921 -4.78569 5.54841e-15)
(18.3686 -6.92254 -4.63602e-15)
(23.9183 -7.69389 1.07779e-14)
(27.1444 -7.6269 0)
(23.8868 -13.2861 9.11427e-17)
(4.48905 -1.30343 3.76225e-15)
(6.32526 -1.63305 3.15979e-15)
(8.34194 -1.94509 5.42153e-15)
(10.5327 -2.33853 -8.66888e-15)
(12.9707 -2.86287 3.4843e-15)
(15.8566 -3.23999 0)
(18.7343 -5.17591 -2.1568e-15)
(24.5591 -5.64013 -7.32847e-15)
(27.4836 -5.0759 -7.59826e-17)
(24.725 -11.2194 4.294e-15)
(4.85522 -0.744745 1.77864e-15)
(6.7071 -0.908235 0)
(8.72407 -1.0679 2.72587e-15)
(10.9205 -1.28581 2.35306e-15)
(13.3712 -1.61306 1.23682e-16)
(16.2934 -1.60869 -1.37874e-15)
(19.0466 -3.32816 2.1563e-15)
(25.1129 -3.2784 0)
(27.861 -2.15321 3.00308e-15)
(25.0289 -8.59507 3.65059e-15)
(5.1313 -0.0604173 1.9779e-15)
(7.014 -0.0928915 -3.37235e-15)
(9.02438 -0.145001 -1.34418e-16)
(11.2171 -0.252374 9.34549e-16)
(13.6751 -0.480944 -7.46747e-17)
(16.5771 -0.162089 1.29173e-15)
(19.2932 -1.77991 -1.94763e-15)
(25.8435 -1.06833 -5.37726e-17)
(27.915 1.27414 2.27034e-15)
(26.2001 -6.70704 -2.62182e-15)
(5.38147 0.512797 2.84016e-29)
(7.19656 0.388592 0)
(9.20936 0.261647 0)
(11.3919 0.145713 -9.81037e-16)
(13.8395 -0.104044 0)
(16.8957 0.285719 0)
(19.1793 -0.666595 9.89113e-16)
(26.3835 -1.08984 0)
(28.9134 3.05871 0)
(21.3257 -5.93041 -1.01012e-29)
(0.227802 -0.446065 1.17555e-15)
(-0.154379 -2.24047 -8.4859e-15)
(0.548263 -2.26444 8.12133e-15)
(1.24866 -2.13611 -1.12731e-14)
(1.82047 -1.84924 7.78251e-15)
(2.31173 -1.47439 -1.6652e-14)
(2.7366 -1.05317 4.19565e-15)
(3.09192 -0.582322 -4.59411e-15)
(3.34299 -0.023273 0)
(3.64993 0.571009 -5.94114e-16)
(-0.981596 -0.327378 1.44707e-14)
(-1.17925 -2.31479 0)
(-0.760768 -2.03705 8.12328e-15)
(-0.119481 -1.85141 -3.2109e-15)
(0.389871 -1.55933 -1.17479e-14)
(0.808866 -1.20634 0)
(1.15689 -0.825389 -4.86286e-15)
(1.43944 -0.412775 -2.3673e-15)
(1.61965 0.0580783 1.51617e-15)
(1.87203 0.579481 -7.36884e-16)
(-1.38699 -0.347951 -1.18463e-14)
(-1.70619 -2.25368 0)
(-1.64208 -1.89919 6.97742e-15)
(-1.17058 -1.6449 8.86747e-16)
(-0.772285 -1.32464 9.23725e-15)
(-0.454785 -0.983298 -4.30055e-15)
(-0.214492 -0.6309 0)
(-0.0530037 -0.253616 5.45382e-15)
(0.00431542 0.19214 -1.00203e-15)
(0.0693915 0.550016 8.02464e-16)
(-1.24316 -0.336551 5.42835e-15)
(-1.86785 -1.93429 -2.16263e-15)
(-2.15624 -1.63761 5.2832e-15)
(-1.96575 -1.3615 -5.31801e-15)
(-1.75455 -1.0109 6.19482e-16)
(-1.58265 -0.647126 3.32657e-15)
(-1.46249 -0.282462 -1.00143e-14)
(-1.39594 0.0969268 1.7036e-15)
(-1.40236 0.489478 3.07938e-15)
(-1.39121 0.700905 8.77374e-17)
(-0.971283 -0.266868 -8.0489e-15)
(-1.71125 -1.56105 5.88489e-15)
(-2.28362 -1.35735 0)
(-2.35949 -1.11516 2.18135e-15)
(-2.31505 -0.783256 2.35743e-15)
(-2.26487 -0.434522 -3.62787e-16)
(-2.22412 -0.0977441 1.60336e-15)
(-2.19834 0.235438 4.07819e-15)
(-2.21232 0.534634 2.86568e-17)
(-2.19094 0.608943 4.22932e-16)
(-0.683715 -0.175548 -3.21361e-15)
(-1.33746 -1.13365 4.08413e-15)
(-2.06475 -1.01182 1.93399e-15)
(-2.33998 -0.82736 -3.03563e-15)
(-2.47379 -0.548823 -1.97991e-15)
(-2.53682 -0.248241 -2.13822e-16)
(-2.56392 0.0305397 -3.61394e-15)
(-2.5586 0.283881 1.13072e-15)
(-2.55451 0.477589 4.06087e-16)
(-2.4836 0.460469 -4.44225e-16)
(-0.436432 -0.0824187 0)
(-0.892963 -0.701599 -1.37564e-15)
(-1.63066 -0.620195 4.66933e-16)
(-2.02048 -0.496377 -7.75979e-16)
(-2.26719 -0.291168 1.20216e-15)
(-2.4253 -0.0678329 0)
(-2.51519 0.134898 8.49501e-16)
(-2.54096 0.307641 1.36583e-15)
(-2.5366 0.406053 -1.25505e-15)
(-2.45582 0.331662 -3.83093e-17)
(-0.230893 0.00652482 0)
(-0.476191 -0.301314 -2.70003e-16)
(-1.0864 -0.220493 2.3536e-15)
(-1.48104 -0.137936 -1.73367e-15)
(-1.77329 -0.00716967 0)
(-1.98233 0.131957 -3.36108e-16)
(-2.1118 0.25241 -9.8484e-16)
(-2.1671 0.344848 7.81485e-16)
(-2.17092 0.345761 8.89492e-16)
(-2.12849 0.240706 -3.62475e-16)
(-0.066296 0.028918 -8.42043e-16)
(-0.185142 -0.0726585 2.85458e-16)
(-0.595374 -0.0259059 3.04942e-16)
(-0.912871 -0.0108627 -3.26496e-16)
(-1.17592 0.0222897 0)
(-1.37478 0.0517003 3.70238e-16)
(-1.50129 0.0618331 5.41743e-16)
(-1.55677 0.0446486 -6.03816e-16)
(-1.5614 -0.0174875 -1.43751e-16)
(-1.51726 -0.0836825 9.74215e-18)
(0.478994 0.422739 -2.17478e-16)
(0.692858 0.742249 3.64293e-17)
(0.665039 0.856345 2.80588e-17)
(0.571188 0.895578 0)
(0.457495 0.94717 -1.12965e-17)
(0.346907 1.01009 0)
(0.248438 1.06835 -3.88306e-17)
(0.158527 1.09934 9.85701e-17)
(0.0555536 1.07589 3.4215e-17)
(-0.0245112 1.12182 -9.25291e-18)
)
;

boundaryField
{
    right
    {
        type            cyclic;
    }
    left
    {
        type            cyclic;
    }
    outerWall
    {
        type            noSlip;
    }
    stirrerWall
    {
        type            noSlip;
    }
    top
    {
        type            empty;
    }
    bottom
    {
        type            empty;
    }
}


// ************************************************************************* //
