/*--------------------------------*- C++ -*----------------------------------*\
  =========                 |
  \\      /  F ield         | OpenFOAM: The Open Source CFD Toolbox
   \\    /   O peration     | Website:  https://openfoam.org
    \\  /    A nd           | Version:  10
     \\/     M anipulation  |
\*---------------------------------------------------------------------------*/
FoamFile
{
    format      ascii;
    class       surfaceScalarField;
    location    "37000";
    object      phi;
}
// * * * * * * * * * * * * * * * * * * * * * * * * * * * * * * * * * * * * * //

dimensions      [0 3 -1 0 0 0 0];

internalField   nonuniform List<scalar> 
35536
(
-5.27085e-09
-3.37701e-07
-1.98453e-08
-2.06616e-07
-2.47567e-08
-2.13992e-07
-1.99891e-08
-2.13295e-07
-6.03102e-09
-2.08432e-07
1.82766e-08
-2.01021e-07
5.53228e-08
-1.90131e-07
1.0871e-07
-1.73971e-07
1.83125e-07
-1.50249e-07
2.84879e-07
-1.16827e-07
4.24203e-07
-7.18461e-08
6.15755e-07
-1.29031e-08
8.74203e-07
6.4402e-08
1.20785e-06
1.66243e-07
1.6136e-06
2.96924e-07
2.07575e-06
4.57759e-07
2.56994e-06
6.45133e-07
3.06888e-06
8.51361e-07
3.54702e-06
1.06642e-06
3.98543e-06
1.28018e-06
4.37328e-06
1.48418e-06
4.70719e-06
1.67233e-06
4.98955e-06
1.84209e-06
5.22607e-06
1.99307e-06
5.42357e-06
2.12681e-06
5.5888e-06
2.24592e-06
5.72828e-06
2.35264e-06
5.84777e-06
2.44929e-06
5.95203e-06
2.53803e-06
6.04487e-06
2.62068e-06
6.12935e-06
2.6986e-06
6.20796e-06
2.77279e-06
6.2824e-06
2.84418e-06
6.35381e-06
2.91339e-06
6.423e-06
2.98077e-06
6.4905e-06
3.04655e-06
6.55666e-06
3.11079e-06
6.6217e-06
3.17351e-06
6.68577e-06
3.23462e-06
6.74895e-06
3.29402e-06
6.81127e-06
3.35154e-06
6.87275e-06
3.407e-06
6.93336e-06
3.4602e-06
6.99307e-06
3.5109e-06
7.05183e-06
3.55883e-06
7.10956e-06
3.60372e-06
7.16619e-06
3.64526e-06
7.22162e-06
3.68311e-06
7.27574e-06
3.71692e-06
7.32843e-06
3.7463e-06
7.37956e-06
3.77084e-06
7.42898e-06
3.79007e-06
7.47653e-06
3.80353e-06
7.52203e-06
3.81068e-06
7.56528e-06
3.81097e-06
7.60607e-06
3.80379e-06
7.64418e-06
3.78851e-06
7.67935e-06
3.76441e-06
7.71131e-06
3.73075e-06
7.73978e-06
3.68673e-06
7.76443e-06
3.63147e-06
7.78494e-06
3.56406e-06
7.80094e-06
3.48347e-06
7.81206e-06
3.38866e-06
7.81789e-06
3.27845e-06
7.81801e-06
3.15162e-06
7.81197e-06
3.00684e-06
7.79932e-06
2.84268e-06
7.77956e-06
2.65764e-06
7.75219e-06
2.45008e-06
7.7167e-06
2.21827e-06
7.67256e-06
1.9604e-06
7.6192e-06
1.67451e-06
7.55603e-06
1.35859e-06
7.48459e-06
9.87558e-07
7.40729e-06
6.03048e-07
7.32467e-06
2.48244e-07
7.23717e-06
-7.84087e-08
7.14529e-06
-3.79411e-07
7.04971e-06
-6.57038e-07
6.95095e-06
-9.12593e-07
6.84947e-06
-1.14723e-06
6.74565e-06
-1.36207e-06
6.63978e-06
-1.55823e-06
6.53205e-06
-1.73679e-06
6.42265e-06
-1.89886e-06
6.31197e-06
-2.04548e-06
6.20089e-06
-2.17748e-06
6.09079e-06
-2.29528e-06
5.98299e-06
-2.39877e-06
5.87752e-06
-2.48769e-06
5.77303e-06
-2.56271e-06
5.66818e-06
-2.62562e-06
5.56244e-06
-2.67851e-06
5.45587e-06
-2.72294e-06
5.34859e-06
-2.75979e-06
5.24077e-06
-2.78986e-06
5.13255e-06
-2.81385e-06
5.02412e-06
-2.83243e-06
-2.8462e-06
-4.86837e-09
-3.32832e-07
-1.77753e-08
-1.93709e-07
-2.68465e-08
-2.0492e-07
-3.00618e-08
-2.1008e-07
-2.74718e-08
-2.11021e-07
-1.83774e-08
-2.10115e-07
-1.32193e-09
-2.07186e-07
2.60025e-08
-2.01295e-07
6.67252e-08
-1.90972e-07
1.24455e-07
-1.74556e-07
2.03163e-07
-1.50554e-07
3.07758e-07
-1.17497e-07
4.46058e-07
-7.38985e-08
6.30008e-07
-1.77071e-08
8.72593e-07
5.43388e-08
1.18323e-06
1.4712e-07
1.56335e-06
2.65016e-07
2.0041e-06
4.10606e-07
2.48746e-06
5.83068e-07
2.99028e-06
7.77363e-07
3.48866e-06
9.85793e-07
3.96164e-06
1.19935e-06
4.39424e-06
1.40949e-06
4.7782e-06
1.60911e-06
5.11162e-06
1.79339e-06
5.39718e-06
1.96036e-06
5.64003e-06
2.10979e-06
5.84592e-06
2.2434e-06
6.02069e-06
2.36326e-06
6.17023e-06
2.47114e-06
6.29969e-06
2.56913e-06
6.41339e-06
2.65909e-06
6.51505e-06
2.74252e-06
6.60773e-06
2.82071e-06
6.69381e-06
2.8947e-06
6.77505e-06
2.96531e-06
6.85272e-06
3.03312e-06
6.9277e-06
3.09852e-06
7.00061e-06
3.16172e-06
7.07184e-06
3.22278e-06
7.14167e-06
3.28171e-06
7.21026e-06
3.33841e-06
7.2777e-06
3.39276e-06
7.34403e-06
3.44456e-06
7.40926e-06
3.4936e-06
7.47336e-06
3.53962e-06
7.53626e-06
3.58235e-06
7.5979e-06
3.62147e-06
7.65817e-06
3.65665e-06
7.71696e-06
3.68752e-06
7.77411e-06
3.71368e-06
7.82949e-06
3.73469e-06
7.88292e-06
3.7501e-06
7.9342e-06
3.7594e-06
7.98313e-06
3.76204e-06
8.02948e-06
3.75745e-06
8.07298e-06
3.745e-06
8.11337e-06
3.72402e-06
8.15035e-06
3.69377e-06
8.18361e-06
3.65348e-06
8.21278e-06
3.6023e-06
8.23751e-06
3.53933e-06
8.25739e-06
3.46359e-06
8.272e-06
3.37405e-06
8.2809e-06
3.26956e-06
8.2836e-06
3.14892e-06
8.2796e-06
3.01083e-06
8.26839e-06
2.85389e-06
8.24942e-06
2.67661e-06
8.22211e-06
2.47738e-06
8.1859e-06
2.25449e-06
8.14017e-06
2.00613e-06
8.0843e-06
1.73038e-06
8.01764e-06
1.42526e-06
7.9418e-06
1.0634e-06
7.85936e-06
6.85488e-07
7.77092e-06
3.36678e-07
7.67702e-06
1.54999e-08
7.57816e-06
-2.80559e-07
7.47498e-06
-5.53857e-07
7.36804e-06
-8.05649e-07
7.25785e-06
-1.03704e-06
7.14489e-06
-1.24911e-06
7.02956e-06
-1.4429e-06
6.91218e-06
-1.61941e-06
6.79296e-06
-1.77964e-06
6.67207e-06
-1.92459e-06
6.54981e-06
-2.05522e-06
6.42688e-06
-2.17235e-06
6.30453e-06
-2.27642e-06
6.18422e-06
-2.36738e-06
6.06647e-06
-2.44495e-06
5.95027e-06
-2.50942e-06
5.83406e-06
-2.5623e-06
5.71713e-06
-2.60601e-06
5.5996e-06
-2.64226e-06
5.48164e-06
-2.67191e-06
5.36346e-06
-2.69567e-06
5.24526e-06
-2.71423e-06
-2.7282e-06
-4.1276e-09
-3.28705e-07
-1.46407e-08
-1.83198e-07
-2.4469e-08
-1.95093e-07
-3.1591e-08
-2.02959e-07
-3.56351e-08
-2.06977e-07
-3.60686e-08
-2.09682e-07
-3.19997e-08
-2.11255e-07
-2.1987e-08
-2.11307e-07
-3.88369e-09
-2.09075e-07
2.50211e-08
-2.03462e-07
6.76961e-08
-1.93229e-07
1.27305e-07
-1.77107e-07
2.07187e-07
-1.5378e-07
3.11392e-07
-1.21912e-07
4.45928e-07
-8.01979e-08
6.19994e-07
-2.69458e-08
8.44867e-07
4.01425e-08
1.13077e-06
1.24704e-07
1.48272e-06
2.31114e-07
1.8974e-06
3.62683e-07
2.36273e-06
5.2047e-07
2.86034e-06
7.01745e-07
3.3688e-06
9.01033e-07
3.86698e-06
1.11093e-06
4.33714e-06
1.32323e-06
4.76697e-06
1.53053e-06
5.15002e-06
1.72674e-06
5.4855e-06
1.90792e-06
5.77624e-06
2.07253e-06
6.02684e-06
2.22055e-06
6.24212e-06
2.35385e-06
6.42721e-06
2.47399e-06
6.58736e-06
2.58238e-06
6.72717e-06
2.68089e-06
6.85074e-06
2.77112e-06
6.96164e-06
2.85442e-06
7.06284e-06
2.93192e-06
7.15673e-06
3.00463e-06
7.24513e-06
3.07332e-06
7.32939e-06
3.13852e-06
7.41045e-06
3.20065e-06
7.48895e-06
3.25991e-06
7.56535e-06
3.31636e-06
7.63996e-06
3.36996e-06
7.71295e-06
3.4206e-06
7.78444e-06
3.46814e-06
7.85445e-06
3.51234e-06
7.92297e-06
3.55295e-06
7.98996e-06
3.58967e-06
8.05532e-06
3.62216e-06
8.11893e-06
3.65006e-06
8.18066e-06
3.67296e-06
8.24033e-06
3.69043e-06
8.29776e-06
3.70197e-06
8.35272e-06
3.70708e-06
8.40497e-06
3.7052e-06
8.45425e-06
3.69573e-06
8.50026e-06
3.67801e-06
8.54269e-06
3.65135e-06
8.58118e-06
3.61499e-06
8.61536e-06
3.56812e-06
8.64482e-06
3.50986e-06
8.66914e-06
3.43928e-06
8.68784e-06
3.35535e-06
8.70043e-06
3.25697e-06
8.70637e-06
3.14298e-06
8.70512e-06
3.01208e-06
8.69608e-06
2.86293e-06
8.67864e-06
2.69405e-06
8.65217e-06
2.50385e-06
8.61601e-06
2.29065e-06
8.56947e-06
2.05266e-06
8.51185e-06
1.78799e-06
8.44244e-06
1.49468e-06
8.3629e-06
1.14294e-06
8.27599e-06
7.72391e-07
8.18243e-06
4.30242e-07
8.08272e-06
1.15208e-07
7.97745e-06
-1.75291e-07
7.86723e-06
-4.43635e-07
7.75264e-06
-6.91057e-07
7.63422e-06
-9.18622e-07
7.51248e-06
-1.12737e-06
7.38789e-06
-1.31831e-06
7.26087e-06
-1.49239e-06
7.13176e-06
-1.65054e-06
7.00084e-06
-1.79366e-06
6.86829e-06
-1.92267e-06
6.73438e-06
-2.03844e-06
6.59967e-06
-2.1417e-06
6.46521e-06
-2.23293e-06
6.33242e-06
-2.31216e-06
6.20216e-06
-2.37916e-06
6.07381e-06
-2.43395e-06
5.94577e-06
-2.47797e-06
5.81733e-06
-2.51382e-06
5.68867e-06
-2.54325e-06
5.56002e-06
-2.56703e-06
5.43163e-06
-2.58583e-06
-2.60028e-06
-3.91629e-09
-3.24789e-07
-1.33178e-08
-1.73795e-07
-2.3135e-08
-1.85275e-07
-3.17393e-08
-1.94353e-07
-3.88208e-08
-1.99895e-07
-4.40734e-08
-2.04429e-07
-4.70246e-08
-2.08304e-07
-4.69103e-08
-2.11422e-07
-4.25038e-08
-2.13482e-07
-3.202e-08
-2.13946e-07
-1.32404e-08
-2.12009e-07
1.63764e-08
-2.06724e-07
5.96144e-08
-1.97018e-07
1.19401e-07
-1.81699e-07
1.98727e-07
-1.59523e-07
3.01016e-07
-1.29235e-07
4.30793e-07
-8.96343e-08
5.94875e-07
-3.93781e-08
8.02732e-07
2.32564e-08
1.06454e-06
1.00876e-07
1.38752e-06
1.97492e-07
1.77276e-06
3.16503e-07
2.21374e-06
4.60048e-07
2.69705e-06
6.27627e-07
3.20459e-06
8.15691e-07
3.71658e-06
1.01854e-06
4.21422e-06
1.22911e-06
4.68233e-06
1.4398e-06
5.11067e-06
1.64419e-06
5.49419e-06
1.83702e-06
5.83307e-06
2.01497e-06
6.13015e-06
2.17692e-06
6.38928e-06
2.32325e-06
6.6145e-06
2.45567e-06
6.81037e-06
2.57526e-06
6.98153e-06
2.68326e-06
7.13216e-06
2.78129e-06
7.26609e-06
2.8707e-06
7.38672e-06
2.95269e-06
7.49691e-06
3.02834e-06
7.59901e-06
3.09855e-06
7.69493e-06
3.164e-06
7.78602e-06
3.22526e-06
7.87329e-06
3.28269e-06
7.95744e-06
3.33646e-06
8.03895e-06
3.38663e-06
8.11814e-06
3.43315e-06
8.1952e-06
3.47589e-06
8.27024e-06
3.51463e-06
8.34327e-06
3.54913e-06
8.41426e-06
3.57907e-06
8.48312e-06
3.6041e-06
8.54973e-06
3.62382e-06
8.61391e-06
3.63779e-06
8.67547e-06
3.64552e-06
8.73417e-06
3.6465e-06
8.78974e-06
3.64015e-06
8.84189e-06
3.62586e-06
8.89028e-06
3.60296e-06
8.93454e-06
3.57072e-06
8.97428e-06
3.52838e-06
9.00907e-06
3.47507e-06
9.03843e-06
3.40992e-06
9.06186e-06
3.33192e-06
9.07881e-06
3.24002e-06
9.08871e-06
3.13308e-06
9.09092e-06
3.00987e-06
9.08481e-06
2.86904e-06
9.06968e-06
2.70917e-06
9.04482e-06
2.52871e-06
9.00948e-06
2.326e-06
8.96288e-06
2.09926e-06
8.90425e-06
1.84663e-06
8.83276e-06
1.56616e-06
8.75014e-06
1.22556e-06
8.65934e-06
8.63192e-07
8.56124e-06
5.28343e-07
8.45641e-06
2.20028e-07
8.34533e-06
-6.42076e-08
8.22857e-06
-3.26873e-07
8.10675e-06
-5.6924e-07
7.98047e-06
-7.92336e-07
7.85025e-06
-9.97157e-07
7.7166e-06
-1.18466e-06
7.57999e-06
-1.35578e-06
7.44085e-06
-1.5114e-06
7.29957e-06
-1.65239e-06
7.15648e-06
-1.77958e-06
7.01184e-06
-1.8938e-06
6.86594e-06
-1.99581e-06
6.71927e-06
-2.08626e-06
6.57271e-06
-2.1656e-06
6.42749e-06
-2.23394e-06
6.28468e-06
-2.29114e-06
6.14391e-06
-2.33719e-06
6.00378e-06
-2.37369e-06
5.8638e-06
-2.40327e-06
5.72421e-06
-2.42744e-06
5.58526e-06
-2.44688e-06
5.44716e-06
-2.46218e-06
5.31014e-06
-2.4739e-06
5.1744e-06
-2.48252e-06
5.04018e-06
-2.48847e-06
-2.49213e-06
-3.72945e-09
-3.2106e-07
-1.2425e-08
-1.651e-07
-2.18031e-08
-1.75897e-07
-3.05499e-08
-1.85607e-07
-3.85344e-08
-1.91911e-07
-4.5638e-08
-1.97326e-07
-5.16502e-08
-2.02292e-07
-5.62211e-08
-2.06851e-07
-5.87867e-08
-2.10917e-07
-5.84457e-08
-2.14287e-07
-5.38474e-08
-2.16607e-07
-4.32308e-08
-2.1734e-07
-2.44931e-08
-2.15755e-07
4.81603e-09
-2.11008e-07
4.73882e-08
-2.02095e-07
1.06018e-07
-1.87864e-07
1.83503e-07
-1.6712e-07
2.82774e-07
-1.3865e-07
4.07334e-07
-1.01304e-07
5.62211e-07
-5.40008e-08
7.54899e-07
4.80424e-09
9.94439e-07
7.69633e-08
1.2892e-06
1.65283e-07
1.64359e-06
2.73244e-07
2.05565e-06
4.03625e-07
2.51677e-06
5.57423e-07
3.01307e-06
7.32809e-07
3.52704e-06
9.25828e-07
4.0405e-06
1.13074e-06
4.5367e-06
1.34082e-06
5.00267e-06
1.549e-06
5.42993e-06
1.74965e-06
5.81477e-06
1.93841e-06
6.15792e-06
2.11251e-06
6.46201e-06
2.27117e-06
6.73009e-06
2.41518e-06
6.9656e-06
2.54578e-06
7.17262e-06
2.66369e-06
7.35513e-06
2.77017e-06
7.51693e-06
2.86654e-06
7.66157e-06
2.95391e-06
7.79224e-06
3.03332e-06
7.91177e-06
3.10574e-06
8.02245e-06
3.172e-06
8.12613e-06
3.23278e-06
8.22419e-06
3.28857e-06
8.31767e-06
3.33968e-06
8.40729e-06
3.38626e-06
8.49357e-06
3.42836e-06
8.57682e-06
3.46588e-06
8.65725e-06
3.49865e-06
8.73493e-06
3.52642e-06
8.80987e-06
3.54888e-06
8.882e-06
3.56566e-06
8.95119e-06
3.57634e-06
9.01724e-06
3.58045e-06
9.07992e-06
3.57747e-06
9.13896e-06
3.56682e-06
9.19403e-06
3.54789e-06
9.24477e-06
3.51999e-06
9.29076e-06
3.48238e-06
9.33156e-06
3.43427e-06
9.36667e-06
3.37481e-06
9.39555e-06
3.30304e-06
9.4176e-06
3.21797e-06
9.4322e-06
3.11848e-06
9.43867e-06
3.0034e-06
9.43627e-06
2.87144e-06
9.42425e-06
2.72119e-06
9.4018e-06
2.55117e-06
9.36806e-06
2.35973e-06
9.32218e-06
2.14514e-06
9.26325e-06
1.90556e-06
9.19037e-06
1.63904e-06
9.10527e-06
1.31066e-06
9.01108e-06
9.57385e-07
8.9089e-06
6.30518e-07
8.79952e-06
3.29403e-07
8.68316e-06
5.21595e-08
8.56028e-06
-2.03996e-07
8.43158e-06
-4.40536e-07
8.29768e-06
-6.58442e-07
8.15918e-06
-8.58651e-07
8.01659e-06
-1.04208e-06
7.87043e-06
-1.20962e-06
7.72116e-06
-1.36213e-06
7.56923e-06
-1.50046e-06
7.41509e-06
-1.62544e-06
7.25913e-06
-1.73784e-06
7.10173e-06
-1.83841e-06
6.9433e-06
-1.92782e-06
6.78434e-06
-2.00663e-06
6.62562e-06
-2.07523e-06
6.46823e-06
-2.13375e-06
6.31316e-06
-2.18213e-06
6.16016e-06
-2.22069e-06
6.00828e-06
-2.25139e-06
5.85736e-06
-2.27652e-06
5.70758e-06
-2.29711e-06
5.55911e-06
-2.31371e-06
5.41211e-06
-2.3269e-06
5.26677e-06
-2.33718e-06
5.12329e-06
-2.34499e-06
-2.35073e-06
-3.54941e-09
-3.1751e-07
-1.15981e-08
-1.57051e-07
-2.01693e-08
-1.67326e-07
-2.82222e-08
-1.77554e-07
-3.58061e-08
-1.84328e-07
-4.29538e-08
-1.90178e-07
-4.96123e-08
-1.95633e-07
-5.56479e-08
-2.00816e-07
-6.08293e-08
-2.05735e-07
-6.47805e-08
-2.10335e-07
-6.68952e-08
-2.14493e-07
-6.62469e-08
-2.17988e-07
-6.15292e-08
-2.20473e-07
-5.1081e-08
-2.21456e-07
-3.28984e-08
-2.20278e-07
-4.60602e-09
-2.16157e-07
3.64146e-08
-2.0814e-07
9.28914e-08
-1.95126e-07
1.67516e-07
-1.75928e-07
2.62872e-07
-1.49357e-07
3.81939e-07
-1.14262e-07
5.28528e-07
-6.96262e-08
7.08086e-07
-1.42746e-08
9.28068e-07
5.32614e-08
1.1968e-06
1.34888e-07
1.52062e-06
2.33607e-07
1.90125e-06
3.52183e-07
2.33448e-06
4.92596e-07
2.81049e-06
6.5472e-07
3.31535e-06
8.3596e-07
3.83237e-06
1.03198e-06
4.34493e-06
1.2371e-06
4.83834e-06
1.445e-06
5.30158e-06
1.64927e-06
5.72774e-06
1.84501e-06
6.11433e-06
2.02859e-06
6.46235e-06
2.19776e-06
6.7739e-06
2.35213e-06
7.05128e-06
2.4928e-06
7.29744e-06
2.62038e-06
7.51592e-06
2.73542e-06
7.71012e-06
2.83912e-06
7.88339e-06
2.93247e-06
8.039e-06
3.01639e-06
8.17998e-06
3.09179e-06
8.30902e-06
3.15953e-06
8.42833e-06
3.22036e-06
8.53971e-06
3.27489e-06
8.64453e-06
3.32353e-06
8.74383e-06
3.36657e-06
8.83836e-06
3.40412e-06
8.92862e-06
3.43616e-06
9.01493e-06
3.46256e-06
9.09751e-06
3.48308e-06
9.17641e-06
3.49743e-06
9.25158e-06
3.50528e-06
9.32288e-06
3.50617e-06
9.39012e-06
3.49958e-06
9.45303e-06
3.48498e-06
9.51129e-06
3.46173e-06
9.56452e-06
3.42915e-06
9.61227e-06
3.38652e-06
9.65403e-06
3.33305e-06
9.68923e-06
3.26784e-06
9.71726e-06
3.18994e-06
9.73744e-06
3.0983e-06
9.74903e-06
2.99181e-06
9.75123e-06
2.86924e-06
9.74319e-06
2.72924e-06
9.72401e-06
2.57035e-06
9.69272e-06
2.39101e-06
9.64836e-06
2.1895e-06
9.58991e-06
1.96401e-06
9.51635e-06
1.71261e-06
9.42938e-06
1.39763e-06
9.3323e-06
1.05447e-06
9.22639e-06
7.36424e-07
9.11267e-06
4.43122e-07
8.99133e-06
1.73506e-07
8.86271e-06
-7.53746e-08
8.72745e-06
-3.05276e-07
8.5862e-06
-5.17199e-07
8.43959e-06
-7.12034e-07
8.28816e-06
-8.90653e-07
8.13245e-06
-1.0539e-06
7.97295e-06
-1.20263e-06
7.81015e-06
-1.33766e-06
7.64454e-06
-1.45982e-06
7.47662e-06
-1.56992e-06
7.30694e-06
-1.66874e-06
7.13609e-06
-1.75697e-06
6.96468e-06
-1.83522e-06
6.79335e-06
-1.9039e-06
6.62288e-06
-1.96328e-06
6.4542e-06
-2.01345e-06
6.28797e-06
-2.05445e-06
6.12388e-06
-2.0873e-06
5.96153e-06
-2.11417e-06
5.80087e-06
-2.13644e-06
5.64193e-06
-2.15477e-06
5.48481e-06
-2.16979e-06
5.32969e-06
-2.18205e-06
5.17674e-06
-2.19205e-06
-2.20019e-06
-3.29065e-09
-3.14219e-07
-1.05364e-08
-1.49805e-07
-1.78966e-08
-1.59965e-07
-2.46519e-08
-1.70798e-07
-3.1001e-08
-1.77978e-07
-3.70875e-08
-1.84092e-07
-4.29535e-08
-1.89767e-07
-4.85756e-08
-1.95193e-07
-5.38758e-08
-2.00435e-07
-5.87139e-08
-2.05497e-07
-6.28609e-08
-2.10345e-07
-6.59439e-08
-2.14905e-07
-6.73704e-08
-2.19047e-07
-6.62721e-08
-2.22554e-07
-6.14444e-08
-2.25106e-07
-5.13374e-08
-2.26264e-07
-3.40404e-08
-2.25437e-07
-7.28452e-09
-2.21882e-07
3.15002e-08
-2.14713e-07
8.50306e-08
-2.02887e-07
1.5602e-07
-1.85251e-07
2.46986e-07
-1.60592e-07
3.60461e-07
-1.2775e-07
4.99427e-07
-8.57044e-08
6.67863e-07
-3.35475e-08
8.71419e-07
3.00512e-08
1.11713e-06
1.06475e-07
1.41218e-06
1.97538e-07
1.76088e-06
3.06029e-07
2.16265e-06
4.34182e-07
2.61166e-06
5.8297e-07
3.09754e-06
7.51221e-07
3.60657e-06
9.35962e-07
4.12316e-06
1.13268e-06
4.63231e-06
1.33587e-06
5.12136e-06
1.53953e-06
5.581e-06
1.73813e-06
6.00566e-06
1.92748e-06
6.39406e-06
2.1044e-06
6.74718e-06
2.26726e-06
7.06638e-06
2.41623e-06
7.35326e-06
2.55223e-06
7.61038e-06
2.67536e-06
7.84049e-06
2.78628e-06
8.04648e-06
2.8858e-06
8.23134e-06
2.97468e-06
8.39804e-06
3.05366e-06
8.54939e-06
3.12354e-06
8.68787e-06
3.18505e-06
8.81559e-06
3.23885e-06
8.93427e-06
3.28544e-06
9.04525e-06
3.32518e-06
9.14956e-06
3.35825e-06
9.24803e-06
3.38462e-06
9.34107e-06
3.40439e-06
9.42896e-06
3.41738e-06
9.51189e-06
3.42324e-06
9.58988e-06
3.4216e-06
9.66281e-06
3.41205e-06
9.73047e-06
3.39406e-06
9.7926e-06
3.36703e-06
9.8488e-06
3.33032e-06
9.89858e-06
3.28327e-06
9.94138e-06
3.22505e-06
9.97657e-06
3.15474e-06
1.00035e-05
3.0714e-06
1.00213e-05
2.974e-06
1.00292e-05
2.86137e-06
1.00261e-05
2.73225e-06
1.00112e-05
2.58525e-06
9.98339e-06
2.41886e-06
9.94148e-06
2.23141e-06
9.88437e-06
2.02113e-06
9.81089e-06
1.78609e-06
9.72267e-06
1.48584e-06
9.6231e-06
1.15403e-06
9.51366e-06
8.45862e-07
9.39567e-06
5.61117e-07
9.26963e-06
2.99543e-07
9.13561e-06
5.86516e-08
8.99407e-06
-1.63737e-07
8.84567e-06
-3.68803e-07
8.69106e-06
-5.57425e-07
8.53083e-06
-7.30419e-07
8.36551e-06
-8.88589e-07
8.19564e-06
-1.03275e-06
8.02172e-06
-1.16374e-06
7.8443e-06
-1.28241e-06
7.66399e-06
-1.38961e-06
7.48147e-06
-1.48622e-06
7.29757e-06
-1.57307e-06
7.11321e-06
-1.65086e-06
6.9293e-06
-1.71999e-06
6.74666e-06
-1.78064e-06
6.56595e-06
-1.83274e-06
6.3877e-06
-1.8762e-06
6.21198e-06
-1.91158e-06
6.03843e-06
-1.94062e-06
5.86684e-06
-1.96485e-06
5.69718e-06
-1.98512e-06
5.52957e-06
-2.00217e-06
5.36418e-06
-2.01666e-06
5.20127e-06
-2.02913e-06
5.0411e-06
-2.04002e-06
-2.04964e-06
-2.98082e-09
-3.11239e-07
-9.24951e-09
-1.43537e-07
-1.51e-08
-1.54116e-07
-2.0204e-08
-1.65695e-07
-2.48623e-08
-1.7332e-07
-2.92857e-08
-1.79668e-07
-3.35707e-08
-1.85482e-07
-3.77527e-08
-1.91011e-07
-4.18266e-08
-1.96361e-07
-4.5753e-08
-2.01571e-07
-4.94546e-08
-2.06644e-07
-5.28055e-08
-2.11554e-07
-5.55953e-08
-2.16257e-07
-5.74752e-08
-2.20675e-07
-5.79005e-08
-2.2468e-07
-5.60925e-08
-2.28071e-07
-5.09758e-08
-2.30554e-07
-4.11223e-08
-2.31735e-07
-2.47205e-08
-2.31114e-07
3.92978e-10
-2.28e-07
3.66948e-08
-2.21553e-07
8.68951e-08
-2.10792e-07
1.53762e-07
-1.94617e-07
2.39879e-07
-1.71821e-07
3.47544e-07
-1.41213e-07
4.79296e-07
-1.017e-07
6.38165e-07
-5.23937e-08
8.28147e-07
7.5568e-09
1.05471e-06
7.94618e-08
1.32426e-06
1.64632e-07
1.64243e-06
2.64807e-07
2.01149e-06
3.82159e-07
2.42915e-06
5.18296e-07
2.88854e-06
6.733e-07
3.37917e-06
8.45238e-07
3.88785e-06
1.03085e-06
4.40029e-06
1.22569e-06
4.90323e-06
1.42454e-06
5.38592e-06
1.6217e-06
5.84066e-06
1.81252e-06
6.26337e-06
1.99352e-06
6.65362e-06
2.16199e-06
7.01188e-06
2.31709e-06
7.33862e-06
2.45954e-06
7.63507e-06
2.58936e-06
7.90306e-06
2.70668e-06
8.1447e-06
2.81202e-06
8.36237e-06
2.90587e-06
8.55866e-06
2.98876e-06
8.73624e-06
3.06128e-06
8.89762e-06
3.12406e-06
9.04512e-06
3.17768e-06
9.18073e-06
3.22264e-06
9.3059e-06
3.25945e-06
9.42191e-06
3.28838e-06
9.52995e-06
3.30934e-06
9.6307e-06
3.32249e-06
9.72458e-06
3.32772e-06
9.81184e-06
3.32479e-06
9.89253e-06
3.31338e-06
9.96669e-06
3.29286e-06
1.00341e-05
3.2629e-06
1.00943e-05
3.22305e-06
1.01468e-05
3.17255e-06
1.01911e-05
3.11047e-06
1.02265e-05
3.03601e-06
1.02522e-05
2.94831e-06
1.02672e-05
2.84631e-06
1.02707e-05
2.7288e-06
1.02614e-05
2.59452e-06
1.02383e-05
2.44201e-06
1.02e-05
2.26968e-06
1.01453e-05
2.0758e-06
1.00729e-05
1.85853e-06
9.98416e-06
1.57459e-06
9.88251e-06
1.25568e-06
9.76959e-06
9.58781e-07
9.64714e-06
6.83568e-07
9.51642e-06
4.30265e-07
9.37722e-06
1.97852e-07
9.2296e-06
-1.61221e-08
9.07419e-06
-2.13391e-07
8.91164e-06
-3.94876e-07
8.74259e-06
-5.61363e-07
8.5676e-06
-7.13607e-07
8.38724e-06
-8.52391e-07
8.20208e-06
-9.78576e-07
8.01278e-06
-1.0931e-06
7.82012e-06
-1.19696e-06
7.625e-06
-1.2911e-06
7.4284e-06
-1.37647e-06
7.23144e-06
-1.4539e-06
7.0353e-06
-1.52385e-06
6.84099e-06
-1.58633e-06
6.64918e-06
-1.64093e-06
6.46009e-06
-1.6871e-06
6.27341e-06
-1.7249e-06
6.08862e-06
-1.75584e-06
5.90561e-06
-1.78184e-06
5.72451e-06
-1.80402e-06
5.54558e-06
-1.82324e-06
5.36914e-06
-1.84022e-06
5.19554e-06
-1.85553e-06
5.02514e-06
-1.86962e-06
4.8583e-06
-1.8828e-06
4.69533e-06
-1.89527e-06
-1.90711e-06
-2.65944e-09
-3.08579e-07
-7.79076e-09
-1.38405e-07
-1.19838e-08
-1.49923e-07
-1.53243e-08
-1.62354e-07
-1.81668e-08
-1.70477e-07
-2.07433e-08
-1.77092e-07
-2.31674e-08
-1.83058e-07
-2.54946e-08
-1.88684e-07
-2.77515e-08
-1.94104e-07
-2.99449e-08
-1.99378e-07
-3.20634e-08
-2.04526e-07
-3.40686e-08
-2.09549e-07
-3.58938e-08
-2.14432e-07
-3.74273e-08
-2.19141e-07
-3.84816e-08
-2.23626e-07
-3.87443e-08
-2.27809e-07
-3.77314e-08
-2.31566e-07
-3.47541e-08
-2.34712e-07
-2.88862e-08
-2.36982e-07
-1.88637e-08
-2.38023e-07
-3.03313e-09
-2.37384e-07
2.06624e-08
-2.34488e-07
5.46074e-08
-2.28562e-07
1.01481e-07
-2.18694e-07
1.64082e-07
-2.03813e-07
2.45124e-07
-1.82742e-07
3.47015e-07
-1.54284e-07
4.71874e-07
-1.17302e-07
6.2215e-07
-7.08138e-08
8.00853e-07
-1.40721e-08
1.01183e-06
5.38308e-08
1.25993e-06
1.34054e-07
1.55062e-06
2.27609e-07
1.88794e-06
3.35983e-07
2.27243e-06
4.6074e-07
2.70048e-06
6.0281e-07
3.16463e-06
7.61532e-07
3.65471e-06
9.34459e-07
4.15833e-06
1.11808e-06
4.66267e-06
1.30818e-06
5.15635e-06
1.49984e-06
5.6304e-06
1.68794e-06
6.07876e-06
1.86873e-06
6.49922e-06
2.03908e-06
6.89121e-06
2.19737e-06
7.25423e-06
2.34366e-06
7.58823e-06
2.47803e-06
7.8938e-06
2.60029e-06
8.17201e-06
2.71055e-06
8.42437e-06
2.80892e-06
8.65284e-06
2.89558e-06
8.85966e-06
2.97086e-06
9.04713e-06
3.03518e-06
9.21753e-06
3.08904e-06
9.37301e-06
3.1329e-06
9.51521e-06
3.16714e-06
9.64563e-06
3.19207e-06
9.76543e-06
3.20791e-06
9.87549e-06
3.21473e-06
9.97636e-06
3.21251e-06
1.00689e-05
3.20029e-06
1.01528e-05
3.179e-06
1.02278e-05
3.14811e-06
1.02937e-05
3.10665e-06
1.03503e-05
3.05379e-06
1.03973e-05
2.98909e-06
1.04335e-05
2.91203e-06
1.04583e-05
2.82159e-06
1.04704e-05
2.71664e-06
1.04688e-05
2.59609e-06
1.04523e-05
2.45858e-06
1.04194e-05
2.30256e-06
1.03688e-05
2.12644e-06
1.02988e-05
1.9285e-06
1.02107e-05
1.6627e-06
1.01078e-05
1.3586e-06
9.99169e-06
1.07485e-06
9.86438e-06
8.10876e-07
9.72786e-06
5.66787e-07
9.5829e-06
3.42814e-07
9.42931e-06
1.37465e-07
9.26713e-06
-5.12147e-08
9.0968e-06
-2.24549e-07
8.91909e-06
-3.83645e-07
8.7347e-06
-5.29217e-07
8.54427e-06
-6.61961e-07
8.34847e-06
-7.82778e-07
8.14819e-06
-8.92828e-07
7.94461e-06
-9.93377e-07
7.73878e-06
-1.08526e-06
7.53155e-06
-1.16924e-06
7.3237e-06
-1.24605e-06
7.11605e-06
-1.31621e-06
6.90954e-06
-1.37982e-06
6.70515e-06
-1.43655e-06
6.50358e-06
-1.48553e-06
6.30467e-06
-1.52599e-06
6.10762e-06
-1.55879e-06
5.91213e-06
-1.58635e-06
5.71862e-06
-1.61051e-06
5.52757e-06
-1.63219e-06
5.33947e-06
-1.65212e-06
5.15479e-06
-1.67085e-06
4.97397e-06
-1.6888e-06
4.7974e-06
-1.70623e-06
4.62543e-06
-1.72329e-06
4.45833e-06
-1.74002e-06
-1.75636e-06
-2.35521e-09
-3.06224e-07
-6.29024e-09
-1.3447e-07
-8.80888e-09
-1.47403e-07
-1.04444e-08
-1.60718e-07
-1.15679e-08
-1.69354e-07
-1.23976e-08
-1.76262e-07
-1.3039e-08
-1.82417e-07
-1.35459e-08
-1.88177e-07
-1.39478e-08
-1.93702e-07
-1.42608e-08
-1.99065e-07
-1.44918e-08
-2.04295e-07
-1.46349e-08
-2.09406e-07
-1.46732e-08
-2.14393e-07
-1.45742e-08
-2.1924e-07
-1.42814e-08
-2.23919e-07
-1.36988e-08
-2.28391e-07
-1.26625e-08
-2.32603e-07
-1.09e-08
-2.36475e-07
-7.99205e-09
-2.3989e-07
-3.34073e-09
-2.42675e-07
3.86794e-09
-2.44592e-07
1.47143e-08
-2.45334e-07
3.065e-08
-2.44498e-07
5.35291e-08
-2.41573e-07
8.56166e-08
-2.359e-07
1.29521e-07
-2.26646e-07
1.88049e-07
-2.12813e-07
2.64013e-07
-1.93267e-07
3.60007e-07
-1.66808e-07
4.78201e-07
-1.32266e-07
6.2061e-07
-8.85777e-08
7.89582e-07
-3.49175e-08
9.87898e-07
2.92925e-08
1.21893e-06
1.04947e-07
1.48663e-06
1.93048e-07
1.79521e-06
2.9423e-07
2.14724e-06
4.09499e-07
2.54192e-06
5.39775e-07
2.9747e-06
6.85307e-07
3.43794e-06
8.44937e-07
3.92192e-06
1.01586e-06
4.4155e-06
1.19437e-06
4.90757e-06
1.37665e-06
5.3887e-06
1.55795e-06
5.85181e-06
1.73425e-06
6.29316e-06
1.90232e-06
6.71107e-06
2.06012e-06
7.10405e-06
2.20731e-06
7.47079e-06
2.34381e-06
7.81054e-06
2.46917e-06
8.1233e-06
2.58282e-06
8.40973e-06
2.68443e-06
8.67102e-06
2.77389e-06
8.90879e-06
2.85127e-06
9.12488e-06
2.91681e-06
9.3212e-06
2.97082e-06
9.49963e-06
3.01365e-06
9.66191e-06
3.04563e-06
9.80962e-06
3.06702e-06
9.94422e-06
3.07791e-06
1.00656e-05
3.07893e-06
1.01742e-05
3.07041e-06
1.02717e-05
3.05059e-06
1.03581e-05
3.02027e-06
1.04338e-05
2.97807e-06
1.04978e-05
2.92506e-06
1.05492e-05
2.86067e-06
1.05875e-05
2.78326e-06
1.0612e-05
2.69218e-06
1.06213e-05
2.58674e-06
1.06143e-05
2.46565e-06
1.05895e-05
2.32736e-06
1.05454e-05
2.17051e-06
1.04802e-05
1.99368e-06
1.03948e-05
1.74817e-06
1.02922e-05
1.46115e-06
1.01742e-05
1.19287e-06
1.00424e-05
9.42622e-07
9.89916e-06
7.10065e-07
9.74662e-06
4.95347e-07
9.58574e-06
2.98352e-07
9.41638e-06
1.18136e-07
9.23876e-06
-4.69234e-08
9.05347e-06
-1.98352e-07
8.86119e-06
-3.36944e-07
8.66264e-06
-4.63403e-07
8.45866e-06
-5.78803e-07
8.25032e-06
-6.84483e-07
8.03862e-06
-7.81679e-07
7.82443e-06
-8.71071e-07
7.60825e-06
-9.53066e-07
7.39028e-06
-1.02808e-06
7.17073e-06
-1.09665e-06
6.95017e-06
-1.15927e-06
6.72974e-06
-1.21611e-06
6.51112e-06
-1.26691e-06
6.29599e-06
-1.31086e-06
6.08466e-06
-1.34746e-06
5.87613e-06
-1.37783e-06
5.67013e-06
-1.4045e-06
5.4672e-06
-1.42926e-06
5.26792e-06
-1.45284e-06
5.07282e-06
-1.47575e-06
4.88236e-06
-1.49835e-06
4.69696e-06
-1.52083e-06
4.51694e-06
-1.54328e-06
4.34256e-06
-1.56564e-06
4.17402e-06
-1.58781e-06
4.01143e-06
-1.60963e-06
-1.6309e-06
-2.08611e-09
-3.04138e-07
-4.88496e-09
-1.31671e-07
-5.80997e-09
-1.46478e-07
-5.93944e-09
-1.60589e-07
-5.57578e-09
-1.69718e-07
-4.90692e-09
-1.76931e-07
-4.0212e-09
-1.83303e-07
-2.9625e-09
-1.89236e-07
-1.75155e-09
-1.94913e-07
-3.96756e-10
-2.00419e-07
1.10066e-09
-2.05792e-07
2.73955e-09
-2.11045e-07
4.52419e-09
-2.16178e-07
6.46461e-09
-2.2118e-07
8.57882e-09
-2.26033e-07
1.08971e-08
-2.3071e-07
1.34699e-08
-2.35176e-07
1.63816e-08
-2.39387e-07
1.9776e-08
-2.43285e-07
2.38915e-08
-2.4679e-07
2.90902e-08
-2.49791e-07
3.58827e-08
-2.52127e-07
4.49662e-08
-2.53581e-07
5.7274e-08
-2.53881e-07
7.40487e-08
-2.52675e-07
9.69223e-08
-2.4952e-07
1.27955e-07
-2.43846e-07
1.69607e-07
-2.34918e-07
2.24631e-07
-2.21832e-07
2.95895e-07
-2.0353e-07
3.86166e-07
-1.78848e-07
4.97861e-07
-1.46613e-07
6.32877e-07
-1.05723e-07
7.93061e-07
-5.5237e-08
9.80583e-07
5.5257e-09
1.19786e-06
7.69483e-08
1.44759e-06
1.59776e-07
1.73254e-06
2.54824e-07
2.05539e-06
3.62452e-07
2.4174e-06
4.82929e-07
2.81684e-06
6.16414e-07
3.2487e-06
7.62508e-07
3.70544e-06
9.19918e-07
4.17773e-06
1.08566e-06
4.65597e-06
1.25601e-06
5.13141e-06
1.42689e-06
5.59695e-06
1.59457e-06
6.0481e-06
1.75616e-06
6.48185e-06
1.91006e-06
6.89541e-06
2.05562e-06
7.28654e-06
2.19169e-06
7.65371e-06
2.31726e-06
7.99602e-06
2.43157e-06
8.3132e-06
2.5341e-06
8.6055e-06
2.62451e-06
8.87367e-06
2.70265e-06
9.11879e-06
2.76854e-06
9.34214e-06
2.82228e-06
9.54508e-06
2.86407e-06
9.72887e-06
2.89412e-06
9.89502e-06
2.91278e-06
1.00453e-05
2.92013e-06
1.01803e-05
2.91555e-06
1.03011e-05
2.89953e-06
1.0406e-05
2.87311e-06
1.04944e-05
2.83671e-06
1.05679e-05
2.78714e-06
1.06269e-05
2.72424e-06
1.06701e-05
2.64903e-06
1.0696e-05
2.56079e-06
1.07036e-05
2.45811e-06
1.06915e-05
2.33943e-06
1.06582e-05
2.20384e-06
1.06015e-05
2.05031e-06
1.05221e-05
1.82758e-06
1.0423e-05
1.56024e-06
1.03059e-05
1.30998e-06
1.01724e-05
1.07612e-06
1.00244e-05
8.5811e-07
9.86406e-06
6.55648e-07
9.69384e-06
4.68577e-07
9.51555e-06
2.96425e-07
9.33017e-06
1.38458e-07
9.13785e-06
-6.0351e-09
8.9391e-06
-1.38189e-07
8.73474e-06
-2.59048e-07
8.52556e-06
-3.69624e-07
8.31188e-06
-4.70802e-07
8.09355e-06
-5.63347e-07
7.87075e-06
-6.48276e-07
7.644e-06
-7.26311e-07
7.41385e-06
-7.97925e-07
7.18086e-06
-8.63661e-07
6.94574e-06
-9.24143e-07
6.70956e-06
-9.79931e-07
6.474e-06
-1.03135e-06
6.2414e-06
-1.07826e-06
6.01393e-06
-1.11999e-06
5.79199e-06
-1.15588e-06
5.57441e-06
-1.18693e-06
5.36081e-06
-1.21566e-06
5.1517e-06
-1.24373e-06
4.94762e-06
-1.27166e-06
4.74902e-06
-1.29975e-06
4.55629e-06
-1.3281e-06
4.36973e-06
-1.35671e-06
4.18956e-06
-1.38547e-06
4.01592e-06
-1.41418e-06
3.84889e-06
-1.44261e-06
3.6885e-06
-1.47051e-06
3.5347e-06
-1.49762e-06
3.38742e-06
-1.52372e-06
3.24655e-06
-1.54857e-06
-1.57197e-06
-1.84936e-09
-3.02288e-07
-3.60824e-09
-1.29911e-07
-3.29881e-09
-1.46787e-07
-2.14201e-09
-1.61745e-07
-5.42676e-10
-1.71317e-07
1.32904e-09
-1.78803e-07
3.41321e-09
-1.85386e-07
5.69105e-09
-1.91513e-07
8.1586e-09
-1.9738e-07
1.08187e-08
-2.03079e-07
1.36779e-08
-2.08651e-07
1.67448e-08
-2.14112e-07
2.00289e-08
-2.19462e-07
2.35414e-08
-2.24693e-07
2.72952e-08
-2.29787e-07
3.13067e-08
-2.34721e-07
3.55978e-08
-2.39467e-07
4.02001e-08
-2.43989e-07
4.51614e-08
-2.48246e-07
5.0559e-08
-2.52188e-07
5.65202e-08
-2.55752e-07
6.32533e-08
-2.5886e-07
7.10757e-08
-2.61404e-07
8.04313e-08
-2.63237e-07
9.1915e-08
-2.64159e-07
1.06317e-07
-2.63922e-07
1.24688e-07
-2.62217e-07
1.48429e-07
-2.58659e-07
1.79356e-07
-2.52758e-07
2.19707e-07
-2.43881e-07
2.72093e-07
-2.31234e-07
3.39344e-07
-2.13863e-07
4.24302e-07
-1.90681e-07
5.29607e-07
-1.60541e-07
6.57465e-07
-1.22333e-07
8.09491e-07
-7.5077e-08
9.87281e-07
-1.8014e-08
1.1927e-06
4.94086e-08
1.42772e-06
1.27428e-07
1.69424e-06
2.16412e-07
1.9937e-06
3.16956e-07
2.3269e-06
4.29307e-07
2.69395e-06
5.5287e-07
3.09247e-06
6.87133e-07
3.51742e-06
8.31063e-07
3.96166e-06
9.8264e-07
4.41703e-06
1.1392e-06
4.87563e-06
1.29757e-06
5.33106e-06
1.45463e-06
5.77909e-06
1.6076e-06
6.21613e-06
1.75465e-06
6.63881e-06
1.89458e-06
7.0442e-06