/*--------------------------------*- C++ -*----------------------------------*\
  =========                 |
  \\      /  F ield         | OpenFOAM: The Open Source CFD Toolbox
   \\    /   O peration     | Website:  https://openfoam.org
    \\  /    A nd           | Version:  10
     \\/     M anipulation  |
\*---------------------------------------------------------------------------*/
FoamFile
{
    format      ascii;
    class       volScalarField;
    location    "53000";
    object      k;
}
// * * * * * * * * * * * * * * * * * * * * * * * * * * * * * * * * * * * * * //

dimensions      [0 2 -2 0 0 0 0];

internalField   nonuniform List<scalar> 
17922
(
0.079963
0.0800867
0.0802168
0.0803535
0.080497
0.0806474
0.0808051
0.0809703
0.0811432
0.0813241
0.0815133
0.081711
0.0819175
0.0821332
0.0823583
0.0825933
0.0828383
0.0830939
0.0833604
0.0836382
0.0839277
0.0842294
0.0845437
0.0848711
0.0852122
0.0855674
0.0859373
0.0863226
0.0867203
0.0871237
0.0875291
0.0879362
0.088345
0.0887555
0.0891676
0.0895814
0.089997
0.0904145
0.0908342
0.0912562
0.0916809
0.0921086
0.0925395
0.0929741
0.0934126
0.0938554
0.0943028
0.0947552
0.0952127
0.0956756
0.0961441
0.0966182
0.097098
0.0975836
0.0980748
0.0985716
0.0990738
0.0995812
0.100094
0.10061
0.101131
0.101656
0.102184
0.102715
0.103247
0.103781
0.104315
0.104848
0.10538
0.10591
0.106436
0.106958
0.107474
0.107984
0.108487
0.108982
0.109468
0.109945
0.110413
0.11087
0.111318
0.111756
0.112183
0.112601
0.113009
0.113408
0.113798
0.11418
0.114554
0.114922
0.115284
0.11564
0.115992
0.079964
0.0800878
0.0802179
0.0803546
0.080498
0.0806485
0.0808062
0.0809714
0.0811443
0.0813252
0.0815144
0.081712
0.0819186
0.0821342
0.0823594
0.0825943
0.0828394
0.0830949
0.0833614
0.0836392
0.0839287
0.0842303
0.0845446
0.084872
0.085213
0.0855682
0.0859381
0.0863234
0.0867211
0.0871244
0.0875298
0.0879369
0.0883457
0.0887561
0.0891682
0.089582
0.0899976
0.0904151
0.0908348
0.0912569
0.0916817
0.0921095
0.0925405
0.0929751
0.0934138
0.0938567
0.0943043
0.0947568
0.0952145
0.0956776
0.0961462
0.0966205
0.0971004
0.0975861
0.0980775
0.0985744
0.0990767
0.0995841
0.100096
0.100613
0.101134
0.101659
0.102187
0.102717
0.103249
0.103782
0.104316
0.104848
0.10538
0.105908
0.106433
0.106954
0.107469
0.107977
0.108479
0.108972
0.109457
0.109932
0.110398
0.110854
0.1113
0.111735
0.112161
0.112577
0.112983
0.11338
0.113769
0.114149
0.114521
0.114887
0.115247
0.115601
0.11595
0.079965
0.0800888
0.0802189
0.0803556
0.0804991
0.0806495
0.0808073
0.0809724
0.0811454
0.0813263
0.0815154
0.0817131
0.0819196
0.0821353
0.0823604
0.0825953
0.0828404
0.0830959
0.0833624
0.0836402
0.0839296
0.0842313
0.0845455
0.0848729
0.0852139
0.0855691
0.085939
0.0863242
0.0867219
0.0871252
0.0875305
0.0879376
0.0883464
0.0887568
0.0891689
0.0895827
0.0899983
0.0904158
0.0908356
0.0912577
0.0916826
0.0921104
0.0925415
0.0929763
0.0934151
0.0938582
0.0943059
0.0947586
0.0952164
0.0956796
0.0961484
0.0966228
0.097103
0.0975888
0.0980803
0.0985773
0.0990797
0.0995872
0.1001
0.100616
0.101137
0.101662
0.10219
0.10272
0.103251
0.103784
0.104317
0.104849
0.105379
0.105907
0.10643
0.10695
0.107463
0.10797
0.10847
0.108962
0.109445
0.109919
0.110383
0.110837
0.111281
0.111715
0.112139
0.112553
0.112957
0.113352
0.113739
0.114117
0.114488
0.114852
0.115209
0.115561
0.115908
0.0799661
0.0800899
0.08022
0.0803567
0.0805001
0.0806506
0.0808083
0.0809735
0.0811464
0.0813273
0.0815165
0.0817142
0.0819207
0.0821363
0.0823614
0.0825964
0.0828414
0.083097
0.0833634
0.0836412
0.0839306
0.0842322
0.0845465
0.0848738
0.0852148
0.0855699
0.0859398
0.086325
0.0867226
0.087126
0.0875312
0.0879383
0.0883471
0.0887575
0.0891695
0.0895833
0.089999
0.0904166
0.0908363
0.0912586
0.0916835
0.0921114
0.0925426
0.0929775
0.0934164
0.0938597
0.0943075
0.0947604
0.0952184
0.0956817
0.0961507
0.0966253
0.0971056
0.0975915
0.0980831
0.0985803
0.0990828
0.0995903
0.100103
0.10062
0.10114
0.101665
0.102192
0.102722
0.103253
0.103785
0.104318
0.104849
0.105378
0.105905
0.106428
0.106946
0.107458
0.107963
0.108462
0.108952
0.109433
0.109905
0.110367
0.11082
0.111262
0.111694
0.112116
0.112528
0.112931
0.113324
0.113709
0.114085
0.114454
0.114815
0.11517
0.11552
0.115864
0.0799671
0.0800909
0.080221
0.0803577
0.0805012
0.0806517
0.0808094
0.0809746
0.0811475
0.0813284
0.0815175
0.0817152
0.0819217
0.0821374
0.0823625
0.0825974
0.0828424
0.083098
0.0833644
0.0836422
0.0839316
0.0842332
0.0845474
0.0848747
0.0852157
0.0855708
0.0859406
0.0863258
0.0867234
0.0871267
0.087532
0.087939
0.0883478
0.0887582
0.0891703
0.089584
0.0899997
0.0904173
0.0908371
0.0912594
0.0916844
0.0921124
0.0925437
0.0929788
0.0934178
0.0938612
0.0943092
0.0947622
0.0952204
0.095684
0.0961531
0.0966278
0.0971082
0.0975944
0.0980861
0.0985833
0.0990859
0.0995936
0.100106
0.100623
0.101144
0.101668
0.102195
0.102724
0.103255
0.103787
0.104318
0.104849
0.105377
0.105903
0.106424
0.106941
0.107452
0.107956
0.108453
0.108941
0.109421
0.109891
0.110352
0.110802
0.111243
0.111673
0.112093
0.112503
0.112904
0.113295
0.113678
0.114052
0.114418
0.114778
0.115131
0.115477
0.115819
0.0799682
0.080092
0.0802221
0.0803588
0.0805023
0.0806527
0.0808105
0.0809757
0.0811486
0.0813295
0.0815186
0.0817163
0.0819228
0.0821385
0.0823636
0.0825985
0.0828435
0.083099
0.0833654
0.0836432
0.0839326
0.0842342
0.0845484
0.0848757
0.0852166
0.0855717
0.0859415
0.0863267
0.0867243
0.0871275
0.0875328
0.0879398
0.0883485
0.0887589
0.089171
0.0895848
0.0900004
0.0904181
0.090838
0.0912603
0.0916854
0.0921135
0.0925449
0.0929801
0.0934193
0.0938628
0.094311
0.0947642
0.0952225
0.0956862
0.0961555
0.0966304
0.097111
0.0975973
0.0980892
0.0985865
0.0990892
0.0995969
0.100109
0.100626
0.101147
0.101671
0.102198
0.102727
0.103257
0.103788
0.104319
0.104849
0.105376
0.105901
0.106421
0.106936
0.107446
0.107949
0.108444
0.10893
0.109408
0.109877
0.110335
0.110784
0.111223
0.111651
0.112069
0.112478
0.112876
0.113266
0.113646
0.114018
0.114383
0.11474
0.11509
0.115434
0.115772
0.0799693
0.080093
0.0802232
0.0803599
0.0805034
0.0806538
0.0808116
0.0809767
0.0811497
0.0813306
0.0815197
0.0817174
0.0819239
0.0821395
0.0823646
0.0825995
0.0828445
0.0831001
0.0833665
0.0836442
0.0839336
0.0842352
0.0845493
0.0848766
0.0852175
0.0855726
0.0859424
0.0863275
0.0867251
0.0871284
0.0875336
0.0879406
0.0883493
0.0887597
0.0891717
0.0895855
0.0900012
0.0904189
0.0908388
0.0912612
0.0916864
0.0921146
0.0925461
0.0929814
0.0934208
0.0938645
0.0943128
0.0947662
0.0952247
0.0956886
0.096158
0.0966331
0.0971139
0.0976003
0.0980923
0.0985898
0.0990925
0.0996002
0.100113
0.100629
0.10115
0.101674
0.102201
0.102729
0.103259
0.10379
0.10432
0.104849
0.105375
0.105898
0.106418
0.106932
0.10744
0.107941
0.108434
0.108919
0.109395
0.109862
0.110319
0.110766
0.111202
0.111629
0.112045
0.112451
0.112848
0.113235
0.113614
0.113984
0.114346
0.1147
0.115048
0.115389
0.115724
0.0799703
0.0800941
0.0802243
0.080361
0.0805045
0.0806549
0.0808127
0.0809779
0.0811508
0.0813317
0.0815208
0.0817185
0.081925
0.0821406
0.0823657
0.0826006
0.0828456
0.0831011
0.0833675
0.0836452
0.0839346
0.0842362
0.0845503
0.0848776
0.0852185
0.0855735
0.0859433
0.0863284
0.0867259
0.0871292
0.0875344
0.0879414
0.08835
0.0887604
0.0891725
0.0895863
0.090002
0.0904197
0.0908397
0.0912622
0.0916874
0.0921157
0.0925474
0.0929828
0.0934223
0.0938662
0.0943147
0.0947682
0.0952269
0.095691
0.0961606
0.0966359
0.0971168
0.0976034
0.0980955
0.0985931
0.0990959
0.0996037
0.100116
0.100633
0.101153
0.101677
0.102203
0.102732
0.103261
0.103791
0.10432
0.104848
0.105374
0.105896
0.106414
0.106927
0.107433
0.107933
0.108424
0.108908
0.109382
0.109847
0.110302
0.110747
0.111182
0.111606
0.11202
0.112425
0.112819
0.113205
0.113581
0.113948
0.114308
0.11466
0.115005
0.115343
0.115675
0.0799714
0.0800952
0.0802254
0.0803621
0.0805056
0.0806561
0.0808138
0.080979
0.0811519
0.0813328
0.0815219
0.0817196
0.0819261
0.0821417
0.0823668
0.0826017
0.0828467
0.0831022
0.0833686
0.0836463
0.0839356
0.0842372
0.0845513
0.0848786
0.0852194
0.0855745
0.0859442
0.0863293
0.0867268
0.08713
0.0875352
0.0879421
0.0883508
0.0887612
0.0891733
0.0895871
0.0900028
0.0904206
0.0908406
0.0912631
0.0916885
0.0921169
0.0925487
0.0929843
0.0934239
0.093868
0.0943167
0.0947704
0.0952293
0.0956935
0.0961633
0.0966388
0.0971199
0.0976066
0.0980989
0.0985965
0.0990994
0.0996073
0.10012
0.100636
0.101157
0.10168
0.102206
0.102734
0.103263
0.103792
0.104321
0.104848
0.105372
0.105893
0.10641
0.106921
0.107426
0.107924
0.108414
0.108896
0.109368
0.109831
0.110285
0.110728
0.11116
0.111583
0.111995
0.112397
0.11279
0.113173
0.113547
0.113912
0.114269
0.114618
0.11496
0.115295
0.115623
0.0799726
0.0800964
0.0802265
0.0803632
0.0805067
0.0806572
0.0808149
0.0809801
0.081153
0.0813339
0.0815231
0.0817207
0.0819272
0.0821429
0.0823679
0.0826028
0.0828478
0.0831033
0.0833697
0.0836473
0.0839367
0.0842382
0.0845523
0.0848796
0.0852204
0.0855754
0.0859451
0.0863302
0.0867277
0.0871309
0.087536
0.087943
0.0883516
0.088762
0.089174
0.0895879
0.0900036
0.0904214
0.0908415
0.0912642
0.0916896
0.0921181
0.0925501
0.0929858
0.0934256
0.0938698
0.0943187
0.0947726
0.0952317
0.0956961
0.0961661
0.0966417
0.097123
0.0976099
0.0981023
0.0986001
0.0991031
0.0996109
0.100123
0.10064
0.10116
0.101683
0.102209
0.102736
0.103265
0.103793
0.104321
0.104847
0.105371
0.105891
0.106406
0.106916
0.107419
0.107915
0.108404
0.108884
0.109354
0.109816
0.110267
0.110708
0.111139
0.111559
0.111969
0.11237
0.11276
0.113141
0.113512
0.113875
0.114229
0.114576
0.114914
0.115246
0.11557
0.0799737
0.0800975
0.0802276
0.0803643
0.0805078
0.0806583
0.0808161
0.0809812
0.0811542
0.0813351
0.0815242
0.0817219
0.0819284
0.082144
0.0823691
0.0826039
0.0828489
0.0831044
0.0833708
0.0836484
0.0839378
0.0842392
0.0845534
0.0848806
0.0852214
0.0855764
0.0859461
0.0863311
0.0867286
0.0871317
0.0875369
0.0879438
0.0883524
0.0887628
0.0891749
0.0895887
0.0900045
0.0904223
0.0908425
0.0912652
0.0916907
0.0921194
0.0925515
0.0929873
0.0934273
0.0938717
0.0943208
0.0947749
0.0952341
0.0956988
0.096169
0.0966448
0.0971262
0.0976133
0.0981058
0.0986037
0.0991068
0.0996147
0.100127
0.100643
0.101163
0.101687
0.102212
0.102739
0.103267
0.103794
0.104321
0.104847
0.105369
0.105888
0.106402
0.10691
0.107412
0.107906
0.108393
0.108871
0.10934
0.109799
0.110249
0.110688
0.111116
0.111535
0.111943
0.112341
0.112729
0.113107
0.113476
0.113837
0.114188
0.114531
0.114867
0.115194
0.115515
0.0799749
0.0800986
0.0802288
0.0803655
0.080509
0.0806595
0.0808172
0.0809824
0.0811553
0.0813362
0.0815254
0.081723
0.0819295
0.0821451
0.0823702
0.0826051
0.08285
0.0831055
0.0833719
0.0836495
0.0839388
0.0842403
0.0845544
0.0848816
0.0852224
0.0855773
0.085947
0.086332
0.0867295
0.0871326
0.0875377
0.0879446
0.0883533
0.0887636
0.0891757
0.0895896
0.0900054
0.0904233
0.0908435
0.0912663
0.0916919
0.0921207
0.0925529
0.0929889
0.0934291
0.0938737
0.094323
0.0947772
0.0952367
0.0957016
0.096172
0.096648
0.0971296
0.0976168
0.0981095
0.0986075
0.0991106
0.0996185
0.100131
0.100647
0.101167
0.10169
0.102215
0.102741
0.103268
0.103796
0.104322
0.104846
0.105367
0.105884
0.106397
0.106904
0.107404
0.107897
0.108382
0.108858
0.109325
0.109783
0.11023
0.110667
0.111094
0.11151
0.111916
0.112312
0.112697
0.113073
0.11344
0.113797
0.114145
0.114485
0.114817
0.115141
0.115457
0.079976
0.0800998
0.08023
0.0803667
0.0805102
0.0806607
0.0808184
0.0809836
0.0811565
0.0813374
0.0815265
0.0817242
0.0819307
0.0821463
0.0823714
0.0826062
0.0828512
0.0831066
0.083373
0.0836506
0.0839399
0.0842414
0.0845555
0.0848826
0.0852234
0.0855783
0.085948
0.0863329
0.0867304
0.0871335
0.0875386
0.0879455
0.0883541
0.0887644
0.0891765
0.0895904
0.0900063
0.0904242
0.0908445
0.0912674
0.0916931
0.092122
0.0925544
0.0929906
0.0934309
0.0938757
0.0943252
0.0947797
0.0952394
0.0957045
0.0961751
0.0966512
0.097133
0.0976204
0.0981132
0.0986113
0.0991145
0.0996224
0.100135
0.100651
0.101171
0.101693
0.102218
0.102744
0.10327
0.103797
0.104322
0.104845
0.105365
0.105881
0.106392
0.106898
0.107396
0.107888
0.108371
0.108845
0.10931
0.109766
0.110211
0.110646
0.11107
0.111485
0.111888
0.112282
0.112665
0.113038
0.113402
0.113756
0.114101
0.114438
0.114765
0.115085
0.115397
0.0799772
0.080101
0.0802312
0.0803679
0.0805114
0.0806619
0.0808196
0.0809848
0.0811577
0.0813386
0.0815277
0.0817254
0.0819319
0.0821475
0.0823726
0.0826074
0.0828523
0.0831078
0.0833741
0.0836517
0.083941
0.0842425
0.0845565
0.0848837
0.0852244
0.0855793
0.0859489
0.0863339
0.0867313
0.0871344
0.0875395
0.0879463
0.088355
0.0887653
0.0891774
0.0895913
0.0900072
0.0904252
0.0908455
0.0912685
0.0916944
0.0921234
0.092556
0.0929923
0.0934328
0.0938778
0.0943275
0.0947822
0.0952421
0.0957074
0.0961782
0.0966546
0.0971366
0.0976241
0.0981171
0.0986153
0.0991186
0.0996265
0.100139
0.100655
0.101174
0.101696
0.102221
0.102746
0.103272
0.103798
0.104322
0.104844
0.105363
0.105878
0.106387
0.106891
0.107388
0.107878
0.108359
0.108832
0.109295
0.109748
0.110191
0.110624
0.111047
0.111458
0.11186
0.112251
0.112631
0.113002
0.113362
0.113713
0.114055
0.114388
0.114712
0.115027
0.115334
0.0799784
0.0801022
0.0802324
0.0803691
0.0805126
0.0806631
0.0808208
0.080986
0.0811589
0.0813398
0.081529
0.0817266
0.0819331
0.0821487
0.0823738
0.0826086
0.0828535
0.083109
0.0833753
0.0836529
0.0839422
0.0842436
0.0845576
0.0848847
0.0852255
0.0855803
0.0859499
0.0863349
0.0867322
0.0871353
0.0875404
0.0879472
0.0883558
0.0887662
0.0891783
0.0895922
0.0900081
0.0904262
0.0908466
0.0912697
0.0916957
0.0921248
0.0925576
0.0929941
0.0934348
0.09388
0.0943299
0.0947848
0.095245
0.0957105
0.0961815
0.0966581
0.0971403
0.097628
0.0981211
0.0986194
0.0991227
0.0996307
0.100143
0.100659
0.101178
0.1017
0.102224
0.102748
0.103274
0.103798
0.104322
0.104843
0.10536
0.105874
0.106382
0.106885
0.10738
0.107868
0.108347
0.108818
0.109279
0.10973
0.110171
0.110602
0.111022
0.111431
0.11183
0.112219
0.112596
0.112964
0.113321
0.113669
0.114007
0.114336
0.114655
0.114966
0.115268
0.0799797
0.0801035
0.0802336
0.0803703
0.0805138
0.0806643
0.0808221
0.0809873
0.0811602
0.0813411
0.0815302
0.0817279
0.0819343
0.0821499
0.082375
0.0826098
0.0828547
0.0831101
0.0833764
0.083654
0.0839433
0.0842447
0.0845587
0.0848858
0.0852265
0.0855814
0.0859509
0.0863358
0.0867332
0.0871362
0.0875413
0.0879481
0.0883567
0.088767
0.0891792
0.0895931
0.0900091
0.0904272
0.0908477
0.0912709
0.091697
0.0921263
0.0925592
0.0929959
0.0934369
0.0938823
0.0943324
0.0947876
0.0952479
0.0957137
0.096185
0.0966618
0.0971441
0.097632
0.0981252
0.0986237
0.099127
0.099635
0.100147
0.100663
0.101182
0.101703
0.102227
0.102751
0.103275
0.103799
0.104322
0.104842
0.105358
0.10587
0.106377
0.106878
0.107371
0.107857
0.108335
0.108804
0.109263
0.109712
0.110151
0.110579
0.110997
0.111404
0.1118
0.112185
0.11256
0.112925
0.113279
0.113623
0.113957
0.114282
0.114597
0.114902
0.115198
0.0795443
0.0796451
0.0797513
0.0798632
0.0799809
0.0801047
0.0802349
0.0803716
0.0805151
0.0806656
0.0808233
0.0809885
0.0811614
0.0813423
0.0815315
0.0817291
0.0819356
0.0821512
0.0823762
0.082611
0.0828559
0.0831114
0.0833776
0.0836552
0.0839444
0.0842458
0.0845598
0.0848869
0.0852276
0.0855824
0.0859519
0.0863368
0.0867342
0.0871372
0.0875422
0.087949
0.0883576
0.0887679
0.0891801
0.0895941
0.0900101
0.0904283
0.0908489
0.0912722
0.0916984
0.0921279
0.0925609
0.0929979
0.093439
0.0938846
0.094335
0.0947904
0.095251
0.095717
0.0961885
0.0966655
0.0971481
0.0976361
0.0981295
0.0986281
0.0991315
0.0996394
0.100151
0.100667
0.101186
0.101707
0.10223
0.102753
0.103277
0.1038
0.104322
0.10484
0.105355
0.105866
0.106371
0.106871
0.107363
0.107847
0.108322
0.108789
0.109246
0.109693
0.11013
0.110556
0.110971
0.111375
0.111769
0.112151
0.112523
0.112884
0.113235
0.113575
0.113905
0.114225
0.114535
0.114835
0.115125
0.0795456
0.0796464
0.0797526
0.0798645
0.0799822
0.080106
0.0802362
0.0803729
0.0805164
0.0806669
0.0808246
0.0809898
0.0811627
0.0813436
0.0815327
0.0817304
0.0819368
0.0821524
0.0823775
0.0826123
0.0828572
0.0831126
0.0833788
0.0836564
0.0839456
0.084247
0.084561
0.084888
0.0852287
0.0855835
0.085953
0.0863378
0.0867351
0.0871381
0.0875431
0.0879499
0.0883585
0.0887689
0.089181
0.089595
0.0900111
0.0904294
0.0908501
0.0912735
0.0916998
0.0921295
0.0925627
0.0929999
0.0934412
0.0938871
0.0943377
0.0947933
0.0952542
0.0957205
0.0961922
0.0966695
0.0971522
0.0976405
0.098134
0.0986326
0.0991361
0.099644
0.100156
0.100671
0.10119
0.10171
0.102233
0.102756
0.103279
0.103801
0.104321
0.104839
0.105353
0.105862
0.106366
0.106863
0.107353
0.107836
0.108309
0.108774
0.109229
0.109673
0.110108
0.110531
0.110944
0.111345
0.111736
0.112115
0.112484
0.112842
0.113188
0.113524
0.11385
0.114165
0.114469
0.114764
0.115047
0.0795469
0.0796477
0.0797539
0.0798658
0.0799835
0.0801073
0.0802375
0.0803742
0.0805177
0.0806682
0.0808259
0.0809911
0.081164
0.0813449
0.081534
0.0817317
0.0819381
0.0821537
0.0823787
0.0826135
0.0828584
0.0831138
0.0833801
0.0836576
0.0839468
0.0842482
0.0845621
0.0848891
0.0852298
0.0855845
0.085954
0.0863388
0.0867361
0.0871391
0.0875441
0.0879509
0.0883594
0.0887698
0.0891819
0.089596
0.0900121
0.0904305
0.0908513
0.0912748
0.0917013
0.0921312
0.0925646
0.0930019
0.0934435
0.0938896
0.0943405
0.0947964
0.0952576
0.0957241
0.096196
0.0966735
0.0971565
0.0976449
0.0981386
0.0986373
0.0991408
0.0996487
0.100161
0.100676
0.101194
0.101714
0.102236
0.102758
0.103281
0.103802
0.104321
0.104837
0.10535
0.105858
0.10636
0.106856
0.107344
0.107824
0.108296
0.108758
0.109211
0.109653
0.110085
0.110506
0.110916
0.111315
0.111702
0.112078
0.112443
0.112797
0.11314
0.113472
0.113792
0.114102
0.114401
0.114689
0.114966
0.079277
0.0793625
0.0794528
0.0795483
0.079649
0.0797552
0.0798671
0.0799848
0.0801086
0.0802388
0.0803755
0.080519
0.0806695
0.0808272
0.0809924
0.0811653
0.0813462
0.0815353
0.081733
0.0819394
0.082155
0.08238
0.0826148
0.0828597
0.0831151
0.0833813
0.0836588
0.083948
0.0842494
0.0845633
0.0848903
0.0852309
0.0855856
0.0859551
0.0863399
0.0867371
0.0871401
0.087545
0.0879518
0.0883604
0.0887707
0.0891829
0.089597
0.0900132
0.0904316
0.0908526
0.0912762
0.0917029
0.0921329
0.0925665
0.0930041
0.0934459
0.0938923
0.0943434
0.0947996
0.095261
0.0957278
0.0962001
0.0966778
0.097161
0.0976496
0.0981434
0.0986422
0.0991458
0.0996536
0.100165
0.10068
0.101198
0.101718
0.102239
0.102761
0.103282
0.103803
0.104321
0.104836
0.105347
0.105853
0.106354
0.106848
0.107334
0.107813
0.108282
0.108742
0.109193
0.109633
0.110062
0.11048
0.110887
0.111283
0.111667
0.11204
0.112401
0.112751
0.113089
0.113416
0.113731
0.114036
0.114328
0.11461
0.11488
0.0792784
0.0793638
0.0794542
0.0795496
0.0796503
0.0797565
0.0798684
0.0799861
0.08011
0.0802402
0.0803769
0.0805204
0.0806709
0.0808286
0.0809938
0.0811667
0.0813476
0.0815367
0.0817343
0.0819408
0.0821563
0.0823813
0.0826161
0.082861
0.0831164
0.0833826
0.0836601
0.0839493
0.0842506
0.0845645
0.0848914
0.085232
0.0855867
0.0859562
0.0863409
0.0867381
0.0871411
0.087546
0.0879528
0.0883613
0.0887717
0.0891839
0.0895981
0.0900143
0.0904328
0.0908539
0.0912777
0.0917045
0.0921347
0.0925686
0.0930064
0.0934485
0.0938951
0.0943465
0.094803
0.0952647
0.0957317
0.0962042
0.0966822
0.0971657
0.0976545
0.0981484
0.0986474
0.0991509
0.0996587
0.10017
0.100685
0.101203
0.101722
0.102243
0.102764
0.103284
0.103803
0.10432
0.104834
0.105344
0.105849
0.106348
0.10684
0.107324
0.107801
0.108268
0.108726
0.109174
0.109611
0.110037
0.110453
0.110857
0.111249
0.11163
0.111999
0.112356
0.112702
0.113035
0.113357
0.113667
0.113965
0.114252
0.114526
0.114788
0.0792798
0.0793652
0.0794555
0.0795509
0.0796516
0.0797578
0.0798697
0.0799875
0.0801113
0.0802415
0.0803783
0.0805218
0.0806723
0.08083
0.0809952
0.0811681
0.0813489
0.0815381
0.0817357
0.0819421
0.0821577
0.0823827
0.0826174
0.0828623
0.0831177
0.0833839
0.0836614
0.0839505
0.0842518
0.0845657
0.0848926
0.0852332
0.0855878
0.0859572
0.086342
0.0867392
0.0871421
0.087547
0.0879537
0.0883623
0.0887727
0.0891849
0.0895992
0.0900155
0.0904341
0.0908553
0.0912792
0.0917062
0.0921366
0.0925707
0.0930088
0.0934511
0.093898
0.0943497
0.0948065
0.0952685
0.0957359
0.0962086
0.0966869
0.0971706
0.0976596
0.0981537
0.0986527
0.0991563
0.099664
0.100175
0.10069
0.101207
0.101726
0.102246
0.102766
0.103286
0.103804
0.10432
0.104833
0.105341
0.105844
0.106341
0.106831
0.107314
0.107788
0.108253
0.108709
0.109154
0.109589
0.110012
0.110425
0.110825
0.111214
0.111591
0.111956
0.112309
0.11265
0.112979
0.113295
0.113599
0.113891
0.114171
0.114438
0.114692
0.0792812
0.0793666
0.0794569
0.0795523
0.079653
0.0797592
0.0798711
0.0799889
0.0801127
0.0802429
0.0803797
0.0805232
0.0806737
0.0808314
0.0809966
0.0811695
0.0813503
0.0815395
0.0817371
0.0819435
0.0821591
0.0823841
0.0826188
0.0828637
0.083119
0.0833852
0.0836626
0.0839518
0.084253
0.0845669
0.0848938
0.0852343
0.085589
0.0859584
0.086343
0.0867402
0.0871431
0.087548
0.0879547
0.0883633
0.0887737
0.089186
0.0896003
0.0900167
0.0904354
0.0908567
0.0912808
0.091708
0.0921386
0.092573
0.0930113
0.0934539
0.0939011
0.0943531
0.0948102
0.0952725
0.0957402
0.0962133
0.0966918
0.0971757
0.0976649
0.0981592
0.0986583
0.0991619
0.0996696
0.100181
0.100695
0.101212
0.10173
0.10225
0.102769
0.103288
0.103805
0.10432
0.104831
0.105338
0.105839
0.106334
0.106823
0.107303
0.107775
0.108238
0.108691
0.109133
0.109565
0.109986
0.110395
0.110792
0.111178
0.111551
0.111911
0.11226
0.112596
0.112919
0.11323
0.113527
0.113813
0.114085
0.114344
0.11459
0.0792826
0.079368
0.0794582
0.0795537
0.0796544
0.0797606
0.0798725
0.0799902
0.0801141
0.0802443
0.0803811
0.0805246
0.0806751
0.0808328
0.080998
0.0811709
0.0813518
0.0815409
0.0817385
0.0819449
0.0821605
0.0823854
0.0826202
0.082865
0.0831203
0.0833865
0.083664
0.0839531
0.0842543
0.0845681
0.084895
0.0852355
0.0855901
0.0859595
0.0863441
0.0867413
0.0871441
0.087549
0.0879558
0.0883644
0.0887748
0.0891871
0.0896014
0.0900179
0.0904368
0.0908582
0.0912825
0.0917099
0.0921408
0.0925753
0.0930139
0.0934568
0.0939043
0.0943567
0.0948141
0.0952767
0.0957447
0.0962181
0.0966969
0.0971811
0.0976705
0.0981649
0.0986641
0.0991678
0.0996754
0.100187
0.100701
0.101217
0.101735
0.102254
0.102772
0.10329
0.103806
0.10432
0.104829
0.105334
0.105834
0.106328
0.106814
0.107292
0.107762
0.108222
0.108672
0.109112
0.109541
0.109958
0.110364
0.110758
0.111139
0.111508
0.111864
0.112208
0.112538
0.112856
0.11316
0.113451
0.113729
0.113994
0.114245
0.114481
0.0792841
0.0793694
0.0794596
0.079555
0.0796558
0.079762
0.0798739
0.0799917
0.0801156
0.0802458
0.0803825
0.080526
0.0806765
0.0808342
0.0809994
0.0811723
0.0813532
0.0815423
0.0817399
0.0819463
0.0821619
0.0823868
0.0826216
0.0828664
0.0831217
0.0833879
0.0836653
0.0839544
0.0842556
0.0845694
0.0848963
0.0852367
0.0855913
0.0859606
0.0863453
0.0867424
0.0871452
0.0875501
0.0879568
0.0883654
0.0887759
0.0891883
0.0896027
0.0900193
0.0904382
0.0908598
0.0912843
0.0917119
0.092143
0.0925778
0.0930167
0.0934599
0.0939078
0.0943605
0.0948182
0.0952812
0.0957495
0.0962232
0.0967023
0.0971867
0.0976764
0.098171
0.0986703
0.0991739
0.0996815
0.100192
0.100706
0.101222
0.10174
0.102258
0.102775
0.103292
0.103807
0.104319
0.104827
0.105331
0.105829
0.106321
0.106805
0.107281
0.107748
0.108206
0.108653
0.10909
0.109516
0.109929
0.110332
0.110721
0.111098
0.111463
0.111814
0.112152
0.112477
0.112789
0.113087
0.113371
0.113641
0.113897
0.114139
0.114367
0.0792855
0.0793708
0.079461
0.0795564
0.0796572
0.0797634
0.0798753
0.0799931
0.080117
0.0802472
0.080384
0.0805275
0.080678
0.0808357
0.0810009
0.0811738
0.0813547
0.0815438
0.0817414
0.0819478
0.0821633
0.0823883
0.082623
0.0828678
0.0831231
0.0833893
0.0836666
0.0839557
0.0842569
0.0845707
0.0848975
0.0852379
0.0855925
0.0859618
0.0863464
0.0867435
0.0871463
0.0875512
0.0879579
0.0883665
0.088777
0.0891895
0.0896039
0.0900206
0.0904397
0.0908615
0.0912862
0.091714
0.0921454
0.0925805
0.0930197
0.0934632
0.0939114
0.0943645
0.0948226
0.0952859
0.0957546
0.0962286
0.096708
0.0971927
0.0976825
0.0981773
0.0986767
0.0991804
0.0996879
0.100199
0.100712
0.101228
0.101744
0.102262
0.102779
0.103295
0.103808
0.104319
0.104826
0.105328
0.105824
0.106313
0.106795
0.107269
0.107733
0.108188
0.108633
0.109067
0.109489
0.109899
0.110297
0.110683
0.111055
0.111415
0.111761
0.112094
0.112413
0.112718
0.113008
0.113285
0.113547
0.113795
0.114028
0.114245
0.0792869
0.0793722
0.0794624
0.0795579
0.0796586
0.0797648
0.0798767
0.0799945
0.0801185
0.0802487
0.0803854
0.080529
0.0806795
0.0808372
0.0810024
0.0811753
0.0813562
0.0815453
0.0817429
0.0819493
0.0821648
0.0823897
0.0826244
0.0828693
0.0831245
0.0833907
0.083668
0.0839571
0.0842582
0.084572
0.0848988
0.0852392
0.0855937
0.085963
0.0863476
0.0867446
0.0871474
0.0875523
0.087959
0.0883677
0.0887782
0.0891907
0.0896053
0.0900221
0.0904414
0.0908633
0.0912882
0.0917163
0.0921479
0.0925833
0.0930228
0.0934667
0.0939153
0.0943687
0.0948272
0.0952909
0.0957599
0.0962343
0.096714
0.097199
0.0976891
0.098184
0.0986835
0.0991872
0.0996946
0.100205
0.100718
0.101233
0.10175
0.102266
0.102782
0.103297
0.103809
0.104319
0.104824
0.105324
0.105818
0.106306
0.106785
0.107256
0.107718
0.10817
0.108612
0.109042
0.109461
0.109867
0.110261
0.110642
0.11101
0.111364
0.111705
0.112032
0.112344
0.112642
0.112926
0.113194
0.113448
0.113687
0.11391
0.114117
0.0792883
0.0793736
0.0794639
0.0795593
0.07966
0.0797663
0.0798782
0.079996
0.0801199
0.0802502
0.0803869
0.0805305
0.080681
0.0808387
0.0810039
0.0811768
0.0813577
0.0815468
0.0817444
0.0819508
0.0821663
0.0823912
0.0826259
0.0828707
0.083126
0.0833921
0.0836694
0.0839585
0.0842596
0.0845733
0.0849001
0.0852405
0.085595
0.0859642
0.0863487
0.0867458
0.0871486
0.0875534
0.0879602
0.0883689
0.0887795
0.089192
0.0896067
0.0900236
0.0904431
0.0908652
0.0912903
0.0917187
0.0921506
0.0925863
0.0930262
0.0934704
0.0939194
0.0943732
0.0948321
0.0952962
0.0957656
0.0962403
0.0967204
0.0972057
0.097696
0.0981911
0.0986907
0.0991944
0.0997017
0.100212
0.100725
0.101239
0.101755
0.102271
0.102786
0.1033
0.103811
0.104319
0.104822
0.10532
0.105813
0.106298
0.106775
0.107243
0.107702
0.108151
0.10859
0.109016
0.109431
0.109833
0.110223
0.110599
0.110962
0.111311
0.111645
0.111966
0.112271
0.112562
0.112838
0.113098
0.113343
0.113572
0.113785
0.113981
0.0792898
0.079375
0.0794653
0.0795607
0.0796615
0.0797677
0.0798797
0.0799975
0.0801214
0.0802517
0.0803885
0.080532
0.0806825
0.0808403
0.0810055
0.0811784
0.0813592
0.0815483
0.0817459
0.0819523
0.0821678
0.0823927
0.0826274
0.0828722
0.0831274
0.0833935
0.0836709
0.0839599
0.084261
0.0845747
0.0849014
0.0852418
0.0855962
0.0859654
0.08635
0.086747
0.0871498
0.0875546
0.0879614
0.0883701
0.0887808
0.0891934
0.0896082
0.0900253
0.0904449
0.0908672
0.0912926
0.0917212
0.0921534
0.0925895
0.0930297
0.0934744
0.0939238
0.094378
0.0948373
0.0953018
0.0957716
0.0962468
0.0967272
0.0972127
0.0977033
0.0981986
0.0986982
0.0992019
0.0997091
0.100219
0.100732
0.101246
0.101761
0.102276
0.10279
0.103302
0.103812
0.104319
0.10482
0.105317
0.105807
0.106289
0.106764
0.10723
0.107686
0.108132
0.108566
0.108989
0.1094
0.109798
0.110183
0.110554
0.110911
0.111254
0.111582
0.111896
0.112194
0.112477
0.112744
0.112996
0.113231
0.11345
0.113652
0.113838
0.0792912
0.0793765
0.0794667
0.0795621
0.0796629
0.0797692
0.0798811
0.079999
0.0801229
0.0802532
0.08039
0.0805336
0.0806841
0.0808418
0.081007
0.0811799
0.0813608
0.0815499
0.0817475
0.0819539
0.0821694
0.0823943
0.082629
0.0828737
0.0831289
0.083395
0.0836723
0.0839613
0.0842624
0.0845761
0.0849028
0.0852431
0.0855975
0.0859667
0.0863512
0.0867482
0.087151
0.0875559
0.0879627
0.0883714
0.0887821
0.0891949
0.0896098
0.0900271
0.0904468
0.0908694
0.091295
0.091724
0.0921565
0.092593
0.0930336
0.0934787
0.0939284
0.0943831
0.0948429
0.0953078
0.095778
0.0962536
0.0967343
0.0972202
0.097711
0.0982065
0.0987063
0.09921
0.099717
0.100227
0.100739
0.101253
0.101767
0.102281
0.102794
0.103306
0.103814
0.104319
0.104819
0.105313
0.105801
0.106281
0.106753
0.107216
0.107668
0.108111
0.108541
0.10896
0.109367
0.10976
0.11014
0.110505
0.110857
0.111194
0.111515
0.111821
0.112112
0.112387
0.112645
0.112888
0.113113
0.113322
0.113513
0.113686
0.0792926
0.0793779
0.0794682
0.0795636
0.0796644
0.0797706
0.0798826
0.0800005
0.0801245
0.0802548
0.0803916
0.0805351
0.0806857
0.0808434
0.0810086
0.0811815
0.0813624
0.0815515
0.0817491
0.0819554
0.0821709
0.0823958
0.0826305
0.0828753
0.0831305
0.0833965
0.0836738
0.0839628
0.0842638
0.0845775
0.0849042
0.0852445
0.0855989
0.085968
0.0863525
0.0867495
0.0871523
0.0875572
0.087964
0.0883728
0.0887836
0.0891965
0.0896115
0.0900289
0.0904489
0.0908718
0.0912977
0.0917269
0.0921598
0.0925966
0.0930377
0.0934832
0.0939334
0.0943886
0.0948488
0.0953142
0.0957849
0.0962608
0.0967419
0.0972282
0.0977192
0.0982149
0.0987148
0.0992184
0.0997254
0.100235
0.100747
0.10126
0.101773
0.102287
0.102799
0.103309
0.103816
0.104319
0.104817
0.105309
0.105794
0.106272
0.106741
0.107201
0.10765
0.108088
0.108515
0.10893
0.109332
0.10972
0.110094
0.110454
0.110799
0.111129
0.111444
0.111742
0.112025
0.112291
0.112541
0.112773
0.112988
0.113186
0.113365
0.113527
0.0792941
0.0793793
0.0794696
0.079565
0.0796658
0.0797721
0.0798841
0.080002
0.080126
0.0802563
0.0803931
0.0805367
0.0806872
0.080845
0.0810102
0.0811831
0.081364
0.0815531
0.0817507
0.0819571
0.0821725
0.0823974
0.0826321
0.0828768
0.083132
0.0833981
0.0836753
0.0839643
0.0842653
0.0845789
0.0849056
0.0852459
0.0856003
0.0859694
0.0863539
0.0867509
0.0871536
0.0875585
0.0879654
0.0883743
0.0887852
0.0891982
0.0896134
0.090031
0.0904512
0.0908743
0.0913005
0.0917301
0.0921634
0.0926006
0.0930421
0.0934881
0.0939388
0.0943944
0.0948551
0.095321
0.0957922
0.0962685
0.0967501
0.0972366
0.0977279
0.0982238
0.0987238
0.0992275
0.0997343
0.100244
0.100755
0.101267
0.10178
0.102293
0.102804
0.103312
0.103818
0.104319
0.104815
0.105305
0.105788
0.106263
0.106728
0.107185
0.10763
0.108065
0.108488
0.108898
0.109294
0.109677
0.110046
0.1104
0.110738
0.111061
0.111368
0.111659
0.111933
0.11219
0.112429
0.112652
0.112856
0.113042
0.11321