/*--------------------------------*- C++ -*----------------------------------*\
  =========                 |
  \\      /  F ield         | OpenFOAM: The Open Source CFD Toolbox
   \\    /   O peration     | Website:  https://openfoam.org
    \\  /    A nd           | Version:  10
     \\/     M anipulation  |
\*---------------------------------------------------------------------------*/
FoamFile
{
    format      ascii;
    class       volScalarField;
    location    "53000";
    object      omega;
}
// * * * * * * * * * * * * * * * * * * * * * * * * * * * * * * * * * * * * * //

dimensions      [0 0 -1 0 0 0 0];

internalField   nonuniform List<scalar> 
17922
(
25.5609
25.1613
24.7775
24.409
24.0558
23.7174
23.3939
23.0849
22.7904
22.5103
22.2443
21.9926
21.7551
21.5318
21.3227
21.1279
20.9475
20.7817
20.6307
20.4947
20.3741
20.2691
20.1802
20.1079
20.0527
20.0153
19.9963
19.9967
20.0171
20.0571
20.1157
20.1919
20.2851
20.3946
20.5199
20.6603
20.8155
20.9849
21.1684
21.3655
21.5759
21.7995
22.0359
22.285
22.5467
22.8208
23.1071
23.4056
23.716
24.0383
24.3722
24.7177
25.0746
25.4425
25.8214
26.2108
26.6106
27.0204
27.4399
27.8687
28.3063
28.7524
29.2064
29.6679
30.1362
30.6108
31.0911
31.5763
32.0658
32.5589
33.0548
33.5527
34.052
34.5519
35.0517
35.551
36.0492
36.5458
37.0406
37.5334
38.0242
38.5132
39.0006
39.4868
39.9727
40.4592
40.9473
41.4386
41.9347
42.4376
42.9498
43.4739
44.0129
25.5612
25.1616
24.7778
24.4093
24.056
23.7177
23.3942
23.0852
22.7907
22.5105
22.2446
21.9929
21.7554
21.532
21.3229
21.1281
20.9477
20.7819
20.6309
20.4949
20.3743
20.2693
20.1804
20.1081
20.0529
20.0154
19.9965
19.9968
20.0172
20.0572
20.1157
20.192
20.2852
20.3946
20.5199
20.6602
20.8154
20.9848
21.1682
21.3653
21.5757
21.7992
22.0356
22.2847
22.5463
22.8203
23.1066
23.405
23.7153
24.0375
24.3714
24.7168
25.0736
25.4414
25.8201
26.2094
26.6091
27.0187
27.438
27.8665
28.3039
28.7497
29.2034
29.6645
30.1325
30.6067
31.0865
31.5712
32.0602
32.5527
33.0479
33.5452
34.0438
34.543
35.0422
35.5408
36.0383
36.5343
37.0285
37.5209
38.0113
38.5
38.9872
39.4736
39.9598
40.4468
40.9358
41.4283
41.926
42.4311
42.9459
43.4731
44.016
25.5615
25.1619
24.7781
24.4096
24.0563
23.718
23.3944
23.0854
22.7909
22.5107
22.2448
21.9931
21.7556
21.5322
21.3231
21.1283
20.9479
20.7821
20.6311
20.4951
20.3744
20.2695
20.1806
20.1082
20.053
20.0156
19.9966
19.9969
20.0173
20.0573
20.1158
20.192
20.2852
20.3947
20.5198
20.6602
20.8153
20.9847
21.1681
21.3651
21.5755
21.7989
22.0353
22.2843
22.5459
22.8199
23.1061
23.4044
23.7147
24.0368
24.3707
24.716
25.0726
25.4403
25.8189
26.208
26.6075
27.0169
27.436
27.8643
28.3014
28.747
29.2004
29.6611
30.1287
30.6025
31.0818
31.566
32.0545
32.5463
33.041
33.5376
34.0355
34.534
35.0325
35.5304
36.0272
36.5226
37.0163
37.5081
37.9982
38.4866
38.9738
39.4603
39.9468
40.4345
40.9244
41.4183
41.9178
42.4251
42.9426
43.4732
44.0201
25.5618
25.1622
24.7783
24.4099
24.0566
23.7182
23.3947
23.0857
22.7912
22.511
22.245
21.9933
21.7558
21.5324
21.3233
21.1285
20.9481
20.7823
20.6313
20.4953
20.3746
20.2696
20.1807
20.1084
20.0532
20.0157
19.9967
19.997
20.0174
20.0574
20.1159
20.1921
20.2853
20.3947
20.5198
20.6602
20.8152
20.9846
21.168
21.3649
21.5752
21.7987
22.035
22.284
22.5455
22.8194
23.1056
23.4039
23.7141
24.0361
24.3699
24.7151
25.0716
25.4392
25.8176
26.2066
26.6059
27.0151
27.434
27.862
28.2989
28.7441
29.1972
29.6576
30.1248
30.5981
31.077
31.5607
32.0485
32.5398
33.0338
33.5297
34.0269
34.5247
35.0225
35.5197
36.0158
36.5106
37.0037
37.4951
37.9848
38.473
38.9602
39.4468
39.9338
40.4222
40.9132
41.4085
41.9099
42.4195
42.94
43.4742
44.0252
25.5621
25.1625
24.7786
24.4101
24.0568
23.7185
23.3949
23.0859
22.7914
22.5112
22.2453
21.9936
21.756
21.5327
21.3235
21.1287
20.9483
20.7825
20.6315
20.4955
20.3748
20.2698
20.1809
20.1085
20.0533
20.0159
19.9969
19.9972
20.0175
20.0575
20.116
20.1922
20.2853
20.3947
20.5198
20.6602
20.8152
20.9845
21.1678
21.3648
21.575
21.7984
22.0347
22.2836
22.5451
22.819
23.1051
23.4033
23.7134
24.0354
24.369
24.7142
25.0705
25.438
25.8163
26.2051
26.6042
27.0133
27.4319
27.8597
28.2963
28.7412
29.194
29.654
30.1208
30.5936
31.072
31.5551
32.0424
32.533
33.0263
33.5216
34.0181
34.5151
35.0122
35.5087
36.0041
36.4983
36.9909
37.4818
37.9712
38.4593
38.9464
39.4333
39.9208
40.4099
40.9021
41.3989
41.9023
42.4146
42.9381
43.476
44.0315
25.5624
25.1628
24.7789
24.4104
24.0571
23.7188
23.3952
23.0862
22.7916
22.5114
22.2455
21.9938
21.7562
21.5329
21.3237
21.1289
20.9485
20.7827
20.6317
20.4957
20.375
20.27
20.1811
20.1087
20.0535
20.016
19.997
19.9973
20.0176
20.0576
20.1161
20.1922
20.2854
20.3948
20.5199
20.6601
20.8151
20.9844
21.1677
21.3646
21.5748
21.7981
22.0344
22.2833
22.5447
22.8185
23.1046
23.4027
23.7128
24.0347
24.3682
24.7132
25.0695
25.4368
25.815
26.2036
26.6025
27.0114
27.4298
27.8573
28.2936
28.7382
29.1906
29.6503
30.1166
30.589
31.0668
31.5494
32.0361
32.5261
33.0187
33.5132
34.009
34.5053
35.0016
35.4974
35.9922
36.4857
36.9778
37.4683
37.9574
38.4453
38.9325
39.4197
39.9077
40.3978
40.8912
41.3897
41.8953
42.4102
42.937
43.4788
44.0388
25.5627
25.1631
24.7792
24.4107
24.0574
23.719
23.3954
23.0864
22.7919
22.5117
22.2457
21.994
21.7564
21.5331
21.3239
21.1291
20.9487
20.7829
20.6319
20.4958
20.3752
20.2701
20.1812
20.1089
20.0536
20.0162
19.9971
19.9974
20.0177
20.0577
20.1162
20.1923
20.2854
20.3948
20.5199
20.6601
20.8151
20.9843
21.1676
21.3644
21.5746
21.7979
22.0341
22.2829
22.5443
22.8181
23.104
23.4021
23.7121
24.0339
24.3674
24.7123
25.0684
25.4356
25.8136
26.2021
26.6008
27.0094
27.4276
27.8549
28.2909
28.7351
29.1872
29.6464
30.1123
30.5842
31.0615
31.5435
32.0295
32.5189
33.0108
33.5046
33.9996
34.4952
34.9908
35.4858
35.9799
36.4729
36.9644
37.4545
37.9433
38.4311
38.9184
39.406
39.8947
40.3857
40.8805
41.3808
41.8887
42.4064
42.9367
43.4826
44.0474
25.563
25.1634
24.7794
24.411
24.0576
23.7193
23.3957
23.0867
22.7921
22.5119
22.246
21.9942
21.7567
21.5333
21.3242
21.1293
20.9489
20.7831
20.632
20.496
20.3753
20.2703
20.1814
20.109
20.0538
20.0163
19.9973
19.9976
20.0179
20.0578
20.1163
20.1924
20.2855
20.3948
20.5199
20.6601
20.815
20.9842
21.1674
21.3642
21.5744
21.7976
22.0337
22.2826
22.5439
22.8176
23.1035
23.4015
23.7114
24.0331
24.3665
24.7113
25.0673
25.4343
25.8122
26.2005
26.599
27.0074
27.4253
27.8523
28.288
28.7319
29.1836
29.6424
30.1078
30.5792
31.056
31.5374
32.0228
32.5114
33.0026
33.4957
33.99
34.4848
34.9796
35.4739
35.9674
36.4597
36.9507
37.4404
37.929
38.4168
38.9043
39.3922
39.8816
40.3738
40.87
41.3723
41.8826
42.4033
42.9372
43.4874
44.0572
25.5633
25.1637
24.7797
24.4112
24.0579
23.7195
23.3959
23.0869
22.7924
22.5122
22.2462
21.9945
21.7569
21.5335
21.3244
21.1295
20.9491
20.7833
20.6322
20.4962
20.3755
20.2705
20.1816
20.1092
20.054
20.0165
19.9974
19.9977
20.018
20.0579
20.1164
20.1925
20.2855
20.3949
20.5199
20.6601
20.8149
20.9841
21.1673
21.364
21.5742
21.7973
22.0334
22.2822
22.5435
22.8171
23.1029
23.4009
23.7107
24.0323
24.3656
24.7103
25.0662
25.4331
25.8107
26.1988
26.5971
27.0053
27.423
27.8497
28.2851
28.7286
29.1799
29.6383
30.1032
30.5741
31.0503
31.5311
32.0158
32.5038
32.9942
33.4865
33.98
34.4741
34.9681
35.4618
35.9546
36.4463
36.9368
37.4261
37.9145
38.4023
38.89
39.3784
39.8687
40.362
40.8599
41.3642
41.8771
42.401
42.9387
43.4933
44.0683
25.5636
25.164
24.78
24.4115
24.0582
23.7198
23.3962
23.0872
22.7926
22.5124
22.2464
21.9947
21.7571
21.5337
21.3246
21.1297
20.9493
20.7835
20.6324
20.4964
20.3757
20.2707
20.1817
20.1094
20.0541
20.0166
19.9976
19.9978
20.0181
20.058
20.1165
20.1926
20.2856
20.3949
20.5199
20.66
20.8149
20.984
21.1671
21.3639
21.5739
21.7971
22.0331
22.2818
22.543
22.8166
23.1024
23.4002
23.71
24.0315
24.3647
24.7092
25.065
25.4317
25.8092
26.1971
26.5952
27.0032
27.4205
27.847
28.282
28.7252
29.1761
29.634
30.0984
30.5688
31.0444
31.5245
32.0086
32.4958
32.9856
33.4771
33.9698
34.4631
34.9564
35.4493
35.9414
36.4325
36.9226
37.4116
37.8998
38.3876
38.8756
39.3646
39.8558
40.3504
40.85
41.3565
41.8722
42.3994
42.9411
43.5004
44.0808
25.5639
25.1642
24.7803
24.4118
24.0585
23.7201
23.3965
23.0874
22.7929
22.5126
22.2467
21.9949
21.7573
21.534
21.3248
21.13
20.9495
20.7837
20.6326
20.4966
20.3759
20.2709
20.1819
20.1095
20.0543
20.0168
19.9977
19.998
20.0182
20.0581
20.1166
20.1926
20.2856
20.3949
20.5199
20.66
20.8148
20.9839
21.167
21.3637
21.5737
21.7968
22.0328
22.2814
22.5426
22.8161
23.1018
23.3996
23.7093
24.0307
24.3637
24.7082
25.0638
25.4304
25.8077
26.1954
26.5933
27.0009
27.418
27.8442
28.2789
28.7217
29.1721
29.6296
30.0935
30.5633
31.0383
31.5178
32.0012
32.4877
32.9766
33.4674
33.9593
34.4518
34.9443
35.4365
35.928
36.4185
36.9081
37.3969
37.8849
38.3728
38.8612
39.3509
39.843
40.339
40.8405
41.3494
41.8679
42.3986
42.9445
43.5086
44.0947
25.5642
25.1645
24.7806
24.4121
24.0587
23.7204
23.3967
23.0877
22.7931
22.5129
22.2469
21.9952
21.7576
21.5342
21.325
21.1302
20.9497
20.7839
20.6328
20.4968
20.3761
20.271
20.1821
20.1097
20.0545
20.0169
19.9979
19.9981
20.0184
20.0583
20.1167
20.1927
20.2857
20.395
20.5199
20.66
20.8148
20.9838
21.1669
21.3635
21.5735
21.7965
22.0324
22.281
22.5421
22.8156
23.1012
23.3989
23.7085
24.0298
24.3628
24.7071
25.0625
25.429
25.8061
26.1936
26.5912
26.9987
27.4155
27.8413
28.2756
28.718
29.168
29.625
30.0884
30.5576
31.032
31.5108
31.9935
32.4792
32.9674
33.4574
33.9485
34.4402
34.932
35.4234
35.9142
36.4043
36.8934
37.3819
37.8699
38.3579
38.8467
39.3372
39.8304
40.3279
40.8314
41.3427
41.8643
42.3987
42.9489
43.5181
44.11
25.5645
25.1649
24.7809
24.4124
24.059
23.7206
23.397
23.088
22.7934
22.5131
22.2472
21.9954
21.7578
21.5344
21.3252
21.1304
20.95
20.7841
20.633
20.497
20.3763
20.2712
20.1823
20.1099
20.0546
20.0171
19.998
19.9983
20.0185
20.0584
20.1168
20.1928
20.2858
20.395
20.5199
20.6599
20.8147
20.9837
21.1667
21.3633
21.5732
21.7962
22.0321
22.2806
22.5417
22.8151
23.1006
23.3982
23.7077
24.029
24.3618
24.7059
25.0613
25.4275
25.8044
26.1918
26.5892
26.9963
27.4128
27.8383
28.2723
28.7143
29.1638
29.6203
30.0831
30.5518
31.0255
31.5036
31.9855
32.4705
32.9579
33.4471
33.9374
34.4283
34.9193
35.41
35.9002
36.3897
36.8785
37.3667
37.8547
38.3429
38.8322
39.3235
39.818
40.3171
40.8227
41.3367
41.8615
42.3998
42.9545
43.5289
44.1268
25.5648
25.1652
24.7812
24.4127
24.0593
23.7209
23.3973
23.0882
22.7936
22.5134
22.2474
21.9956
21.758
21.5346
21.3255
21.1306
20.9502
20.7843
20.6332
20.4972
20.3765
20.2714
20.1825
20.1101
20.0548
20.0173
19.9982
19.9984
20.0186
20.0585
20.1169
20.1929
20.2858
20.395
20.5199
20.6599
20.8146
20.9836
21.1666
21.3631
21.573
21.7959
22.0317
22.2802
22.5412
22.8145
23.1
23.3975
23.7069
24.0281
24.3607
24.7048
25.0599
25.426
25.8027
26.1898
26.587
26.9939
27.4101
27.8352
28.2688
28.7104
29.1594
29.6154
30.0777
30.5457
31.0188
31.4962
31.9774
32.4616
32.9482
33.4365
33.926
34.416
34.9063
35.3963
35.8859
36.3749
36.8633
37.3513
37.8393
38.3279
38.8177
39.3099
39.8057
40.3066
40.8145
41.3313
41.8595
42.4017
42.9611
43.541
44.1451
25.5651
25.1655
24.7815
24.413
24.0596
23.7212
23.3975
23.0885
22.7939
22.5136
22.2477
21.9959
21.7583
21.5349
21.3257
21.1308
20.9504
20.7845
20.6334
20.4974
20.3767
20.2716
20.1827
20.1103
20.055
20.0174
19.9984
19.9986
20.0188
20.0586
20.117
20.193
20.2859
20.3951
20.5199
20.6599
20.8146
20.9835
21.1664
21.3629
21.5727
21.7956
22.0314
22.2798
22.5407
22.814
23.0994
23.3968
23.7061
24.0271
24.3597
24.7036
25.0586
25.4245
25.801
26.1879
26.5848
26.9914
27.4072
27.832
28.2652
28.7063
29.1549
29.6103
30.0721
30.5394
31.0118
31.4885
31.9689
32.4523
32.9381
33.4256
33.9142
34.4035
34.893
35.3823
35.8713
36.3598
36.8479
37.3358
37.8239
38.3128
38.8033
39.2965
39.7937
40.2965
40.8067
41.3265
41.8582
42.4047
42.969
43.5545
44.165
25.5655
25.1658
24.7818
24.4133
24.0599
23.7215
23.3978
23.0888
22.7942
22.5139
22.2479
21.9961
21.7585
21.5351
21.3259
21.131
20.9506
20.7847
20.6337
20.4976
20.3769
20.2718
20.1828
20.1104
20.0552
20.0176
19.9985
19.9987
20.0189
20.0588
20.1171
20.1931
20.286
20.3951
20.5199
20.6599
20.8145
20.9834
21.1663
21.3627
21.5725
21.7953
22.031
22.2794
22.5402
22.8134
23.0987
23.3961
23.7053
24.0262
24.3586
24.7024
25.0572
25.4229
25.7992
26.1859
26.5825
26.9888
27.4043
27.8287
28.2615
28.7022
29.1502
29.6051
30.0662
30.5329
31.0046
31.4806
31.9602
32.4428
32.9277
33.4144
33.9022
34.3907
34.8794
35.368
35.8564
36.3445
36.8322
37.32
37.8083
38.2976
38.7889
39.2833
39.782
40.2868
40.7996
41.3224
41.8578
42.4087
42.978
43.5693
44.1864
27.3272
26.8617
26.4133
25.9814
25.5658
25.1661
24.7821
24.4135
24.0602
23.7217
23.3981
23.089
22.7944
22.5142
22.2482
21.9964
21.7588
21.5353
21.3261
21.1313
20.9508
20.785
20.6339
20.4978
20.3771
20.272
20.183
20.1106
20.0553
20.0178
19.9987
19.9989
20.0191
20.0589
20.1172
20.1932
20.286
20.3951
20.5199
20.6598
20.8144
20.9833
21.1661
21.3625
21.5722
21.795
22.0306
22.2789
22.5397
22.8128
23.0981
23.3953
23.7044
24.0252
24.3575
24.7011
25.0558
25.4213
25.7974
26.1838
26.5801
26.9861
27.4013
27.8253
28.2576
28.6979
29.1454
29.5997
30.0602
30.5262
30.9972
31.4724
31.9512
32.433
32.9171
33.4029
33.8898
34.3775
34.8655
35.3534
35.8413
36.3289
36.8164
37.3042
37.7926
38.2824
38.7746
39.2702
39.7706
40.2775
40.7929
41.319
41.8584
42.4137
42.9883
43.5856
44.2093
27.3275
26.8621
26.4136
25.9817
25.5661
25.1664
24.7824
24.4138
24.0605
23.722
23.3984
23.0893
22.7947
22.5144
22.2484
21.9966
21.759
21.5356
21.3264
21.1315
20.951
20.7852
20.6341
20.498
20.3773
20.2722
20.1832
20.1108
20.0555
20.018
19.9989
19.999
20.0192
20.059
20.1173
20.1933
20.2861
20.3952
20.5199
20.6598
20.8144
20.9832
21.1659
21.3623
21.5719
21.7947
22.0303
22.2785
22.5392
22.8122
23.0974
23.3946
23.7036
24.0242
24.3564
24.6998
25.0543
25.4196
25.7955
26.1816
26.5777
26.9833
27.3982
27.8218
28.2537
28.6934
29.1404
29.5941
30.054
30.5193
30.9896
31.464
31.942
32.4229
32.9061
33.391
33.8772
34.364
34.8512
35.3386
35.8258
36.3131
36.8004
37.2882
37.7769
38.2673
38.7604
39.2573
39.7595
40.2687
40.7869
41.3164
41.8598
42.4199
42.9999
43.6033
44.2339
27.3279
26.8624
26.4139
25.982
25.5664
25.1667
24.7827
24.4142
24.0608
23.7223
23.3986
23.0896
22.7949
22.5147
22.2487
21.9969
21.7592
21.5358
21.3266
21.1317
20.9513
20.7854
20.6343
20.4982
20.3775
20.2724
20.1834
20.111
20.0557
20.0181
19.999
19.9992
20.0194
20.0591
20.1174
20.1933
20.2862
20.3952
20.5199
20.6598
20.8143
20.9831
21.1658
21.3621
21.5717
21.7944
22.0299
22.278
22.5387
22.8116
23.0967
23.3938
23.7027
24.0232
24.3552
24.6985
25.0528
25.4179
25.7935
26.1794
26.5751
26.9805
27.3949
27.8181
28.2496
28.6888
29.1352
29.5884
30.0476
30.5122
30.9817
31.4553
31.9324
32.4125
32.8948
33.3789
33.8642
34.3502
34.8367
35.3234
35.8102
36.297
36.7842
37.272
37.7611
38.2522
38.7463
39.2446
39.7488
40.2604
40.7816
41.3146
41.8622
42.4271
43.0127
43.6224
44.2601
28.8309
28.3119
27.8112
27.3283
26.8628
26.4143
25.9824
25.5667
25.167
24.783
24.4145
24.061
23.7226
23.3989
23.0898
22.7952
22.5149
22.2489
21.9971
21.7595
21.536
21.3268
21.132
20.9515
20.7856
20.6345
20.4984
20.3777
20.2726
20.1836
20.1112
20.0559
20.0183
19.9992
19.9994
20.0195
20.0593
20.1175
20.1934
20.2862
20.3952
20.5199
20.6597
20.8142
20.9829
21.1656
21.3618
21.5714
21.794
22.0295
22.2776
22.5382
22.811
23.096
23.393
23.7017
24.0221
24.354
24.6971
25.0512
25.4161
25.7915
26.1771
26.5725
26.9775
27.3916
27.8144
28.2453
28.684
29.1299
29.5824
30.0409
30.5048
30.9735
31.4463
31.9226
32.4018
32.8833
33.3665
33.8509
34.3361
34.8219
35.308
35.7942
36.2808
36.7678
37.2558
37.7453
38.2371
38.7324
39.2323
39.7384
40.2526
40.7769
41.3136
41.8655
42.4355
43.0267
43.6429
44.2878
28.8314
28.3123
27.8116
27.3286
26.8631
26.4146
25.9827
25.567
25.1674
24.7833
24.4148
24.0613
23.7229
23.3992
23.0901
22.7955
22.5152
22.2492
21.9974
21.7597
21.5363
21.3271
21.1322
20.9517
20.7858
20.6347
20.4987
20.3779
20.2728
20.1838
20.1114
20.0561
20.0185
19.9994
19.9995
20.0197
20.0594
20.1177
20.1935
20.2863
20.3953
20.5199
20.6597
20.8141
20.9828
21.1654
21.3616
21.5711
21.7937
22.0291
22.2771
22.5376
22.8104
23.0953
23.3921
23.7008
24.0211
24.3528
24.6957
25.0496
25.4143
25.7894
26.1747
26.5699
26.9745
27.3882
27.8105
28.241
28.6791
29.1244
29.5763
30.0341
30.4972
30.9651
31.4371
31.9125
32.3908
32.8714
33.3537
33.8373
34.3217
34.8068
35.2922
35.7781
36.2643
36.7513
37.2395
37.7295
38.2221
38.7186
39.2202
39.7285
40.2453
40.7729
41.3135
41.8699
42.445
43.0421
43.6648
44.3171
28.8318
28.3127
27.8119
27.329
26.8635
26.4149
25.983
25.5674
25.1677
24.7837
24.4151
24.0616
23.7232
23.3995
23.0904
22.7958
22.5155
22.2494
21.9976
21.76
21.5365
21.3273
21.1324
20.952
20.7861
20.635
20.4989
20.3781
20.273
20.184
20.1116
20.0563
20.0187
19.9996
19.9997
20.0198
20.0595
20.1178
20.1936
20.2864
20.3953
20.5199
20.6596
20.814
20.9827
21.1653
21.3614
21.5708
21.7933
22.0287
22.2766
22.537
22.8097
23.0945
23.3913
23.6998
24.02
24.3515
24.6943
25.048
25.4124
25.7873
26.1723
26.5671
26.9714
27.3846
27.8065
28.2365
28.6741
29.1187
29.5699
30.027
30.4894
30.9565
31.4276
31.9021
32.3795
32.8592
33.3406
33.8234
34.307
34.7914
35.2763
35.7617
36.2477
36.7347
37.2231
37.7137
38.2073
38.7051
39.2084
39.719
40.2387
40.7696
41.3142
41.8752
42.4556
43.0588
43.6882
44.3479
28.8322
28.3131
27.8123
27.3293
26.8638
26.4153
25.9833
25.5677
25.168
24.784
24.4154
24.0619
23.7235
23.3998
23.0907
22.796
22.5157
22.2497
21.9979
21.7602
21.5368
21.3276
21.1327
20.9522
20.7863
20.6352
20.4991
20.3783
20.2732
20.1842
20.1118
20.0565
20.0189
19.9997
19.9998
20.02
20.0597
20.1179
20.1937
20.2864
20.3954
20.5199
20.6596
20.814
20.9826
21.1651
21.3612
21.5705
21.793
22.0283
22.2761
22.5365
22.8091
23.0938
23.3904
23.6988
24.0188
24.3502
24.6928
25.0463
25.4105
25.7851
26.1698
26.5643
26.9681
27.381
27.8024
28.2318
28.6688
29.1129
29.5634
30.0197
30.4813
30.9476
31.4178
31.8915
32.368
32.8467
33.3272
33.8091
34.292
34.7757
35.26
35.745
36.2309
36.7179
37.2067
37.6979
38.1925
38.6918
39.197
39.71
40.2326
40.767
41.3157
41.8815
42.4674
43.0767
43.713
44.3802
28.8326
28.3135
27.8127
27.3297
26.8641
26.4156
25.9837
25.568
25.1683
24.7843
24.4157
24.0622
23.7238
23.4001
23.091
22.7963
22.516
22.25
21.9981
21.7605
21.537
21.3278
21.1329
20.9524
20.7865
20.6354
20.4993
20.3785
20.2735
20.1845
20.112
20.0567
20.0191
19.9999
20
20.0201
20.0598
20.118
20.1938
20.2865
20.3954
20.5199
20.6596
20.8139
20.9824
21.1649
21.3609
21.5703
21.7926
22.0278
22.2756
22.5359
22.8084
23.093
23.3896
23.6978
24.0177
24.3489
24.6913
25.0445
25.4085
25.7828
26.1672
26.5613
26.9648
27.3772
27.7981
28.227
28.6634
29.1068
29.5566
30.0122
30.473
30.9384
31.4078
31.8805
32.3561
32.8339
33.3136
33.7946
34.2767
34.7598
35.2436
35.7282
36.2139
36.7011
37.1902
37.6822
38.1779
38.6787
39.186
39.7014
40.2271
40.7652
41.3182
41.8889
42.4803
43.0958
43.7391
44.4139
28.833
28.3139
27.813
27.3301
26.8645
26.4159
25.984
25.5683
25.1686
24.7846
24.416
24.0625
23.7241
23.4004
23.0912
22.7966
22.5163
22.2502
21.9984
21.7607
21.5373
21.3281
21.1331
20.9527
20.7868
20.6356
20.4995
20.3788
20.2737
20.1847
20.1122
20.0569
20.0193
20.0001
20.0002
20.0203
20.06
20.1181
20.1939
20.2866
20.3954
20.5199
20.6595
20.8138
20.9823
21.1647
21.3607
21.57
21.7923
22.0274
22.2751
22.5353
22.8077
23.0923
23.3887
23.6968
24.0165
24.3475
24.6897
25.0428
25.4065
25.7805
26.1646
26.5583
26.9614
27.3733
27.7937
28.2221
28.6579
29.1006
29.5496
30.0045
30.4644
30.929
31.3974
31.8692
32.3439
32.8208
33.2996
33.7798
34.2612
34.7435
35.2269
35.7112
36.1968
36.6841
37.1738
37.6665
38.1635
38.6659
39.1753
39.6934
40.2223
40.7641
41.3215
41.8972
42.4944
43.1162
43.7665
44.449
28.8334
28.3142
27.8134
27.3304
26.8648
26.4163
25.9843
25.5686
25.1689
24.7849
24.4163
24.0628
23.7244
23.4006
23.0915
22.7969
22.5165
22.2505
21.9987
21.761
21.5375
21.3283
21.1334
20.9529
20.787
20.6359
20.4998
20.379
20.2739
20.1849
20.1124
20.0571
20.0195
20.0003
20.0004
20.0204
20.0601
20.1182
20.194
20.2866
20.3955
20.5199
20.6595
20.8137
20.9822
21.1645
21.3604
21.5697
21.7919
22.027
22.2746
22.5347
22.8071
23.0915
23.3878
23.6958
24.0153
24.3462
24.6881
25.0409
25.4044
25.7781
26.1619
26.5552
26.9579
27.3693
27.7892
28.217
28.6521
29.0942
29.5425
29.9965
30.4556
30.9193
31.3868
31.8577
32.3314
32.8074
33.2853
33.7647
34.2453
34.7271
35.2099
35.694
36.1796
36.6671
37.1573
37.651
38.1493
38.6534
39.1651
39.6859
40.2181
40.7638
41.3257
41.9066
42.5095
43.1379
43.7952
44.4855
28.8338
28.3146
27.8138
27.3308
26.8652
26.4166
25.9846
25.569
25.1692
24.7852
24.4166
24.0631
23.7247
23.4009
23.0918
22.7971
22.5168
22.2508
21.9989
21.7613
21.5378
21.3286
21.1336
20.9531
20.7872
20.6361
20.5
20.3792
20.2741
20.1851
20.1126
20.0573
20.0197
20.0005
20.0005
20.0206
20.0602
20.1184
20.1941
20.2867
20.3955
20.5199
20.6594
20.8136
20.982
21.1643
21.3602
21.5694
21.7915
22.0265
22.2741
22.5341
22.8064
23.0907
23.3868
23.6947
24.0141
24.3447
24.6865
25.0391
25.4022
25.7757
26.1591
26.552
26.9542
27.3652
27.7845
28.2117
28.6462
29.0876
29.5351
29.9883
30.4466
30.9093
31.3759
31.8459
32.3186
32.7937
33.2707
33.7493
34.2292
34.7104
35.1928
35.6767
36.1622
36.6501
37.1409
37.6356
38.1353
38.6413
39.1553
39.679
40.2146
40.7643
41.3309
41.917
42.5258
43.1607
43.8252
44.5232
28.8342
28.315
27.8141
27.3311
26.8655
26.4169
25.9849
25.5693
25.1696
24.7855
24.4169
24.0634
23.725
23.4012
23.0921
22.7974
22.5171
22.251
21.9992
21.7615
21.538
21.3288
21.1339
20.9534
20.7875
20.6363
20.5002
20.3794
20.2743
20.1853
20.1128
20.0575
20.0199
20.0007
20.0007
20.0208
20.0604
20.1185
20.1942
20.2868
20.3955
20.5199
20.6594
20.8135
20.9819
21.1642
21.36
21.5691
21.7912
22.0261
22.2736
22.5335
22.8057
23.0898
23.3859
23.6936
24.0128
24.3433
24.6848
25.0372
25.4001
25.7732
26.1562
26.5488
26.9505
27.361
27.7798
28.2063
28.6402
29.0808
29.5275
29.9799
30.4373
30.8991
31.3648
31.8337
32.3055
32.7797
33.2558
33.7336
34.2128
34.6934
35.1755
35.6592
36.1448
36.6331
37.1246
37.6203
38.1215
38.6295
39.1459
39.6726
40.2118
40.7656
41.3369
41.9284
42.5431
43.1846
43.8563
44.5621
28.8346
28.3154
27.8145
27.3314
26.8658
26.4172
25.9853
25.5696
25.1699
24.7858
24.4172
24.0637
23.7252
23.4015
23.0924
22.7977
22.5174
22.2513
21.9994
21.7618
21.5383
21.3291
21.1341
20.9536
20.7877
20.6366
20.5005
20.3797
20.2746
20.1855
20.1131
20.0577
20.0201
20.0009
20.0009
20.0209
20.0605
20.1186
20.1943
20.2868
20.3956
20.5199
20.6594
20.8135
20.9818
21.164
21.3597
21.5687
21.7908
22.0256
22.2731
22.5329
22.8049
23.089
23.3849
23.6925
24.0115
24.3418
24.6831
25.0352
25.3978
25.7706
26.1533
26.5454
26.9467
27.3567
27.7748
28.2008
28.6339
29.0738
29.5197
29.9712
30.4277
30.8886
31.3533
31.8213
32.2922
32.7654
33.2406
33.7176
34.1962
34.6763
35.158
35.6415
36.1273
36.616
37.1083
37.6053
38.108
38.6181
39.137
39.6668
40.2096
40.7677
41.3438
41.9407
42.5615
43.2096
43.8885
44.6022
28.835
28.3157
27.8148
27.3318
26.8662
26.4176
25.9856
25.5699
25.1702
24.7861
24.4175
24.064
23.7255
23.4018
23.0927
22.798
22.5176
22.2516
21.9997
21.762
21.5386
21.3293
21.1344
20.9539
20.788
20.6368
20.5007
20.3799
20.2748
20.1858
20.1133
20.0579
20.0203
20.0011
20.0011
20.0211
20.0607
20.1188
20.1944
20.2869
20.3956
20.5199
20.6593
20.8134
20.9816
21.1638
21.3595
21.5684
21.7904
22.0252
22.2726
22.5323
22.8042
23.0882
23.384
23.6914
24.0102
24.3403
24.6814
25.0332
25.3955
25.768
26.1503
26.542
26.9428
27.3522
27.7698
28.1951
28.6275
29.0666
29.5117
29.9624
30.4179
30.8779
31.3416
31.8087
32.2785
32.7508
33.2252
33.7014
34.1793
34.6589
35.1403
35.6238
36.1098
36.599
37.0922
37.5903
38.0948
38.607
39.1286
39.6616
40.2081
40.7706
41.3516
41.9539
42.5809
43.2356
43.9218
44.6432
28.8353
28.3161
27.8152
27.3321
26.8665
26.4179
25.9859
25.5702
25.1705
24.7864
24.4178
24.0643
23.7258
23.4021
23.0929
22.7983
22.5179
22.2518
22
21.7623
21.5388
21.3296
21.1346
20.9541
20.7882
20.6371
20.5009
20.3801
20.275
20.186
20.1135
20.0581
20.0205
20.0013
20.0013
20.0213
20.0609
20.1189
20.1945
20.287
20.3957
20.5199
20.6593
20.8133
20.9815
21.1636
21.3592
21.5682
21.7901
22.0248
22.272
22.5317
22.8035
23.0873
23.383
23.6903
24.0089
24.3388
24.6797
25.0312
25.3932
25.7653
26.1472
26.5385
26.9387
27.3476
27.7646
28.1892
28.6209
29.0592
29.5035
29.9533
30.4079
30.8669
31.3297
31.7957
32.2646
32.736
33.2095
33.685
34.1622
34.6414
35.1225
35.606
36.0922
36.582
37.0761
37.5757
38.0819
38.5964
39.1207
39.657
40.2074
40.7742
41.3602
41.9681
42.6011
43.2626
43.956
44.6852
28.8357
28.3164
27.8155
27.3324
26.8668
26.4182
25.9862
25.5705
25.1708
24.7867
24.4181
24.0646
23.7261
23.4024
23.0932
22.7985
22.5182
22.2521
22.0002
21.7626
21.5391
21.3298
21.1349
20.9544
20.7884
20.6373
20.5012
20.3804
20.2753
20.1862
20.1137
20.0584
20.0207
20.0015
20.0015
20.0215
20.061
20.119
20.1946
20.2871
20.3957
20.52
20.6593
20.8132
20.9814
21.1634
21.359
21.5679
21.7897
22.0243
22.2715
22.5311
22.8028
23.0865
23.382
23.6891
24.0076
24.3373
24.6779
25.0292
25.3908
25.7626
26.144
26.5348
26.9346
27.3429
27.7593
28.1832
28.6142
29.0517
29.4951
29.944
30.3977
30.8557
31.3174
31.7825
32.2505
32.7209
33.1936
33.6683
34.145
34.6237
35.1046
35.5881
36.0747
36.5651
37.0602
37.5612
38.0693
38.5861
39.1133
39.653
40.2073
40.7786
41.3696
41.9831
42.6223
43.2905
43.9911
44.728
28.836
28.3167
27.8158
27.3327
26.8671
26.4185
25.9865
25.5708
25.1711
24.787
24.4184
24.0649
23.7264
23.4027
23.0935
22.7988
22.5185
22.2524
22.0005
21.7628
21.5393
21.3301
21.1351
20.9546
20.7887
20.6375
20.5014
20.3806
20.2755
20.1865
20.114
20.0586
20.0209
20.0017
20.0017
20.0216
20.0612
20.1192
20.1948
20.2872
20.3958
20.52
20.6593
20.8132
20.9813
21.1633
21.3588
21.5676
21.7894
22.0239
22.271
22.5305
22.8021
23.0857
23.381
23.688
24.0063
24.3357
24.6761
25.0271
25.3884
25.7598
26.1408
26.5312
26.9304
27.3381
27.7538
28.1771
28.6073
29.0439
29.4865
29.9345
30.3872
30.8442
31.305
31.7691
32.236
32.7056
33.1774
33.6514
34.1275
34.6058
35.0865
35.5701
36.0571
36.5483
37.0445
37.547
38.0571
38.5763
39.1065
39.6496
40.2079
40.7837
41.3798
41.999
42.6444
43.3192
44.027
44.7715
28.8364
28.3171
27.8161
27.3331
26.8674
26.4188
25.9868
25.5711
25.1714
24.7873
24.4187
24.0652
23.7267
23.4029
23.0938
22.7991
22.5187
22.2526
22.0008
21.7631
21.5396
21.3303
21.1354
20.9549
20.7889
20.6378
20.5017
20.3809
20.2757
20.1867
20.1142
20.0588
20.0211
20.0019
20.0019
20.0218
20.0614
20.1193
20.1949
20.2873
20.3958
20.52
20.6593
20.8131
20.9812
21.1631
21.3586
21.5673
21.789
22.0235
22.2705
22.5299
22.8014
23.0848
23.3801
23.6868
24.0049
24.3342
24.6743
25.0249
25.3859
25.7569
26.1375
26.5274
26.9261
27.3332
27.7482
28.1707
28.6002
29.036
29.4777
29.9247
30.3765
30.8325
31.2923
31.7554
32.2214
32.69
33.161
33.6343
34.1098
34.5878
35.0684
35.5521
36.0396
36.5315
37.029
37.533
38.0452
38.5669
39.1001
39.6468
40.2091
40.7896
41.3908
42.0156
42.6672
43.3487
44.0636
44.8156
28.8367
28.3174
27.8164
27.3334
26.8677
26.4191
25.9871
25.5714
25.1717
24.7876
24.419
24.0655
23.727
23.4032
23.0941
22.7994
22.519
22.2529
22.001
21.7633
21.5399
21.3306
21.1356
20.9551
20.7892
20.638
20.5019
20.3811
20.276
20.1869
20.1144
20.059
20.0214
20.0021
20.0021
20.022
20.0615
20.1195
20.195
20.2874
20.3959
20.5201
20.6593
20.8131
20.9811
21.163
21.3584
21.5671
21.7887
22.0231
22.27
22.5293
22.8007
23.084
23.3791
23.6857
24.0036
24.3326
24.6724
25.0228
25.3834
25.754
26.1342
26.5235
26.9217
27.3282
27.7425
28.1643
28.5929
29.0279
29.4687
29.9147
30.3656
30.8206
31.2794
31.7415
32.2066
32.6742
33.1444
33.617
34.092
34.5697
35.0502
35.5342
36.0221
36.5149
37.0136
37.5194
38.0336
38.558
39.0943
39.6445
40.211
40.7961
41.4025
42.033
42.6907
43.3788
44.1008
44.8603
29.3751
28.837
28.3177
27.8167
27.3336
26.868
26.4194
25.9874
25.5717
25.1719
24.7879
24.4192
24.0658
23.7273
23.4035
23.0943
22.7996
22.5193
22.2532
22.0013
21.7636
21.5401
21.3309
21.1359
20.9554
20.7895
20.6383
20.5022
20.3814
20.2762
20.1872
20.1147
20.0593
20.0216
20.0023
20.0023
20.0222
20.0617
20.1197
20.1952
20.2875
20.396
20.5201
20.6593
20.813
20.981
21.1629
21.3582
21.5668
21.7884
22.0227
22.2696
22.5287
22.8
23.0832
23.3781
23.6845
24.0022
24.331
24.6705
25.0206
25.3809
25.7511
26.1307
26.5196
26.9172
27.323
27.7367
28.1577
28.5855
29.0196
29.4594
29.9045
30.3543
30.8084
31.2663
31.7276
32.1917
32.6584
33.1277
33.5996
34.0741
34.5515
35.032
35.5162
36.0048
36.4985
36.9985
37.5061
38.0225
38.5496
39.089
39.6429
40.2136
40.8034
41.4149
42.0511
42.715
43.4096
44.1386
44.9054
29.3754
28.8373
28.318
27.817
27.3339
26.8683
26.4196
25.9876
25.5719
25.1722
24.7882
24.4195
24.066
23.7275
23.4038
23.0946
22.7999
22.5195
22.2535
22.0016
21.7639
21.5404
21.3311
21.1362
20.9556
20.7897
20.6386
20.5024
20.3816
20.2765
20.1874
20.1149
20.0595
20.0218
20.0026
20.0025
20.0224
20.0619
20.1198
20.1953
20.2876
20.3961
20.5202
20.6593
20.813
20.981
21.1628
21.3581
21.5666
21.7881
22.0224
22.2691
22.5282
22.7993
23.0824
23.3772
23.6834
24.0009
24.3294
24.6687
25.0184
25.3783
25.7481
26.1273
26.5156
26.9125
27.3177
27.7307
28.1509
28.5778
29.011
29.4498
29.8938
30.3426
30.7959
31.2531
31.7136
32.1769
32.6426
33.111
33.5822
34.0562
34.5333
35.0138
35.4983
35.9875
36.4823
36.9837
37.4931
38.0118
38.5416
39.0843
39.642
40.2168
40.8113
41.4281
42.0699
42.7398
43.441
44.1769
44.9509
29.3756
28.8375
28.3182
27.8173
27.3342
26.8685
26.4199
25.9879
25.5722
25.1725
24.7884
24.4198
24.0663
23.7278
23.404
23.0949
22.8002
22.5198
22.2537
22.0018
21.7641
21.5406
21.3314
21.1364
20.9559
20.79
20.6388
20.5027
20.3819
20.2768
20.1877
20.1152
20.0598
20.0221
20.0028
20.0028
20.0227
20.0621
20.12
20.1955
20.2878
20.3962
20.5203
20.6593
20.813
20.9809
21.1627
21.3579
21.5664
21.7878
22.022
22.2687
22.5277
22.7987
23.0816
23.3762
23.6823
23.9996
24.3278
24.6668
25.0162
25.3757
25.745
26.1237
26.5115
26.9078
27.3123
27.7245
28.1439
28.5699
29.0021
29.4398
29.8828
30.3308
30.7833
31.2398
31.6996
32.1621
32.627
33.0944
33.5647
34.0383
34.5151
34.9957
35.4806
35.9705
36.4663
36.9692
37.4805
38.0016
38.5342
39.0802
39.6416
40.2207
40.8199
41.4419
42.0894
42.7653
43.4729
44.2155
29.3759
28.8378
28.3185
27.8175
27.3345
26.8688
26.4202
25.9882
25.5725
25.1727
24.7887
24.4201
24.0666
23.7281
23.4043
23.0951
22.8004
22.5201
22.254
22.0021
21.7644
21.5409
21.3316
21.1367
20.9562
20.7902
20.6391
20.503
20.3822
20.277
20.188
20.1155
20.06
20.0223
20.0031
20.003
20.0229