/*--------------------------------*- C++ -*----------------------------------*\
  =========                 |
  \\      /  F ield         | OpenFOAM: The Open Source CFD Toolbox
   \\    /   O peration     | Website:  https://openfoam.org
    \\  /    A nd           | Version:  10
     \\/     M anipulation  |
\*---------------------------------------------------------------------------*/
FoamFile
{
    format      ascii;
    class       volScalarField;
    location    "16000";
    object      Co;
}
// * * * * * * * * * * * * * * * * * * * * * * * * * * * * * * * * * * * * * //

dimensions      [0 0 0 0 0 0 0];

internalField   nonuniform List<scalar> 
17969
(
70.1494
25.1604
11.7595
36.8903
67.9658
98.2966
124.544
144.858
159.386
169.214
175.49
179.212
181.176
181.949
181.909
181.304
180.295
178.989
177.457
175.751
173.904
171.942
169.884
167.744
165.531
163.255
160.921
158.535
156.1
153.621
151.1
148.539
145.94
143.307
140.639
137.94
135.21
132.452
129.667
126.856
124.022
121.165
118.287
115.39
112.476
109.545
106.601
103.643
100.674
97.6959
94.7093
91.7159
88.7172
85.7144
82.7089
79.7018
76.6943
73.6873
70.6818
67.6785
64.6782
61.6813
58.6884
55.6995
52.7148
49.7341
46.7572
43.7833
40.8116
37.8409
34.8696
31.8956
28.9163
25.9283
23.4177
21.4131
19.4743
17.5912
16.4457
18.092
19.656
21.1435
22.56
23.9111
25.2025
26.4396
27.627
28.7683
29.866
30.9228
31.9412
32.9237
33.8731
34.7919
35.6828
36.5482
37.3905
38.2121
39.0149
39.8015
72.4389
27.2089
13.0464
22.4502
50.0948
79.714
108.735
134.093
154.068
168.698
178.899
185.623
189.726
191.94
192.831
192.8
192.12
190.976
189.493
187.755
185.822
183.735
181.525
179.214
176.818
174.348
171.816
169.228
166.589
163.905
161.179
158.414
155.613
152.779
149.913
147.016
144.092
141.141
138.164
135.165
132.143
129.101
126.04
122.961
119.866
116.757
113.634
110.501
107.357
104.205
101.046
97.8812
94.7124
91.5407
88.3674
85.1939
82.0211
78.8502
75.6821
72.5178
69.3579
66.2031
63.054
59.9108
56.7738
53.6429
50.518
47.3985
44.2839
41.1731
38.0646
34.9566
31.8467
28.7318
26.164
24.1714
22.2483
20.3846
18.7529
20.3057
21.9269
23.4692
24.9382
26.3395
27.6791
28.9624
30.1941
31.3774
32.5147
33.6086
34.6618
35.677
36.6571
37.6047
38.5228
39.414
40.2807
41.1253
41.9503
42.7577
74.5816
29.0353
17.2941
13.7668
32.8262
58.8835
87.2157
115.352
140.423
160.644
175.873
186.803
194.247
198.962
201.621
202.784
202.877
202.207
200.989
199.371
197.457
195.318
193.006
190.558
187.999
185.351
182.627
179.84
176.998
174.107
171.173
168.2
165.192
162.151
159.081
155.982
152.858
149.709
146.538
143.345
140.133
136.903
133.655
130.392
127.116
123.826
120.525
117.215
113.896
110.571
107.24
103.905
100.567
97.2279
93.8886
90.5505
87.2146
83.882
80.5539
77.2311
73.9144
70.6046
67.3023
64.0078
60.7216
57.4437
54.1742
50.9126
47.6585
44.411
41.169
37.9308
34.6942
31.4565
28.8335
26.8529
24.9464
23.1035
21.3137
22.4316
24.1109
25.7089
27.2314
28.684
30.0729
31.4036
32.6806
33.9069
35.085
36.2174
37.307
38.3565
39.3691
40.3478
41.2954
42.2149
43.1088
43.9799
44.8305
45.6631
76.6837
30.4956
20.3299
13.4621
17.8212
38.9963
63.5236
90.6263
118.1
143.23
164.153
180.39
192.359
200.798
206.389
209.735
211.378
211.766
211.242
210.055
208.385
206.357
204.062
201.562
198.906
196.124
193.244
190.282
187.253
184.168
181.034
177.859
174.647
171.402
168.128
164.827
161.502
158.155
154.787
151.4
147.996
144.576
141.141
137.693
134.234
130.763
127.284
123.797
120.304
116.805
113.303
109.799
106.293
102.788
99.2839
95.7828
92.2856
88.7934
85.3073
81.8282
78.357
74.8945
71.4414
67.9982
64.5654
61.1431
57.7315
54.3304
50.9395
47.5582
44.1853
40.8197
37.4594
34.1018
31.4244
29.4548
27.5643
25.7421
23.9777
24.4667
26.2043
27.8585
29.4351
30.9397
32.3784
33.757
35.0799
36.3499
37.5694
38.7411
39.8678
40.9525
41.9984
43.0088
43.9867
44.9353
45.8574
46.7558
47.6332
48.492
49.3343
50.1621
50.9772
51.7814
78.6526
31.7967
22.7019
15.9992
11.8401
22.2524
41.7402
64.6864
90.4869
117.279
142.603
164.483
182.002
195.3
204.99
211.696
215.977
218.337
219.227
219.018
218
216.385
214.329
211.945
209.312
206.49
203.522
200.438
197.262
194.013
190.703
187.342
183.939
180.5
177.029
173.532
170.01
166.467
162.904
159.325
155.73
152.121
148.5
144.867
141.226
137.575
133.918
130.255
126.588
122.918
119.245
115.572
111.9
108.23
104.563
100.901
97.2439
93.5938
89.9516
86.3181
82.6944
79.0812
75.4794
71.8896
68.3122
64.7477
61.1962
57.6578
54.1322
50.6191
47.1176
43.6267
40.1448
36.6696
33.9379
31.9771
30.1007
28.2981
26.5583
26.4092
28.2049
29.9152
31.5457
33.1023
34.5909
36.0174
37.386
38.6998
39.9611
41.1724
42.3367
43.457
44.5367
45.5792
46.5878
47.5657
48.516
49.4417
50.3455
51.2301
52.0977
52.9506
53.7907
54.62
80.5545
32.8897
24.5365
17.7421
13.5726
13.354
24.1878
41.999
63.2128
87.5018
113.432
138.855
161.693
180.668
195.53
206.671
214.698
220.138
223.448
225.061
225.364
224.677
223.25
221.272
218.883
216.185
213.253
210.142
206.893
203.535
200.092
196.579
193.012
189.399
185.749
182.067
178.359
174.628
170.878
167.111
163.329
159.535
155.73
151.916
148.094
144.266
140.433
136.595
132.756
128.915
125.074
121.234
117.397
113.564
109.735
105.913
102.098
98.292
94.4953
90.7092
86.9347
83.1726
79.4239
75.6892
71.9691
68.2641
64.5745
60.9005
57.242
53.5988
49.9704
46.3558
42.7538
39.1626
36.3757
34.4209
32.556
30.7704
29.0533
28.2578
30.1108
31.8765
33.5606
35.1688
36.7068
38.1806
39.5948
40.9521
42.2551
43.5061
44.7081
45.8643
46.9782
48.0531
49.0926
50.1001
51.0789
52.0321
52.9628
53.8736
54.7671
55.6456
56.5113
57.3661
82.4012
33.4945
26.5147
19.7709
15.0332
12.5522
14.196
24.4671
40.5815
59.919
82.4637
107.23
132.421
156.015
176.458
193.01
205.794
215.31
222.078
226.541
229.094
230.117
229.945
228.862
227.089
224.8
222.12
219.147
215.949
212.58
209.078
205.473
201.787
198.037
194.235
190.393
186.517
182.613
178.687
174.743
170.783
166.811
162.828
158.837
154.839
150.836
146.83
142.821
138.812
134.803
130.795
126.791
122.79
118.796
114.808
110.827
106.856
102.895
98.946
95.0089
91.0852
87.1759
83.2819
79.404
75.5427
71.6988
67.8726
64.0645
60.2745
56.5026
52.7485
49.0115
45.2906
41.5844
38.7413
36.7889
34.9322
33.1605
31.4631
30.0931
31.921
33.7413
35.4781
37.1371
38.7238
40.2441
41.7029
43.1033
44.4474
45.7379
46.9775
48.1695
49.3173
50.4246
51.495
52.5319
53.539
54.5194
55.4765
56.4131
57.332
58.2357
59.1265
60.0064
60.8772
84.2346
33.7639
28.0408
21.7513
16.4934
13.7442
12.2913
14.5192
23.6686
38.1166
55.5168
76.114
99.3518
123.857
147.822
169.505
187.79
202.367
213.523
221.759
227.528
231.209
233.15
233.687
233.118
231.697
229.628
227.065
224.13
220.911
217.476
213.875
210.147
206.32
202.415
198.449
194.435
190.384
186.303
182.197
178.073
173.934
169.782
165.622
161.455
157.284
153.109
148.933
144.758
140.584
136.413
132.246
128.085
123.932
119.786
115.65
111.524
107.411
103.31
99.2237
95.1525
91.0976
87.0598
83.0401
79.0392
75.0578
71.0964
67.1554
63.2352
59.3358
55.4571
51.5987
47.7599
43.9395
41.0386
39.0849
37.2325
35.4709
33.7896
32.178
33.6354
35.509
37.2974
39.006
40.6404
42.2062
43.7086
45.151
46.5356
47.8649
49.1418
50.3693
51.551
52.6906
53.7916
54.8578
55.8929
56.9003
57.8833
58.8453
59.7892
60.7177
61.6333
62.5381
63.4338
64.3222
65.2048
86.077
33.8043
29.0584
23.9603
18.4122
14.8306
13.2952
12.4563
14.5287
22.2635
35.1489
50.6557
69.189
90.5852
113.927
137.701
160.207
180.046
196.459
209.392
219.213
226.402
231.348
234.38
235.808
235.931
235.019
233.303
230.97
228.165
225.002
221.564
217.917
214.108
210.176
206.148
202.046
197.885
193.68
189.439
185.171
180.882
176.577
172.259
167.934
163.602
159.266
154.929
150.593
146.259
141.929
137.604
133.285
128.975
124.675
120.385
116.107
111.843
107.593
103.359
99.1423
94.9433
90.7633
86.6033
82.4641
78.3466
74.2513
70.1788
66.1295
62.1036
58.1014
54.1224
50.1665
46.2326
43.2723
41.3134
39.4613
37.7057
36.0363
34.4427
35.2544
37.1798
39.0183
40.7753
42.4561
44.0662
45.6108
47.0939
48.518
49.8853
51.1987
52.4612
53.6764
54.8478
55.9792
57.0742
58.1368
59.1704
60.1787
61.1651
62.1327
63.0851
64.0249
64.954
65.874
66.7868
67.6939
68.5968
87.9424
33.6873
29.7319
25.5984
20.6746
16.6058
14.3793
13.4232
12.964
14.444
20.6417
32.1163
45.8502
62.319
81.6707
103.415
126.415
149.163
170.149
188.267
203.025
214.542
223.228
229.529
233.773
236.244
237.222
236.979
235.762
233.783
231.215
228.193
224.825
221.191
217.353
213.358
209.242
205.033
200.752
196.415
192.036
187.623
183.185
178.729
174.259
169.779
165.293
160.804
156.315
151.827
147.342
142.864
138.392
133.93
129.477
125.037
120.609
116.197
111.8
107.42
103.059
98.718
94.3974
90.0986
85.8226
81.5703
77.3423
73.1395
68.9623
64.8111
60.6862
56.5877
52.5153
48.4685
45.4471
43.4793
41.6235
39.8697
38.2078
36.6278
36.7788
38.7544
40.6415
42.4454
44.1712
45.8242
47.4097
48.9319
50.394
51.7982
53.1471
54.4439
55.6919
56.8946
58.0558
59.1792
60.2687
61.3281
62.3609
63.3706
64.3605
65.3347
66.297
67.2495
68.1933
69.1297
70.0607
70.9879
71.9128
72.8365
89.8406
33.4663
30.1932
26.9223
22.6861
18.4355
15.6161
14.5395
13.9638
13.7521
14.4078
19.5552
29.2995
41.4353
55.9479
73.1875
93.0204
114.714
137.057
158.621
178.089
194.597
207.863
218.133
225.836
231.356
234.974
236.943
237.518
236.947
235.455
233.239
230.458
227.241
223.688
219.877
215.867
211.703
207.421
203.048
198.605
194.108
189.569
184.999
180.406
175.796
171.175
166.546
161.914
157.281
152.65
148.024
143.405
138.794
134.194
129.607
125.033
120.475
115.933
111.411
106.908
102.426
97.9663
93.5303
89.119
84.7332
80.374
76.0421
71.7381
67.4628
63.2164
58.9991
54.8111
50.6519
47.5681
45.5877
43.7243
41.9682
40.3095
38.7385
38.2101
40.2342
42.1681
44.0172
45.7866
47.4811
49.1059
50.6658
52.1641
53.6036
54.9867
56.3164
57.5958
58.8285
60.0181
61.1687
62.2839
63.3678
64.4242
65.4565
66.4681
67.4629
68.4455
69.4186
70.3837
71.342
72.2954
73.2457
74.1944
75.1428
76.0917
77.0422
77.9951
78.9513
91.7763
33.1655
30.5193
28.1045
24.4883
20.833
17.4548
15.5475
14.9465
14.6363
14.599
14.8382
18.9988
26.6999
37.471
50.2412
65.445
83.2154
103.207
124.561
146.052
166.351
184.324
199.317
211.245
220.417
227.247
232.062
235.112
236.624
236.829
235.955
234.21
231.775
228.8
225.403
221.681
217.708
213.539
209.221
204.787
200.263
195.671
191.026
186.341
181.626
176.89
172.139
167.378
162.612
157.845
153.08
148.321
143.568
138.826
134.095
129.379
124.679
119.996
115.332
110.69
106.07
101.473
96.9017
92.3567
87.8391
83.35
78.8904
74.461
70.0626
65.6957
61.3608
57.0581
52.7874
49.6398
47.6435
45.7691
44.0068
42.3472
40.7809
39.6068
41.6211
43.6001
45.4927
47.3038
49.0384
50.7013
52.2971
53.8298
55.3025
56.7178
58.0783
59.3873
60.648
61.8642
63.0398
64.1788
65.2852
66.3632
67.4167
68.4494
69.4651
70.4679
71.4607
72.4454
73.4237
74.3977
75.3698
76.3413
77.3133
78.2868
79.2626
80.2415
81.2246
93.7474
32.7696
30.7306
29.2061
26.2498
23.1624
19.9454
17.0448
15.5846
15.247
15.1322
15.2292
15.5401
18.2868
24.1419
33.829
45.151
58.5262
74.2737
92.3618
112.287
133.111
153.629
172.614
189.128
202.714
213.426
221.607
227.642
231.812
234.337
235.422
235.28
234.121
232.137
229.495
226.334
222.769
218.887
214.761
210.445
205.982
201.405
196.741
192.009
187.226
182.405
177.556
172.687
167.805
162.915
158.023
153.132
148.246
143.368
138.501
133.647
128.808
123.988
119.187
114.407
109.651
104.92
100.215
95.5383
90.8906
86.2733
81.6874
77.134
72.6139
68.1279
63.6765
59.26
54.8788
51.6664
49.6513
47.7626
45.9908
44.3266
42.7608
41.2842
42.9173
44.9397
46.874
48.7252
50.4981
52.1973
53.8273
55.3924
56.8962
58.3415
59.731
61.0675
62.3545
63.5955
64.7943
65.9551
67.0822
68.1798
69.2522
70.3038
71.3387
72.361
73.3737
74.3784
75.3764
76.37
77.3623
78.3554
79.3501
80.3472
81.3474
82.3515
83.3603
95.7492
32.2266
30.7327
30.1364
27.9004
25.3984
22.7283
19.8097
16.9376
15.4904
15.3411
15.3705
15.5701
15.9379
17.3333
21.9553
30.3866
40.5617
52.4079
66.3168
82.4796
100.716
120.406
140.559
160.012
177.671
192.778
205.045
214.63
221.895
227.193
230.759
232.786
233.463
232.985
231.548
229.33
226.485
223.145
219.414
215.378
211.105
206.647
202.045
197.333
192.535
187.671
182.758
177.809
172.833
167.84
162.836
157.827
152.818
147.814
142.817
137.832
132.861
127.908
122.973
118.06
113.171
108.308
103.472
98.6656
93.8896
89.1458
84.4354
79.7595
75.1192
70.5154
65.9488
61.42
56.9293
53.6515
51.6149
49.7093
47.925
46.2529
44.6841
43.2094
44.125
46.189
48.1632
50.0526
51.8619
53.5956
55.258
56.8536
58.3863
59.8595
61.2759
62.6384
63.95
65.2143
66.435
67.6164
68.7627
69.8785
70.9684
72.0368
73.0882
74.127
75.1566
76.1794
77.1967
78.21
79.2223
80.2359
81.252
82.2714
83.2948
84.3229
85.3565
97.7873
31.5249
30.4005
30.6839
29.1846
27.2774
25.1383
22.7405
20.0466
17.0304
15.4158
15.3922
15.5159
15.7791
16.1764
16.7094
20.5799
27.1541
36.4583
47.0976
59.4325
73.7914
90.2457
108.481
127.78
147.137
165.454
181.779
195.515
206.521
215.042
221.448
226.046
229.031
230.572
230.845
230.035
228.321
225.868
222.82
219.298
215.403
211.214
206.795
202.197
197.461
192.616
187.69
182.7
177.663
172.593
167.499
162.389
157.272
152.153
147.038
141.93
136.833
131.752
126.689
121.647
116.629
111.637
106.673
101.739
96.8369
91.9686
87.1356
82.339
77.5802
72.8603
68.18
63.5403
58.9414
55.5978
53.5376
51.6127
49.8134
48.1306
46.5555
45.0794
45.246
47.35
49.3623
51.2879
53.1316
54.8978
56.5909
58.2151
59.7747
61.2734
62.7146
64.101
65.4354
66.7212
67.9623
69.1628
70.327
71.4596
72.5653
73.6487
74.7145
75.767
76.81
77.8469
78.88
79.9109
80.9419
81.975
83.0114
84.052
85.0976
86.1487
87.2059
88.2697
99.8768
30.7044
29.7547
30.7466
29.9047
28.5453
26.8818
24.9393
22.7166
20.1961
17.3471
15.7745
15.7462
15.9168
16.2008
16.5933
17.0989
19.4412
24.3087
32.9337
42.6296
53.6812
66.4401
81.1531
97.7653
115.839
134.594
153.034
170.146
185.113
197.492
207.287
214.802
220.392
224.309
226.722
227.78
227.65
226.502
224.505
221.811
218.554
214.847
210.783
206.439
201.874
197.137
192.267
187.294
182.243
177.132
171.978
166.792
161.587
156.37
151.148
145.928
140.716
135.515
130.33
125.164
120.021
114.904
109.815
104.757
99.732
94.7417
89.7882
84.873
79.9977
75.1634
70.3712
65.6222
60.9169
57.5073
55.4217
53.4755
51.6592
49.9634
48.3795
46.8988
46.2819
48.4243
50.473
52.433
54.3091
56.1059
57.8276
59.4785
61.0628
62.5848
64.0481
65.4558
66.8107
68.116
69.3753
70.5927
71.7726
72.9197
74.0388
75.1347
76.2125
77.2765
78.331
79.3797
80.4256
81.4713
82.5187
83.5696
84.6251
85.6861
86.7532
87.8268
88.9072
89.9948
102.035
29.8229
28.919
30.4151
30.0762
29.1556
27.8623
26.2648
24.4021
22.2821
19.892
17.6136
16.6227
16.6933
16.8585
17.1137
17.4593
17.903
18.7648
23.0172
30.0895
39.0395
49.0647
60.4709
73.5838
88.54
105.161
122.912
140.974
158.381
174.205
187.776
198.811
207.441
213.998
218.806
222.058
223.9
224.471
223.929
222.436
220.146
217.201
213.727
209.828
205.591
201.088
196.375
191.5
186.498
181.399
176.226
170.999
165.732
160.439
155.13
149.813
144.496
139.186
133.887
128.605
123.344
118.107
112.897
107.718
102.573
97.4637
92.3924
87.3609
82.3712
77.4247
72.5227
67.6664
62.8564
59.381
57.2686
55.2997
53.4646
51.754
50.1592
48.6715
47.467
49.4132
51.4966
53.4891
55.3958
57.2211
58.9695
60.6452
62.2522
63.7949
65.2776
66.7038
68.0765
69.3985
70.6735
71.9052
73.0982
74.2572
75.3871
76.493
77.58
78.6531
79.717
80.7757
81.8329
82.8915
83.9536
85.0211
86.0951
87.1761
88.2646
89.3608
90.4647
91.5763
104.28
28.9678
28.0586
29.8921
29.8808
29.2547
28.1967
26.8061
25.1618
23.3
21.2271
19.2685
18.3765
18.3457
18.3829
18.4887
18.6651
18.9183
19.2574
19.6924
22.6201
27.9932
36.3195
45.5272
55.8369
67.5537
80.9397
96.0192
112.497
129.765
146.984
163.233
177.687
189.829
199.536
207.04
212.682
216.726
219.321
220.59
220.669
219.708
217.858
215.266
212.063
208.363
204.266
199.851
195.186
190.324
185.31
180.178
174.956
169.666
164.328
158.956
153.563
148.158
142.752
137.351
131.961
126.588
121.238
115.913
110.618
105.357
100.132
94.9459
89.801
84.6995
79.6433
74.6337
69.6723
64.7599
61.2192
59.0787
57.0859
55.2309
53.5042
51.8968
50.4005
49.0069
50.3176
52.4341
54.4576
56.393
58.2449
60.0179
61.7162
63.3439
64.9053
66.4047
67.8463
69.2336
70.5694
71.857
73.1003
74.3035
75.4715
76.6093
77.7223
78.8158
79.8953
80.9659
82.0323
83.0986
84.1682
85.2435
86.3266
87.4184
88.5196
89.6304
90.7504
91.8794
93.017
94.1629
106.625
28.2104
27.3195
29.3986
29.579
29.1127
28.1638
26.8503
25.286
23.5344
21.9177
21.1527
21.0189
20.9096
20.8319
20.7925
20.798
20.8567
20.9789
21.1753
21.4558
22.8426
26.8743
34.4246
42.9603
52.381
62.9345
74.9147
88.4866
103.561
119.745
136.372
152.599
167.564
180.573
191.262
199.674
206.108
210.88
214.175
216.112
216.805
216.386
214.997
212.784
209.881
206.41
202.479
198.177
193.581
188.753
183.742
178.59
173.33
167.989
162.589
157.146
151.677
146.192
140.703
135.218
129.745
124.289
118.856
113.451
108.079
102.742
97.4451
92.1902
86.9801
81.8169
76.7025
71.6386
66.6263
63.021
60.8517
58.8342
56.9584
55.2146
53.5938
52.0873
50.6871
51.1379
53.2863
55.3391
57.3015
59.1783
60.9739
62.6927
64.3389
65.9167
67.4304
68.8845
70.283
71.6293
72.9264
74.178
75.3883
76.5621
77.7047
78.8214
79.9181
81.0005
82.0744
83.145
84.2171
85.2946
86.3806
87.4773
88.5859
89.707
90.8405
91.9861
93.1427
94.3097
95.4861
109.075
27.5955
26.8028
29.1034
29.4026
29.0023
28.0709
26.744
25.3391
24.6532
24.5751
24.4672
24.337
24.1914
24.0383
23.8864
23.7458
23.6273
23.5436
23.5074
23.5312
23.6267
23.8041
27.2513
33.235
41.1893
49.894
59.5126
70.2982
82.4933
96.1607
111.102
126.839
142.666
157.756
171.32
182.812
192.05
199.228
204.661
208.593
211.152
212.431
212.543
211.62
209.798
207.214
203.994
200.251
196.083
191.575
186.796
181.804
176.645
171.359
165.977
160.523
155.018
149.48
143.924
138.359
132.798
127.247
121.715
116.208
110.731
105.288
99.8848
94.524
89.2089
83.9422
78.7261
73.5628
68.4535
64.7848
62.5861
60.5434
58.6463
56.885
55.25
53.7328
52.325
51.8743
54.0533
56.1341
58.1218
60.0216
61.838
63.5753
65.238
66.83
68.3556
69.8194
71.2259
72.5791
73.8823
75.1389
76.353
77.5291
78.6727
79.7893
80.885
81.9659
83.0384
84.1082
85.181
86.2613
87.3528
88.4583
89.5793
90.7166
91.8699
93.0386
94.2216
95.4174
96.6249
111.632
27.1472
26.5667
29.1047
29.4993
29.1147
28.2423
27.8621
28.0559
28.1475
28.1638
28.1191
28.0219
27.8789
27.6967
27.4825
27.2451
26.9951
26.7455
26.5101
26.3035
26.1403
26.035
26.0005
28.0132
32.6121
40.044
48.1532
57.0189
66.8319
77.8364
90.1934
103.861
118.54
133.68
148.546
162.344
174.397
184.333
192.177
198.205
202.706
205.823
207.642
208.259
207.789
206.36
204.103
201.146
197.606
193.588
189.183
184.467
179.506
174.353
169.051
163.636
158.138
152.579
146.981
141.359
135.727
130.097
124.477
118.877
113.303
107.761
102.258
96.7961
91.3805
86.0144
80.7005
75.4412
70.2383
66.5077
64.2794
62.2114
60.2929
58.5138
56.8646
55.3362
53.9204
52.8069
54.7346
56.842
58.8537
60.7749
62.6102
64.3642
66.0412
67.6453
69.1808
70.652
72.0636
73.4204
74.7263
75.9844
77.1987
78.3736
79.5144
80.6268
81.717
82.7916
83.8572
84.9205
85.9876
87.064
88.1543
89.2616
90.3881
91.5348
92.7016
93.8877
95.0916
96.3116
97.5461
114.294
26.8782
26.6433
29.452
29.9465
30.1209
30.6468
31.2005
31.5434
31.7448
31.8413
31.8535
31.7933
31.6684
31.4844
31.2465
30.9607
30.634
30.2754
29.8958
29.5082
29.1294
28.7782
28.4724
28.2281
28.979
32.3741
39.3379
46.9354
55.1979
64.2408
74.2634
85.4706
97.9298
111.494
125.77
140.148
153.882
166.233
176.689
185.089
191.637
196.625
200.229
202.534
203.618
203.577
202.527
200.594
197.903
194.573
190.714
186.422
181.781
176.861
171.723
166.414
160.976
155.441
149.837
144.186
138.507
132.815
127.123
121.443
115.783
110.151
104.554
98.9984
93.488
88.0275
82.6202
77.2692
71.9766
68.186
65.9281
63.8349
61.8952
60.0986
58.4352
56.8959
55.4719
54.1554
55.3293
57.4621
59.4965
61.4375
63.2901
65.059
66.7484
68.3626
69.906
71.3827
72.7974
74.155
75.46
76.7163
77.9274
79.0976
80.232
81.3363
82.4169
83.4806
84.5344
85.5855
86.641
87.7072
88.7895
89.8919
91.0174
92.1673
93.3418
94.5401
95.7607
97.0014
98.26
117.061
26.7969
27.0486
30.1625
31.423
32.7581
33.8751
34.5859
35.0339
35.3066
35.4525
35.4982
35.459
35.3442
35.1597
34.9104
34.6006
34.235
33.8186
33.3536
32.8445
32.3079
31.7665
31.2426
30.7565
30.3241
29.9981
33.0423
38.9158
46.0684
53.8359
62.2683
71.5091
81.7512
93.1291
105.613
118.952
132.665
146.087
158.492
169.263
178.09
185.069
190.464
194.48
197.208
198.707
199.058
198.362
196.738
194.305
191.184
187.486
183.313
178.752
173.882
168.766
163.458
158.004
152.441
146.799
141.103
135.375
129.631
123.887
118.154
112.443
106.763
101.121
95.5225
89.9736
84.4785
79.0407
73.663
69.8147
67.5278
65.4097
63.4493
61.6356
59.9586
58.4088
56.9772
55.6556
55.8356
57.9929
60.0487
62.0082
63.8767
65.6588
67.359
68.9817
70.5311
72.0115
73.4274
74.7835
76.0849
77.3362
78.5411
79.7036
80.8285
81.9215
82.9888
84.0376
85.0753
86.1095
87.148
88.1981
89.2662
90.3575
91.4757
92.6229
93.7998
95.0058
96.2392
97.4978
98.7789
119.928
26.9086
27.7933
31.6253
33.8916
35.8448
37.1279
37.9295
38.4283
38.7301
38.8918
38.9439
38.9036
38.7812
38.583
38.3142
37.9792
37.5834
37.1326
36.6245
36.0521
35.4223
34.7554
34.0759
33.4098
32.7747
32.1831
31.6452
33.7215
38.6448
45.4124
52.7616
60.7085
69.3356
78.7951
89.248
100.744
113.15
126.108
139.057
151.309
162.192
171.298
178.598
184.314
188.667
191.75
193.607
194.303
193.927
192.587
190.397
187.475
183.934
179.878
175.4
170.582
165.494
160.194
154.731
149.146
143.473
137.74
131.971
126.184
120.396
114.621
108.869
103.151
97.4731
91.8433
86.2668
80.7482
75.2909
71.388
69.0727
66.9306
64.9502
63.1203
61.4304
59.8709
58.4324
57.1064
56.3344
58.4322
60.5083
62.4852
64.3682
66.1622
67.8717
69.5013
71.0552
72.5378
73.9533
75.3064
76.6021
77.8458
79.0418
80.194
81.3069
82.3858
83.4372
84.4681
85.4861
86.4995
87.5167
88.5458
89.5944
90.6687
91.7738
92.9128
94.0869
95.2959
96.5385
97.8122
99.1141
122.89
27.2117
28.8846
33.6684
36.7894
38.9521
40.3168
41.1434
41.6445
41.9392
42.0889
42.1258
42.0674
41.9238
41.7013
41.4044
41.0377
40.6065
40.1192
39.5766
38.9702
38.3002
37.5759
36.8096
36.0229
35.2385
34.4747
33.7432
33.0507
34.2818
38.4273
44.8587
51.8479
59.3975
67.5396
76.3806
86.0676
96.7021
108.238
120.427
132.809
144.748
155.577
164.811
172.313
178.259
182.871
186.238
188.391
189.379
189.281
188.191
186.22
183.481
180.086
176.141
171.744
166.98
161.921
156.632
151.166
145.566
139.869
134.107
128.305
122.485
116.663
110.855
105.073
99.3266
93.6252
87.9754
82.383
76.8525
72.8986
70.5562
68.3912
66.3918
64.5467
62.845
61.2769
59.8325
58.5032
57.2809
58.7771
60.8727
62.8659
64.7623
66.5669
68.2845
69.9197
71.4768
72.9602
74.3741
75.7231
77.0121
78.2464
79.4312
80.5709
81.6698
82.7329
83.7663
84.7771
85.7731
86.7628
87.7551
88.7592
89.7835
90.8359
91.9225
93.0476
94.2136
95.421
96.6687
97.9542
99.2746
125.943
27.6959
30.5466
36.1442
39.7121
41.9858
43.3535
44.15
44.6144
44.8733
44.9893
44.9946
44.9063
44.734
44.4834
44.1585
43.7628
43.3
42.7763
42.1941
41.5468
40.8338
40.0639
39.2474
38.3962
37.5239
36.6447
35.7732
34.9161
34.0823
34.6258
38.1593
44.3022
50.9848
58.2027
65.9625
74.3211
83.3942
93.3028
104.064
115.52
127.294
138.824
149.468
158.693
166.282
172.368
177.161
180.741
183.125
184.349
184.479
183.601
181.817
179.236
175.971
172.127
167.805
163.09
158.063
152.788
147.321
141.712
135.999
130.215
124.39
118.544
112.699
106.869
101.067
95.3056
89.5922
83.9346
78.3385
74.3381
71.9703
69.7839
67.7671
65.9081
64.1959
62.6206
61.1715
59.84
58.6179
59.0244
61.1385
63.1471
65.0559
66.8701
68.5947
70.2344
71.7937
73.277
74.6884
76.0326
77.314
78.538
79.7102
80.8359
81.9193
82.9654
83.9797
84.9691
85.9416
86.9057
87.8709
88.8468
89.8432
90.869
91.932
93.0379
94.1905
95.3912
96.6393
97.9328
99.2685
129.08
28.3466
32.5234
38.7731
42.5721
44.8611
46.1649
46.8872
47.2839
47.4828
47.5454
47.5023
47.3698
47.1569
46.869
46.5097
46.0816
45.5869
45.0276
44.4054
43.7174
42.9628
42.1494
41.287
40.3857
39.4555
38.5066
37.5474
36.5797
35.6113
34.6558
34.6721
37.7545
43.6626
50.0896
57.0325
64.4881
72.4733
81.0679
90.3827
100.479
111.263
122.439
133.512
143.876
152.978
160.552
166.694
171.595
175.317
177.865
179.266
179.571
178.858
177.224
174.774
171.617
167.86
163.602
158.933
153.934
148.673
143.211
137.597
131.873
126.077
120.236
114.376
108.518
102.677
96.8688
91.1035
85.391
79.7383
75.6969
73.306
71.1003
69.0678
67.1968
65.4756
63.8946
62.4421
61.1102
59.8898
59.2614
61.3019
63.3251
65.2454
67.0684
68.7991
70.4425
72.0032
73.4855
74.8939
76.2327
77.5064
78.7201
79.8792
80.9899
82.0571
83.0855
84.0803
85.048
85.9964
86.9341
87.8707
88.8165
89.7822
90.7779
91.8129
92.8947
94.0286
95.2172
96.4608
97.7578
99.1052
132.296
29.1211
34.6494
41.3881
45.3105
47.524
48.709
49.3233
49.6278
49.7464
49.7375
49.6294
49.4372
49.1691
48.8302
48.4237
47.9521
47.4171
46.8197
46.1598
45.4346
44.6416
43.7879
42.8831
41.9361
40.9566
39.9542
38.9356
37.899
36.8463
35.7897
34.7415
34.3852
37.1642
42.8906
49.1137
55.8357
63.0464
70.744
78.9685
87.8091
97.3472
107.54
118.155
128.76
138.783
147.673
155.145
161.272
166.212
170.01
172.657
174.17
174.593
173.998
172.475
170.123
167.051
163.362
159.156
154.525
149.551
144.305
138.848
133.234
127.507
121.705
115.859
109.996
104.136
98.2968
92.4937
86.7384
81.0399
76.964
74.5531
72.3307
70.2848
68.4036
66.6755
65.0904
63.6366
62.3059
61.0888
59.977
61.3587
63.3956
65.3267
67.1577
68.8939
70.5403
72.1018
73.5829
74.9878
76.3212
77.5873
78.7911
79.9378
81.0335
82.0841
83.0947
84.0701
85.0165
85.9411
86.8525
87.7604
88.6754
89.6087
90.5717
91.5753
92.6285
93.7386
94.9097
96.1435
97.439
98.794
135.59
29.9623
36.8661
43.9696
47.8854
49.9409
50.9667
51.4481
51.6412
51.663
51.5673
51.3799
51.1142
50.7775
50.3743
49.9075
49.3793
48.7915
48.1454
47.4413
46.6785
45.8536
44.9664
44.0234
43.0346
42.011
40.9625
39.897
38.8155
37.7156
36.6028
35.4853
34.3704
33.7741
36.3817
41.9744
48.0415
54.5868
61.6009
69.0732
77.0115
85.481
94.5607
104.246
114.355
124.503
134.152
142.766
150.07
156.12
161.041
164.848
167.527
169.089
169.575
169.049
167.595
165.309
162.295
158.655
154.487
149.885
144.931
139.697
134.248
128.639
122.915
117.116
111.275
105.419
99.5694
93.7454
87.9616
82.2297
78.1273
75.7005
73.4647
71.4083
69.5196
67.7871
66.1999
64.7467
63.4188
62.2066
61.1018
61.304
63.3542
65.2954
67.1338
68.8749
70.524
72.086
73.5656
74.9672
76.2953
77.5543
78.749
79.8843
80.966
82.0005
82.9938
83.9507
84.8768
85.7789
86.6652
87.5452
88.4297
89.3304
90.2595
91.2291
92.2503
93.3319
94.4804
95.6989
96.9877
98.3446
138.965
30.9231
39.1318
46.4205
50.229
52.085
52.9283
53.2599
53.3277
53.2404
53.0466
52.7695
52.4206
52.0062
51.5298
50.9938
50.4003
49.7506
49.0461
48.2879
47.4766
46.6123
45.6956
44.7288
43.7151
42.6617
41.5795
40.4796
39.3663
38.2359
37.0889
35.9291
34.7614
33.5914
32.8665
35.4241
40.9219
46.8718
53.2793
60.1381
67.4304
75.1479
83.3275
92.0366
101.296
110.959
120.675
129.935
138.234
145.324
151.25
156.09
159.839
162.485
164.038
164.534
164.031
162.608
160.355
157.371
153.759
149.614
145.03
140.09
134.867
129.428
123.827
118.114
112.328
106.502
100.665
94.8394
89.0439
83.2933
79.1738
76.7359
74.4909
72.4274
70.5341
68.7995
67.2125
65.7624
64.4394
63.2343
62.1383
61.4462
63.1961
65.147
66.9924
68.7381
70.3895
71.9519
73.4301
74.8286
76.152
77.4048
78.5914
79.7168
80.7864
81.8063
82.7833
83.723
84.6305
85.5119
86.3751
87.2293
88.085
88.9541
89.8493
90.7838
91.7703
92.8197
93.9406
95.1383
96.4145
97.7682
99.1957
142.366
31.9267
41.3778
48.6908
52.3079
53.9371
54.5835
54.7557
54.69
54.4862
54.1878
53.815
53.3777
52.8809
52.3275
51.7194
51.0579
50.3443
49.5801
48.7666
47.9049
46.9966
46.0433
45.0474
44.0119
42.9417
41.8437
40.7248
39.5883
38.4329
37.2587
36.0682
34.8652
33.6529
32.4349
31.6879
34.3136
39.7486
45.6152
51.9203
58.6573
65.8061
73.3503
81.2999
89.7113
98.6169
107.893
117.211
126.087
134.056
140.903
146.649
151.337
154.97
157.531
159.027
159.486
158.963
157.531
155.277
152.298
148.691
144.554
139.977
135.045
129.832
124.404
118.818
113.123
107.359
101.56
95.7556
89.9677
84.215
80.0894
77.6466
75.3972
73.3308
71.4364
69.7027
68.1188
66.6739
65.3582
64.1621
63.077
62.0947
62.9169
64.877
66.7291
68.4791
70.133
71.6959
73.173
74.569
75.8885
77.136
78.316
79.4333
80.493
81.501
82.4637
83.3878
84.2788
85.1422
85.9852
86.8165
87.6461
88.4859
89.3486
90.2483
91.1988
92.2133
93.3025
94.474
95.732
97.0768
98.5055
145.795
32.9306
43.5483
50.7617
54.1208
55.4931
55.9288
55.9355
55.7321
55.4079
55.0013
54.5299
54.0018
53.4211
52.7898
52.1091
51.3799
50.6035
49.781
48.914
48.0039
47.0528
46.0627
45.0363
43.9765
42.8873
41.7729
40.6371
39.4818
38.3073
37.1135
35.9018
34.6746
33.4348
32.1843
30.9258
30.2644
33.075
38.4745
44.2869
50.5181
57.1609
64.1971
71.6019
79.3671
87.5396
96.1527
105.095
114.056
122.569
130.204
136.769
142.277
146.771
150.242
152.673
154.064
154.442
153.858
152.38
150.093
147.09
143.468
139.323
134.744
129.815
124.611
119.197
113.632
107.963
102.232
96.4735
90.7149
84.9789
80.8599
78.4192
76.1713
74.1069
72.2155
70.4862
68.9084
67.4714
66.1653
64.9806
63.9085
62.9407
62.6132
64.4814
66.34
68.0945
69.7508
71.3146
72.7912
74.1854
75.502
76.7457
77.9208
79.0322
80.0845
81.0833
82.0346
82.9457
83.8228
84.6714
85.4978
86.3099
87.1172
87.9311
88.7642
89.6308
90.5458
91.524
92.5784
93.7194
94.9536
96.2832
97.7072
149.261
33.9433
45.7613
52.7236
55.6294
56.7295
56.9551
56.7995
56.4585
56.0125
55.4963
54.9253
54.3062
53.6418
52.9334
52.1814
51.3862
50.5487
49.6698
48.751
47.794
46.801
45.7742
44.7161
43.6298
42.518
41.384
40.2301
39.058
37.868
36.6604
35.4352
34.1932
32.9362
31.6661
30.3843
29.0921
28.625
31.7371
37.1239
42.9056
49.0869
55.6606
62.6079
69.8966
77.5099
85.4842
93.8494
102.507
111.142
119.305
126.61
132.886
138.134
142.391
145.656
147.91
149.153
149.407
148.72
147.16
144.809
141.759
138.103
133.936
129.346
124.417
119.222
113.828
108.29
102.659
96.973
91.2675
85.5692
81.4708
79.0406
76.801
74.7442
72.8604
71.1396
69.5712
68.1451
66.8512
65.6803
64.6234
63.6722
62.8191
63.9569
65.822
67.581
69.2401
70.8054
72.2822
73.6757
74.9908
76.2322
77.4044
78.512
79.5596
80.5525
81.4962
82.3977
83.264
84.1012
84.915
85.7123
86.5019
87.2944
88.102
88.9389
89.8205
90.7628
91.7811
92.8882
94.0935
95.402
96.8146
152.747
34.9219
48.0935
54.8944
57.0705
57.6553
57.6695
57.3565
56.8763
56.3069
55.6804
55.0102
54.3013
53.5553
52.7721