/*--------------------------------*- C++ -*----------------------------------*\
  =========                 |
  \\      /  F ield         | OpenFOAM: The Open Source CFD Toolbox
   \\    /   O peration     | Website:  https://openfoam.org
    \\  /    A nd           | Version:  10
     \\/     M anipulation  |
\*---------------------------------------------------------------------------*/
FoamFile
{
    format      ascii;
    class       volScalarField;
    location    "60000";
    object      p;
}
// * * * * * * * * * * * * * * * * * * * * * * * * * * * * * * * * * * * * * //

dimensions      [0 2 -2 0 0 0 0];

internalField   nonuniform List<scalar> 
17922
(
7.42467
7.3761
7.32661
7.2762
7.22484
7.17253
7.11924
7.06497
7.00969
6.95339
6.89606
6.83768
6.77823
6.7177
6.65607
6.59333
6.52945
6.46442
6.39822
6.33084
6.26224
6.19243
6.12137
6.04904
5.97542
5.9005
5.82425
5.74665
5.66836
5.59073
5.51444
5.43946
5.36576
5.29332
5.22213
5.15214
5.08335
5.01573
4.94925
4.88389
4.81963
4.75644
4.69431
4.63322
4.57314
4.51404
4.45592
4.39875
4.3425
4.28717
4.23272
4.17915
4.12642
4.07453
4.02345
3.97317
3.92366
3.87492
3.82692
3.77964
3.73308
3.68721
3.64201
3.59749
3.55361
3.51036
3.46774
3.42573
3.38432
3.34349
3.30324
3.26356
3.22443
3.18584
3.14779
3.11027
3.07327
3.03677
3.00078
2.96528
2.93026
2.89573
2.86166
2.82806
2.79492
2.76223
2.72999
2.69819
2.66683
2.6359
2.6054
2.57532
2.54566
7.42465
7.37608
7.3266
7.27619
7.22484
7.17253
7.11925
7.06497
7.0097
6.95341
6.89608
6.8377
6.77826
6.71773
6.6561
6.59336
6.52949
6.46446
6.39827
6.33088
6.2623
6.19248
6.12142
6.0491
5.97549
5.90057
5.82433
5.74672
5.66844
5.59081
5.51453
5.43955
5.36586
5.29342
5.22223
5.15225
5.08346
5.01584
4.94936
4.88401
4.81975
4.75657
4.69444
4.63334
4.57326
4.51417
4.45605
4.39887
4.34263
4.28729
4.23285
4.17927
4.12655
4.07465
4.02358
3.97329
3.92379
3.87504
3.82704
3.77976
3.7332
3.68733
3.64214
3.59761
3.55373
3.51049
3.46788
3.42587
3.38446
3.34364
3.3034
3.26372
3.2246
3.18602
3.14798
3.11047
3.07348
3.03699
3.00101
2.96552
2.93052
2.89599
2.86194
2.82836
2.79523
2.76256
2.73034
2.69856
2.66722
2.63632
2.60584
2.57579
2.54616
7.42457
7.37601
7.32653
7.27612
7.22477
7.17246
7.11918
7.0649
7.00963
6.95334
6.89601
6.83763
6.77819
6.71766
6.65603
6.59329
6.52942
6.46439
6.39819
6.33081
6.26222
6.19241
6.12135
6.04902
5.97541
5.90049
5.82424
5.74664
5.66835
5.59072
5.51443
5.43945
5.36576
5.29332
5.22213
5.15215
5.08335
5.01573
4.94925
4.88388
4.81962
4.75644
4.6943
4.6332
4.57312
4.51402
4.45589
4.39871
4.34246
4.28712
4.23267
4.17909
4.12635
4.07445
4.02337
3.97308
3.92357
3.87481
3.8268
3.77952
3.73295
3.68707
3.64188
3.59735
3.55346
3.51022
3.4676
3.42559
3.38418
3.34336
3.30312
3.26344
3.22431
3.18574
3.1477
3.11019
3.07319
3.03671
3.00073
2.96525
2.93025
2.89573
2.86169
2.82811
2.795
2.76234
2.73013
2.69836
2.66704
2.63615
2.60569
2.57566
2.54605
7.42447
7.37591
7.32643
7.27602
7.22466
7.17235
7.11907
7.0648
7.00952
6.95322
6.8959
6.83752
6.77807
6.71754
6.65591
6.59317
6.52929
6.46426
6.39806
6.33068
6.26209
6.19227
6.12121
6.04888
5.97526
5.90034
5.82409
5.74648
5.66819
5.59056
5.51426
5.43928
5.36558
5.29314
5.22194
5.15195
5.08316
5.01553
4.94904
4.88367
4.8194
4.75621
4.69407
4.63297
4.57287
4.51377
4.45564
4.39845
4.34219
4.28684
4.23238
4.1788
4.12606
4.07415
4.02306
3.97276
3.92324
3.87448
3.82646
3.77917
3.73259
3.68671
3.64151
3.59697
3.55308
3.50983
3.46721
3.4252
3.38379
3.34297
3.30272
3.26304
3.22392
3.18534
3.14731
3.1098
3.07281
3.03633
3.00035
2.96487
2.92988
2.89538
2.86134
2.82777
2.79467
2.76202
2.72983
2.69808
2.66677
2.6359
2.60546
2.57545
2.54587
7.42438
7.37582
7.32634
7.27593
7.22458
7.17227
7.11898
7.06471
7.00943
6.95313
6.8958
6.83742
6.77798
6.71745
6.65582
6.59307
6.52919
6.46416
6.39796
6.33057
6.26198
6.19216
6.12109
6.04876
5.97514
5.90022
5.82396
5.74635
5.66805
5.59042
5.51412
5.43913
5.36543
5.29299
5.22178
5.15179
5.08299
5.01535
4.94886
4.88349
4.81922
4.75602
4.69387
4.63276
4.57266
4.51355
4.45541
4.39822
4.34196
4.2866
4.23213
4.17854
4.12579
4.07388
4.02278
3.97247
3.92294
3.87418
3.82615
3.77886
3.73227
3.68638
3.64118
3.59663
3.55274
3.50949
3.46687
3.42485
3.38344
3.34262
3.30237
3.26269
3.22357
3.185
3.14696
3.10946
3.07247
3.036
3.00003
2.96456
2.92958
2.89508
2.86105
2.8275
2.79441
2.76177
2.72959
2.69786
2.66657
2.63572
2.60531
2.57532
2.54576
7.42431
7.37574
7.32626
7.27585
7.2245
7.17219
7.1189
7.06463
7.00935
6.95305
6.89572
6.83734
6.77789
6.71736
6.65573
6.59298
6.5291
6.46407
6.39786
6.33047
6.26188
6.19206
6.12099
6.04865
5.97503
5.9001
5.82385
5.74623
5.66793
5.59029
5.51399
5.439
5.36529
5.29284
5.22163
5.15164
5.08283
5.01519
4.9487
4.88332
4.81904
4.75584
4.69369
4.63257
4.57247
4.51335
4.4552
4.39801
4.34173
4.28637
4.2319
4.1783
4.12554
4.07362
4.02251
3.9722
3.92267
3.87389
3.82586
3.77856
3.73197
3.68608
3.64086
3.59632
3.55242
3.50917
3.46654
3.42452
3.38311
3.34229
3.30204
3.26236
3.22324
3.18467
3.14664
3.10914
3.07216
3.03569
2.99973
2.96426
2.92929
2.8948
2.86078
2.82724
2.79416
2.76155
2.72938
2.69767
2.6664
2.63557
2.60517
2.57521
2.54567
7.42423
7.37567
7.32619
7.27578
7.22442
7.17211
7.11883
7.06455
7.00927
6.95298
6.89564
6.83726
6.77781
6.71728
6.65565
6.5929
6.52901
6.46398
6.39777
6.33038
6.26178
6.19196
6.12089
6.04855
5.97493
5.9
5.82373
5.74612
5.66781
5.59017
5.51386
5.43887
5.36516
5.29271
5.22149
5.15149
5.08268
5.01503
4.94853
4.88315
4.81887
4.75566
4.69351
4.63238
4.57227
4.51315
4.455
4.39779
4.34152
4.28615
4.23167
4.17806
4.1253
4.07337
4.02225
3.97193
3.92239
3.87361
3.82558
3.77827
3.73167
3.68577
3.64056
3.596
3.55211
3.50885
3.46622
3.4242
3.38279
3.34196
3.30172
3.26204
3.22292
3.18435
3.14633
3.10883
3.07185
3.03539
2.99943
2.96398
2.92901
2.89453
2.86053
2.827
2.79393
2.76133
2.72918
2.69748
2.66623
2.63542
2.60505
2.57511
2.54561
7.42416
7.37559
7.32612
7.27571
7.22435
7.17204
7.11875
7.06448
7.0092
6.9529
6.89557
6.83718
6.77773
6.7172
6.65557
6.59281
6.52893
6.46389
6.39769
6.33029
6.26169
6.19186
6.12079
6.04845
5.97483
5.89989
5.82363
5.74601
5.6677
5.59005
5.51374
5.43874
5.36503
5.29257
5.22135
5.15135
5.08253
5.01488
4.94837
4.88299
4.8187
4.75549
4.69333
4.6322
4.57208
4.51295
4.45479
4.39758
4.3413
4.28592
4.23144
4.17782
4.12505
4.07312
4.022
3.97167
3.92212
3.87334
3.82529
3.77798
3.73138
3.68547
3.64025
3.5957
3.5518
3.50854
3.4659
3.42388
3.38247
3.34164
3.3014
3.26173
3.22261
3.18404
3.14602
3.10853
3.07156
3.0351
2.99915
2.9637
2.92875
2.89428
2.86029
2.82677
2.79372
2.76113
2.729
2.69732
2.66609
2.6353
2.60495
2.57504
2.54556
7.42409
7.37553
7.32605
7.27564
7.22429
7.17197
7.11869
7.06441
7.00913
6.95283
6.8955
6.83711
6.77766
6.71713
6.65549
6.59274
6.52885
6.46381
6.3976
6.33021
6.26161
6.19178
6.1207
6.04836
5.97473
5.89979
5.82352
5.7459
5.66759
5.58994
5.51362
5.43862
5.3649
5.29244
5.22122
5.15121
5.08239
5.01473
4.94822
4.88283
4.81854
4.75532
4.69315
4.63202
4.5719
4.51276
4.4546
4.39738
4.34109
4.28571
4.23121
4.17759
4.12482
4.07287
4.02175
3.97141
3.92186
3.87307
3.82502
3.7777
3.73109
3.68518
3.63996
3.5954
3.5515
3.50823
3.4656
3.42358
3.38216
3.34134
3.30109
3.26142
3.22231
3.18375
3.14573
3.10824
3.07127
3.03483
2.99888
2.96344
2.9285
2.89404
2.86006
2.82656
2.79352
2.76095
2.72883
2.69718
2.66596
2.6352
2.60487
2.57498
2.54553
7.42402
7.37546
7.32598
7.27558
7.22422
7.17191
7.11862
7.06435
7.00907
6.95277
6.89543
6.83705
6.77759
6.71706
6.65542
6.59267
6.52878
6.46374
6.39753
6.33013
6.26152
6.19169
6.12061
6.04827
5.97464
5.8997
5.82343
5.7458
5.66748
5.58983
5.51351
5.4385
5.36478
5.29231
5.22109
5.15107
5.08225
5.01459
4.94807
4.88268
4.81838
4.75515
4.69298
4.63184
4.57171
4.51257
4.4544
4.39718
4.34088
4.28549
4.23099
4.17736
4.12458
4.07264
4.0215
3.97116
3.9216
3.87281
3.82475
3.77743
3.73082
3.6849
3.63967
3.59511
3.5512
3.50794
3.4653
3.42328
3.38186
3.34104
3.3008
3.26113
3.22202
3.18346
3.14545
3.10796
3.071
3.03456
2.99863
2.9632
2.92826
2.89382
2.85985
2.82636
2.79334
2.76078
2.72869
2.69705
2.66586
2.63511
2.60481
2.57494
2.54551
7.42396
7.3754
7.32593
7.27552
7.22416
7.17185
7.11856
7.06429
7.00901
6.95271
6.89537
6.83698
6.77753
6.71699
6.65535
6.5926
6.52871
6.46367
6.39746
6.33006
6.26145
6.19161
6.12053
6.04819
5.97455
5.89961
5.82333
5.7457
5.66738
5.58973
5.5134
5.43839
5.36466
5.29219
5.22096
5.15094
5.08211
5.01445
4.94793
4.88253
4.81822
4.75499
4.69282
4.63167
4.57154
4.51239
4.45421
4.39698
4.34068
4.28529
4.23078
4.17715
4.12436
4.0724
4.02126
3.97092
3.92135
3.87255
3.82449
3.77716
3.73055
3.68463
3.63939
3.59483
3.55092
3.50765
3.46502
3.42299
3.38158
3.34076
3.30052
3.26085
3.22174
3.18319
3.14518
3.1077
3.07075
3.03432
2.99839
2.96297
2.92805
2.89361
2.85966
2.82618
2.79318
2.76064
2.72856
2.69694
2.66577
2.63505
2.60477
2.57493
2.54552
7.42391
7.37535
7.32587
7.27546
7.22411
7.1718
7.11851
7.06423
7.00895
6.95265
6.89531
6.83693
6.77747
6.71693
6.65529
6.59254
6.52865
6.4636
6.39739
6.32999
6.26138
6.19154
6.12046
6.04811
5.97447
5.89952
5.82324
5.74561
5.66729
5.58963
5.5133
5.43828
5.36455
5.29208
5.22084
5.15082
5.08198
5.01432
4.94779
4.88238
4.81807
4.75484
4.69266
4.63151
4.57137
4.51221
4.45403
4.3968
4.34049
4.28509
4.23057
4.17693
4.12414
4.07218
4.02103
3.97068
3.92111
3.8723
3.82424
3.7769
3.73028
3.68436
3.63913
3.59456
3.55065
3.50738
3.46474
3.42272
3.3813
3.34048
3.30024
3.26058
3.22148
3.18293
3.14492
3.10745
3.07051
3.03408
2.99817
2.96276
2.92784
2.89342
2.85948
2.82602
2.79303
2.76051
2.72845
2.69685
2.6657
2.635
2.60474
2.57493
2.54555
7.42386
7.3753
7.32582
7.27541
7.22406
7.17175
7.11846
7.06418
7.0089
6.9526
6.89526
6.83687
6.77742
6.71688
6.65524
6.59248
6.52859
6.46354
6.39733
6.32992
6.26131
6.19147
6.12039
6.04803
5.97439
5.89944
5.82316
5.74552
5.6672
5.58953
5.5132
5.43818
5.36444
5.29197
5.22073
5.1507
5.08186
5.01419
4.94766
4.88224
4.81793
4.75469
4.6925
4.63135
4.5712
4.51204
4.45385
4.39661
4.3403
4.28489
4.23037
4.17673
4.12393
4.07196
4.02081
3.97045
3.92088
3.87206
3.82399
3.77666
3.73003
3.68411
3.63887
3.5943
3.55038
3.50711
3.46448
3.42246
3.38104
3.34022
3.29999
3.26032
3.22123
3.18268
3.14468
3.10722
3.07028
3.03387
2.99796
2.96256
2.92766
2.89325
2.85932
2.82588
2.7929
2.7604
2.72836
2.69678
2.66565
2.63497
2.60474
2.57494
2.54559
7.42381
7.37525
7.32577
7.27537
7.22401
7.1717
7.11841
7.06414
7.00885
6.95255
6.89522
6.83683
6.77737
6.71683
6.65519
6.59243
6.52853
6.46349
6.39727
6.32986
6.26125
6.19141
6.12032
6.04796
5.97432
5.89937
5.82308
5.74544
5.66711
5.58944
5.51311
5.43808
5.36434
5.29186
5.22062
5.15058
5.08174
5.01406
4.94753
4.88211
4.81779
4.75455
4.69235
4.63119
4.57104
4.51188
4.45368
4.39644
4.34012
4.2847
4.23018
4.17653
4.12372
4.07175
4.02059
3.97023
3.92065
3.87183
3.82376
3.77642
3.72979
3.68386
3.63862
3.59405
3.55013
3.50686
3.46422
3.4222
3.38079
3.33997
3.29974
3.26008
3.22099
3.18245
3.14446
3.107
3.07007
3.03367
2.99777
2.96238
2.92749
2.89309
2.85918
2.82575
2.7928
2.76031
2.72829
2.69672
2.66562
2.63496
2.60475
2.57498
2.54565
7.42377
7.37521
7.32573
7.27532
7.22397
7.17166
7.11837
7.06409
7.00881
6.95251
6.89517
6.83678
6.77732
6.71678
6.65514
6.59238
6.52848
6.46343
6.39721
6.32981
6.26119
6.19135
6.12026
6.0479
5.97425
5.8993
5.82301
5.74536
5.66703
5.58936
5.51302
5.43799
5.36425
5.29176
5.22051
5.15047
5.08163
5.01394
4.9474
4.88198
4.81766
4.75441
4.69221
4.63104
4.57089
4.51172
4.45352
4.39626
4.33994
4.28452
4.22999
4.17633
4.12352
4.07155
4.02038
3.97002
3.92043
3.87161
3.82353
3.77619
3.72956
3.68363
3.63838
3.59381
3.54989
3.50662
3.46398
3.42197
3.38055
3.33974
3.29951
3.25986
3.22077
3.18223
3.14425
3.1068
3.06988
3.03348
2.9976
2.96222
2.92734
2.89296
2.85906
2.82565
2.79271
2.76024
2.72823
2.69669
2.6656
2.63497
2.60478
2.57503
2.54573
7.42373
7.37517
7.32569
7.27529
7.22394
7.17162
7.11834
7.06406
7.00878
6.95247
6.89513
6.83674
6.77728
6.71674
6.6551
6.59233
6.52844
6.46339
6.39717
6.32976
6.26114
6.19129
6.1202
6.04784
5.97419
5.89923
5.82294
5.74529
5.66695
5.58928
5.51294
5.4379
5.36415
5.29166
5.22041
5.15037
5.08152
5.01383
4.94728
4.88186
4.81753
4.75427
4.69207
4.6309
4.57074
4.51156
4.45336
4.3961
4.33977
4.28435
4.22981
4.17615
4.12333
4.07135
4.02019
3.96982
3.92023
3.8714
3.82332
3.77597
3.72934
3.6834
3.63816
3.59358
3.54967
3.5064
3.46376
3.42174
3.38033
3.33952
3.29929
3.25965
3.22056
3.18203
3.14405
3.10661
3.0697
3.03331
2.99744
2.96207
2.92721
2.89284
2.85896
2.82556
2.79263
2.76018
2.7282
2.69667
2.66561
2.63499
2.60483
2.57511
2.54582
7.60904
7.56401
7.51812
7.47135
7.42369
7.37513
7.32566
7.27525
7.2239
7.17159
7.1183
7.06403
7.00874
6.95244
6.8951
6.83671
6.77725
6.7167
6.65506
6.59229
6.5284
6.46334
6.39712
6.32971
6.26109
6.19124
6.12015
6.04778
5.97413
5.89917
5.82288
5.74522
5.66688
5.5892
5.51286
5.43782
5.36407
5.29157
5.22032
5.15027
5.08141
5.01372
4.94717
4.88174
4.81741
4.75415
4.69194
4.63076
4.5706
4.51142
4.45321
4.39594
4.33961
4.28418
4.22964
4.17597
4.12315
4.07117
4.02
3.96962
3.92003
3.8712
3.82311
3.77576
3.72913
3.68319
3.63795
3.59337
3.54945
3.50618
3.46355
3.42153
3.38013
3.33932
3.29909
3.25945
3.22037
3.18185
3.14388
3.10645
3.06954
3.03317
2.9973
2.96195
2.9271
2.89274
2.85887
2.82549
2.79258
2.76015
2.72818
2.69668
2.66563
2.63504
2.60489
2.57519
2.54593
7.609
7.56397
7.51808
7.47131
7.42366
7.37511
7.32563
7.27523
7.22388
7.17156
7.11828
7.064
7.00871
6.95241
6.89507
6.83668
6.77722
6.71667
6.65502
6.59226
6.52836
6.46331
6.39708
6.32967
6.26105
6.1912
6.1201
6.04773
5.97408
5.89911
5.82282
5.74516
5.66682
5.58913
5.51278
5.43774
5.36399
5.29149
5.22023
5.15018
5.08132
5.01362
4.94706
4.88163
4.81729
4.75403
4.69181
4.63063
4.57046
4.51128
4.45306
4.3958
4.33946
4.28402
4.22948
4.1758
4.12298
4.07099
4.01982
3.96944
3.91984
3.87101
3.82292
3.77557
3.72893
3.683
3.63775
3.59317
3.54926
3.50599
3.46335
3.42134
3.37993
3.33913
3.29891
3.25927
3.2202
3.18169
3.14372
3.1063
3.0694
3.03304
2.99718
2.96184
2.927
2.89266
2.85881
2.82544
2.79255
2.76013
2.72818
2.6967
2.66567
2.6351
2.60498
2.5753
2.54606
7.60897
7.56394
7.51805
7.47129
7.42364
7.37508
7.32561
7.27521
7.22385
7.17154
7.11825
7.06397
7.00869
6.95239
6.89504
6.83665
6.77719
6.71664
6.655
6.59223
6.52833
6.46327
6.39705
6.32963
6.26101
6.19115
6.12005
6.04769
5.97403
5.89906
5.82276
5.7451
5.66675
5.58907
5.51272
5.43767
5.36391
5.29141
5.22014
5.15009
5.08122
5.01352
4.94696
4.88152
4.81718
4.75391
4.6917
4.63051
4.57033
4.51115
4.45293
4.39565
4.33931
4.28387
4.22933
4.17565
4.12282
4.07083
4.01965
3.96927
3.91967
3.87083
3.82274
3.77539
3.72875
3.68281
3.63756
3.59299
3.54907
3.5058
3.46317
3.42116
3.37976
3.33896
3.29874
3.25911
3.22005
3.18154
3.14358
3.10617
3.06928
3.03292
2.99708
2.96175
2.92693
2.8926
2.85876
2.82541
2.79253
2.76014
2.72821
2.69674
2.66573
2.63518
2.60508
2.57542
2.54621
7.73901
7.69649
7.65314
7.60896
7.56393
7.51804
7.47128
7.42363
7.37507
7.3256
7.27519
7.22384
7.17152
7.11824
7.06396
7.00867
6.95237
6.89502
6.83663
6.77717
6.71662
6.65497
6.5922
6.5283
6.46324
6.39702
6.3296
6.26097
6.19112
6.12002
6.04765
5.97399
5.89902
5.82271
5.74505
5.6667
5.58901
5.51265
5.4376
5.36384
5.29133
5.22006
5.15001
5.08114
5.01343
4.94687
4.88143
4.81708
4.75381
4.69159
4.6304
4.57022
4.51102
4.4528
4.39552
4.33917
4.28373
4.22918
4.1755
4.12267
4.07067
4.01949
3.9691
3.9195
3.87066
3.82257
3.77522
3.72858
3.68264
3.63739
3.59282
3.5489
3.50564
3.46301
3.421
3.3796
3.3388
3.2986
3.25897
3.21991
3.18141
3.14346
3.10605
3.06918
3.03283
2.997
2.96169
2.92687
2.89256
2.85874
2.8254
2.79254
2.76016
2.72825
2.6968
2.66581
2.63528
2.6052
2.57556
2.54637
7.73899
7.69647
7.65312
7.60895
7.56392
7.51804
7.47127
7.42362
7.37506
7.32559
7.27518
7.22383
7.17151
7.11822
7.06394
7.00866
6.95235
6.89501
6.83661
6.77715
6.7166
6.65495
6.59218
6.52828
6.46322
6.39699
6.32957
6.26094
6.19109
6.11998
6.04761
5.97395
5.89898
5.82267
5.745
5.66665
5.58896
5.5126
5.43754
5.36378
5.29127
5.21999
5.14993
5.08106
5.01335
4.94678
4.88133
4.81698
4.75371
4.69148
4.63029
4.5701
4.51091
4.45268
4.3954
4.33905
4.2836
4.22905
4.17536
4.12253
4.07053
4.01934
3.96896
3.91935
3.87051
3.82242
3.77506
3.72842
3.68248
3.63724
3.59266
3.54875
3.50549
3.46286
3.42085
3.37946
3.33867
3.29847
3.25884
3.21979
3.1813
3.14336
3.10596
3.0691
3.03276
2.99695
2.96164
2.92684
2.89254
2.85873
2.82541
2.79257
2.7602
2.72831
2.69688
2.66591
2.6354
2.60533
2.57572
2.54654
7.73899
7.69647
7.65312
7.60895
7.56392
7.51804
7.47127
7.42362
7.37506
7.32558
7.27517
7.22382
7.17151
7.11822
7.06394
7.00865
6.95234
6.895
6.8366
6.77714
6.71659
6.65494
6.59217
6.52826
6.4632
6.39697
6.32955
6.26092
6.19106
6.11995
6.04758
5.97392
5.89894
5.82263
5.74496
5.6666
5.58891
5.51254
5.43749
5.36372
5.2912
5.21993
5.14986
5.08098
5.01327
4.9467
4.88125
4.8169
4.75362
4.69139
4.63019
4.57
4.5108
4.45257
4.39529
4.33893
4.28348
4.22892
4.17524
4.1224
4.0704
4.01921
3.96882
3.91921
3.87037
3.82228
3.77492
3.72828
3.68234
3.6371
3.59253
3.54861
3.50535
3.46273
3.42073
3.37934
3.33855
3.29836
3.25874
3.2197
3.18121
3.14328
3.10589
3.06904
3.03271
2.99691
2.96162
2.92683
2.89254
2.85875
2.82544
2.79262
2.76027
2.72839
2.69698
2.66603
2.63553
2.60549
2.57589
2.54674
7.739
7.69648
7.65314
7.60896
7.56393
7.51804
7.47128
7.42362
7.37506
7.32558
7.27517
7.22382
7.17151
7.11821
7.06393
7.00865
6.95234
6.89499
6.8366
6.77713
6.71658
6.65493
6.59216
6.52825
6.46319
6.39695
6.32953
6.2609
6.19104
6.11993
6.04755
5.97389
5.89891
5.8226
5.74493
5.66656
5.58887
5.5125
5.43744
5.36366
5.29115
5.21987
5.1498
5.08092
5.0132
4.94663
4.88117
4.81682
4.75353
4.6913
4.6301
4.56991
4.5107
4.45247
4.39518
4.33882
4.28337
4.22881
4.17512
4.12228
4.07028
4.01909
3.9687
3.91909
3.87025
3.82216
3.7748
3.72816
3.68222
3.63698
3.59241
3.5485
3.50524
3.46262
3.42062
3.37924
3.33846
3.29827
3.25866
3.21962
3.18114
3.14322
3.10584
3.069
3.03269
2.99689
2.96161
2.92684
2.89256
2.85879
2.82549
2.79268
2.76035
2.72849
2.6971
2.66616
2.63569
2.60566
2.57608
2.54695
7.73902
7.6965
7.65315
7.60897
7.56394
7.51805
7.47129
7.42363
7.37507
7.32559
7.27518
7.22383
7.17151
7.11822
7.06394
7.00865
6.95234
6.89499
6.83659
6.77713
6.71658
6.65492
6.59215
6.52824
6.46318
6.39694
6.32952
6.26088
6.19102
6.11991
6.04753
5.97386
5.89888
5.82257
5.7449
5.66653
5.58883
5.51246
5.4374
5.36362
5.2911
5.21982
5.14974
5.08086
5.01314
4.94656
4.88111
4.81674
4.75346
4.69122
4.63002
4.56982
4.51062
4.45238
4.39509
4.33873
4.28328
4.22871
4.17502
4.12218
4.07017
4.01898
3.96859
3.91898
3.87014
3.82205
3.77469
3.72805
3.68212
3.63687
3.5923
3.5484
3.50514
3.46253
3.42053
3.37916
3.33838
3.2982
3.2586
3.21957
3.1811
3.14319
3.10582
3.06898
3.03268
2.9969
2.96163
2.92687
2.89261
2.85885
2.82557
2.79278
2.76046
2.72862
2.69724
2.66632
2.63586
2.60585
2.57629
2.54717
7.73904
7.69652
7.65318
7.60899
7.56396
7.51807
7.4713
7.42365
7.37508
7.3256
7.27519
7.22384
7.17152
7.11823
7.06394
7.00865
6.95234
6.895
6.8366
6.77713
6.71658
6.65492
6.59215
6.52824
6.46317
6.39694
6.32951
6.26087
6.19101
6.1199
6.04752
5.97385
5.89886
5.82255
5.74487
5.6665
5.5888
5.51243
5.43736
5.36358
5.29106
5.21977
5.1497
5.08081
5.01309
4.94651
4.88105
4.81668
4.75339
4.69115
4.62995
4.56975
4.51054
4.4523
4.39501
4.33865
4.28319
4.22863
4.17493
4.12209
4.07008
4.01889
3.9685
3.91889
3.87005
3.82196
3.7746
3.72796
3.68203
3.63679
3.59222
3.54832
3.50507
3.46246
3.42047
3.3791
3.33833
3.29815
3.25856
3.21954
3.18108
3.14317
3.10581
3.06899
3.0327
2.99693
2.96167
2.92693
2.89268
2.85893
2.82567
2.79289
2.76059
2.72876
2.6974
2.6665
2.63606
2.60607
2.57652
2.54742
7.73908
7.69655
7.65321
7.60902
7.56399
7.5181
7.47133
7.42367
7.3751
7.32562
7.27521
7.22385
7.17154
7.11824
7.06396
7.00867
6.95236
6.89501
6.83661
6.77714
6.71658
6.65493
6.59215
6.52824
6.46317
6.39694
6.32951
6.26087
6.191
6.11989
6.04751
5.97383
5.89885
5.82253
5.74485
5.66648
5.58877
5.5124
5.43733
5.36355
5.29102
5.21973
5.14966
5.08077
5.01304
4.94646
4.88099
4.81663
4.75334
4.6911
4.62989
4.56969
4.51048
4.45223
4.39494
4.33858
4.28312
4.22855
4.17486
4.12201
4.07
4.01881
3.96842
3.91881
3.86997
3.82188
3.77453
3.72789
3.68196
3.63672
3.59216
3.54826
3.50502
3.46241
3.42043
3.37906
3.3383
3.29813
3.25854
3.21953
3.18108
3.14318
3.10584
3.06902
3.03274
2.99699
2.96174
2.92701
2.89278
2.85904
2.82579
2.79303
2.76074
2.72893
2.69759
2.6667
2.63628
2.6063
2.57677
2.54769
7.73912
7.69659
7.65324
7.60906
7.56402
7.51813
7.47136
7.4237
7.37513
7.32565
7.27524
7.22388
7.17156
7.11826
7.06398
7.00868
6.95237
6.89502
6.83662
6.77715
6.71659
6.65494
6.59216
6.52825
6.46318
6.39694
6.32951
6.26087
6.191
6.11989
6.0475
5.97383
5.89884
5.82252
5.74484
5.66646
5.58876
5.51238
5.43731
5.36352
5.29099
5.2197
5.14962
5.08073
5.013
4.94642
4.88095
4.81658
4.75329
4.69105
4.62984
4.56963
4.51042
4.45218
4.39488
4.33852
4.28306
4.22849
4.1748
4.12195
4.06994
4.01875
3.96836
3.91875
3.86991
3.82183
3.77447
3.72784
3.68191
3.63668
3.59212
3.54823
3.50498
3.46238
3.42041
3.37905
3.33829
3.29813
3.25855
3.21955
3.18111
3.14322
3.10588
3.06908
3.03281
2.99707
2.96184
2.92711
2.8929
2.85917
2.82594
2.79319
2.76092
2.72912
2.69779
2.66693
2.63652
2.60656
2.57705
2.54798
7.73916
7.69664
7.65328
7.6091
7.56406
7.51817
7.47139
7.42373
7.37516
7.32568
7.27527
7.2239
7.17158
7.11829
7.064
7.00871
6.95239
6.89504
6.83664
6.77717
6.71661
6.65495
6.59217
6.52826
6.46319
6.39695
6.32952
6.26088
6.19101
6.11989
6.0475
5.97383
5.89884
5.82251
5.74483
5.66646
5.58874
5.51236
5.43729
5.3635
5.29097
5.21968
5.1496
5.0807
5.01298
4.94639
4.88092
4.81655
4.75325
4.69101
4.6298
4.56959
4.51038
4.45214
4.39484
4.33847
4.28302
4.22845
4.17475
4.12191
4.0699
4.01871
3.96832
3.91871
3.86988
3.82179
3.77444
3.72781
3.68188
3.63665
3.5921
3.54821
3.50498
3.46238
3.42041
3.37906
3.33831
3.29816
3.25859
3.21959
3.18116
3.14329
3.10596
3.06917
3.03291
2.99717
2.96196
2.92725
2.89304
2.85933
2.82611
2.79338
2.76113
2.72934
2.69803
2.66718
2.63678
2.60684
2.57734
2.54829
7.73922
7.69669
7.65333
7.60915
7.56411
7.51821
7.47143
7.42377
7.3752
7.32572
7.2753
7.22394
7.17162
7.11832
7.06403
7.00874
6.95242
6.89507
6.83666
6.77719
6.71663
6.65497
6.59219
6.52828
6.46321
6.39696
6.32953
6.26089
6.19102
6.1199
6.04751
5.97383
5.89884
5.82251
5.74483
5.66645
5.58874
5.51236
5.43728
5.36349
5.29096
5.21967
5.14958
5.08069
5.01296
4.94637
4.8809
4.81653
4.75323
4.69098
4.62977
4.56957
4.51035
4.45211
4.39481
4.33844
4.28299
4.22842
4.17472
4.12188
4.06987
4.01868
3.96829
3.91869
3.86985
3.82177
3.77442
3.7278
3.68188
3.63665
3.5921
3.54822
3.50499
3.4624
3.42044
3.3791
3.33836
3.29821
3.25865
3.21966
3.18124
3.14338
3.10606
3.06928
3.03303
2.99731
2.96211
2.92741
2.89322
2.85952
2.82632
2.7936
2.76136
2.72959
2.69829
2.66745
2.63707
2.60714
2.57766
2.54862
7.73928
7.69675
7.65339
7.6092
7.56416
7.51826
7.47148
7.42382
7.37525
7.32576
7.27534
7.22398
7.17165
7.11835
7.06406
7.00877
6.95245
6.8951
6.83669
6.77722
6.71666
6.655
6.59222
6.5283
6.46323
6.39698
6.32955
6.26091
6.19103
6.11991
6.04752
5.97384
5.89885
5.82252
5.74484
5.66646
5.58874
5.51236
5.43728
5.36349
5.29096
5.21966
5.14958
5.08068
5.01295
4.94636
4.88089
4.81651
4.75322
4.69097
4.62976
4.56955
4.51034
4.45209
4.3948
4.33843
4.28297
4.2284
4.17471
4.12187
4.06986
4.01868
3.96829
3.91869
3.86985
3.82177
3.77443
3.72781
3.68189
3.63667
3.59213
3.54826
3.50503
3.46245
3.4205
3.37916
3.33843
3.29829
3.25874
3.21977
3.18135
3.1435
3.10619
3.06942
3.03319
2.99748
2.96229
2.9276
2.89342
2.85974
2.82655
2.79384
2.76162
2.72987
2.69858
2.66776
2.63739
2.60748
2.57801
2.54898
7.73935
7.69681
7.65345
7.60926
7.56422
7.51832
7.47154
7.42387
7.3753
7.32581
7.27539
7.22402
7.1717
7.1184
7.0641
7.00881
6.95249
6.89513
6.83673
6.77725
6.71669
6.65503
6.59224
6.52833
6.46325
6.39701
6.32957
6.26093
6.19105
6.11993
6.04754
5.97386
5.89886
5.82253
5.74485
5.66647
5.58875
5.51237
5.43729
5.3635
5.29096
5.21966
5.14958
5.08068
5.01295
4.94636
4.88089
4.81651
4.75321
4.69097
4.62975
4.56955
4.51034
4.45209
4.3948
4.33843
4.28297
4.22841
4.17471
4.12187
4.06987
4.01869
3.9683
3.9187
3.86988
3.8218
3.77446
3.72784
3.68193
3.63672
3.59218
3.54831
3.5051
3.46253
3.42058
3.37925
3.33853
3.29841
3.25886
3.2199
3.1815
3.14365
3.10636
3.0696
3.03338
2.99768
2.9625
2.92783
2.89366
2.85999
2.82681
2.79412
2.76191
2.73017
2.6989
2.66809
2.63774
2.60784
2.57839
2.54937
7.73942
7.69688
7.65352
7.60933
7.56428
7.51838
7.4716
7.42393
7.37535
7.32586
7.27544
7.22407
7.17175
7.11844
7.06415
7.00885
6.95253
6.89518
6.83677
6.77729
6.71673
6.65506
6.59228
6.52836
6.46328
6.39704
6.3296
6.26096
6.19108
6.11996
6.04756
5.97388
5.89889
5.82255
5.74487
5.66649
5.58877
5.51238
5.4373
5.36351
5.29098
5.21968
5.14959
5.08069
5.01296
4.94637
4.8809
4.81652
4.75323
4.69098
4.62977
4.56956
4.51035
4.45211
4.39481
4.33845
4.28299
4.22843
4.17474
4.1219
4.0699
4.01872
3.96834
3.91874
3.86992
3.82184
3.77451
3.7279
3.682
3.63679
3.59226
3.5484
3.50519
3.46263
3.42069
3.37938
3.33867
3.29855
3.25902
3.22006
3.18167
3.14384
3.10655
3.06981
3.0336
2.99791
2.96274
2.92808
2.89393
2.86028
2.82711
2.79444
2.76224
2.73051
2.69926
2.66846
2.63813
2.60824
2.5788
2.5498
7.7395
7.69696
7.6536
7.6094
7.56435
7.51845
7.47166
7.42399
7.37541
7.32592
7.2755
7.22413
7.1718
7.1185
7.0642
7.0089
6.95258
6.89522
6.83681
6.77733
6.71677
6.6551
6.59232
6.5284
6.46332
6.39707
6.32964
6.26099
6.19111
6.11999
6.04759
5.97391
5.89891
5.82258
5.74489
5.66651
5.58879
5.51241
5.43733
5.36353
5.291
5.2197
5.14961
5.08071
5.01298
4.94639
4.88092
4.81655
4.75325
4.69101
4.62979
4.56959
4.51038
4.45214
4.39484
4.33848
4.28303
4.22847
4.17478
4.12194
4.06995
4.01877
3.96839
3.9188
3.86998
3.82191
3.77458
3.72798
3.68208
3.63688
3.59236
3.54851
3.50532
3.46276
3.42084
3.37953
3.33883
3.29873
3.25921
3.22026
3.18188
3.14406
3.10678
3.07005
3.03385
2.99818
2.96302
2.92838
2.89424
2.8606
2.82745
2.79478
2.7626
2.73089
2.69965
2.66887
2.63855
2.60867
2.57925
2.55026
7.73959
7.69704
7.65368
7.60948
7.56443
7.51852
7.47173
7.42406
7.37548
7.32599
7.27556
7.22419
7.17186
7.11855
7.06426
7.00895
6.95263
6.89527
6.83686
6.77738
6.71682
6.65515
6.59236
6.52844
6.46336
6.39712
6.32968
6.26103
6.19115
6.12003
6.04763
5.97395
5.89895
5.82262
5.74493
5.66654
5.58882
5.51244
5.43736
5.36356
5.29103
5.21973
5.14964
5.08075
5.01302
4.94643
4.88096
4.81658
4.75329
4.69105
4.62983
4.56963
4.51042
4.45218
4.39489
4.33853
4.28308
4.22852
4.17484
4.12201
4.07001
4.01884
3.96847
3.91888
3.87007
3.822
3.77468
3.72808
3.68219
3.637
3.59249
3.54865
3.50546
3.46292
3.42101
3.37972
3.33903
3.29894
3.25943
3.2205
3.18213
3.14432
3.10706
3.07033
3.03415
2.99849
2.96334
2.92871
2.89459
2.86096
2.82782
2.79517
2.763
2.73131
2.70008
2.66931
2.639
2.60915
2.57973
2.55076
7.73968
7.69713
7.65376
7.60956
7.56451
7.5186
7.47181
7.42413
7.37555
7.32606
7.27563
7.22426
7.17192
7.11862
7.06432
7.00901
6.95269
6.89533
6.83692
6.77743
6.71687
6.6552
6.59241
6.52849
6.46341
6.39716
6.32972
6.26107
6.1912
6.12007
6.04767
5.97399
5.89899
5.82266
5.74497
5.66658
5.58887
5.51248
5.4374
5.36361
5.29107
5.21977
5.14969
5.08079
5.01306
4.94647
4.881
4.81663
4.75334
4.6911
4.62989
4.56969
4.51048
4.45225
4.39496
4.3386
4.28315
4.2286
4.17492
4.12209
4.0701
4.01893
3.96856
3.91898
3.87017
3.82212
3.7748
3.72821
3.68233
3.63715
3.59264
3.54881
3.50564
3.46311
3.42122
3.37995
3.33928
3.2992
3.2597
3.22077
3.18242
3.14462
3.10737
3.07066
3.03448
2.99883
2.9637
2.92908
2.89497
2.86136
2.82824
2.7956
2.76345
2.73177
2.70055
2.6698
2.63951
2.60966
2.58026
2.5513
7.78151
7.73977
7.69722
7.65385
7.60965
7.56459
7.51868
7.47189
7.42421
7.37563
7.32613
7.2757
7.22433
7.17199
7.11868
7.06438
7.00908
6.95275
6.89539
6.83698
6.77749
6.71693
6.65526
6.59247
6.52854
6.46346
6.39721
6.32977
6.26112
6.19125
6.12012
6.04772
5.97404
5.89904
5.82271
5.74502
5.66663
5.58891
5.51253
5.43745
5.36366
5.29112
5.21983
5.14974
5.08085
5.01312
4.94653
4.88107
4.8167
4.75341
4.69117
4.62996
4.56977
4.51056
4.45233
4.39504
4.33869
4.28325
4.2287
4.17502
4.1222
4.07021
4.01905
3.96868
3.91911
3.87031
3.82226
3.77495
3.72836
3.68249
3.63731
3.59282
3.549
3.50584
3.46333
3.42147
3.38022
3.33957
3.2995
3.26001
3.2211
3.18275
3.14496
3.10772
3.07102
3.03486
2.99922
2.96411
2.9295
2.8954
2.8618
2.8287
2.79608
2.76394
2.73227
2.70107
2.67033
2.64005
2.61022
2.58084
2.55189
7.78161
7.73987
7.69732
7.65394
7.60974
7.56468
7.51876
7.47197
7.42429
7.37571
7.32621
7.27578
7.2244
7.17206
7.11875
7.06445
7.00915
6.95282
6.89546
6.83704
6.77756
6.71699
6.65532
6.59253
6.5286
6.46352
6.39727
6.32983
6.26118
6.1913
6.12017
6.04778
5.97409
5.89909
5.82276
5.74507
5.66669
5.58897
5.51259
5.43751
5.36372
5.29119
5.21989
5.14981
5.08092
5.01319
4.9466
4.88114
4.81678
4.75349
4.69125
4.63005
4.56986
4.51066
4.45243
4.39515
4.3388
4.28336
4.22881
4.17514
4.12232
4.07034
4.01918
3.96883
3.91926
3.87046
3.82242
3.77511
3.72854
3.68267
3.6375
3.59302
3.5492
3.50606
3.46358
3.42175
3.38054
3.33992
3.29986
3.26038
3.22147
3.18313
3.14535
3.10812
3.07143
3.03528
2.99966
2.96456
2.92997
2.89588
2.8623
2.8292
2.7966
2.76447
2.73282
2.70164
2.67092
2.64065
2.61084
2.58146
2.55253
7.78172
7.73997
7.69742
7.65404
7.60983
7.56477
7.51885
7.47206
7.42438
7.37579
7.32629
7.27586
7.22448
7.17214
7.11883
7.06453
7.00922
6.95289
6.89553
6.83711
6.77762
6.71705
6.65538
6.59259
6.52867
6.46359
6.39733
6.32989
6.26124
6.19136
6.12024
6.04784
5.97415
5.89916
5.82282
5.74514
5.66675
5.58904
5.51265
5.43758
5.36379
5.29126
5.21997
5.14989
5.081
5.01327
4.94669
4.88123
4.81687
4.75358
4.69135
4.63015
4.56996
4.51077
4.45254
4.39527
4.33892
4.28349
4.22895
4.17528
4.12247
4.0705
4.01934
3.96899
3.91943
3.87064
3.8226
3.77531
3.72874
3.68288
3.63771
3.59323
3.54944
3.50633
3.46389
3.42208
3.38088
3.34029
3.30026
3.26079
3.22189
3.18355
3.14578
3.10857
3.07189
3.03575
3.00014
2.96505
2.93048
2.89641
2.86284
2.82976
2.79717
2.76506
2.73343
2.70226
2.67156
2.6413
2.6115
2.58214
7.78182
7.74008
7.69752
7.65414
7.60993
7.56487
7.51895
7.47215
7.42447
7.37588
7.32638
7.27594
7.22456
7.17222
7.11891
7.0646
7.00929
6.95296
6.8956
6.83718
6.77769
6.71712
6.65545
6.59266
6.52873
6.46365
6.3974
6.32996
6.26131
6.19143
6.1203
6.04791
5.97422
5.89923
5.82289
5.74521
5.66683
5.58911
5.51273
5.43766