/*--------------------------------*- C++ -*----------------------------------*\
  =========                 |
  \\      /  F ield         | OpenFOAM: The Open Source CFD Toolbox
   \\    /   O peration     | Website:  https://openfoam.org
    \\  /    A nd           | Version:  10
     \\/     M anipulation  |
\*---------------------------------------------------------------------------*/
FoamFile
{
    format      ascii;
    class       volScalarField;
    location    "54000";
    object      k;
}
// * * * * * * * * * * * * * * * * * * * * * * * * * * * * * * * * * * * * * //

dimensions      [0 2 -2 0 0 0 0];

internalField   nonuniform List<scalar> 
17969
(
2.69745e-05
0.000618455
0.00155573
0.00274506
0.00401282
0.00548019
0.00726119
0.00946955
0.0119834
0.0144095
0.0163595
0.0176846
0.0184226
0.0187217
0.0187583
0.018698
0.0186615
0.0186889
0.0188652
0.0192194
0.0197465
0.0204231
0.0212187
0.0221015
0.0230413
0.0240122
0.0249934
0.0259693
0.0269292
0.0278658
0.0287748
0.0296534
0.0305003
0.0313152
0.032098
0.032849
0.0335686
0.0342573
0.0349154
0.0355434
0.0361416
0.0367101
0.0372492
0.0377589
0.0382394
0.0386908
0.0391132
0.0395068
0.0398717
0.0402082
0.0405166
0.0407974
0.041051
0.041278
0.0414791
0.041655
0.0418067
0.0419351
0.0420413
0.0421265
0.0421919
0.042239
0.042269
0.0422835
0.0422839
0.0422717
0.0422484
0.0422151
0.0421731
0.0421234
0.0420667
0.0420033
0.0419331
0.0418558
0.0417715
0.0416815
0.041586
0.0414824
0.0413701
0.0412482
0.0411183
0.0409828
0.0408448
0.040708
0.0405766
0.0404556
0.0403502
0.0402664
0.0402109
0.0401916
0.040217
0.0402963
0.0404422
0.0406657
0.0409777
0.0413895
0.0419122
0.0425511
0.0433116
0.0442051
1.20442e-05
0.000296402
0.00081876
0.00154124
0.00232294
0.00321592
0.00430857
0.00567705
0.007398
0.00956533
0.0120075
0.0144288
0.0165383
0.0181227
0.019145
0.0196846
0.019877
0.0198655
0.0197815
0.0197204
0.0197125
0.0198322
0.0201073
0.0205383
0.0211092
0.0217968
0.0225752
0.023419
0.0243051
0.0252133
0.0261271
0.0270338
0.0279244
0.0287927
0.0296344
0.0304471
0.0312294
0.0319803
0.0326997
0.0333875
0.0340438
0.0346688
0.0352626
0.0358254
0.0363575
0.036859
0.0373302
0.0377712
0.0381823
0.038564
0.0389165
0.0392403
0.0395359
0.039804
0.0400452
0.0402603
0.0404502
0.0406158
0.0407583
0.0408787
0.0409783
0.0410584
0.0411203
0.0411655
0.0411954
0.0412114
0.041215
0.0412073
0.0411897
0.0411631
0.0411281
0.0410852
0.0410345
0.0409753
0.0409079
0.0408332
0.0407513
0.0406619
0.0405619
0.0404511
0.0403314
0.0402054
0.0400765
0.0399484
0.0398257
0.0397138
0.0396185
0.0395466
0.0395053
0.0395023
0.0395459
0.039644
0.0398068
0.0400479
0.0403803
0.040816
0.0413673
0.0420405
0.0428423
0.0437854
6.15586e-06
0.000155922
0.000454111
0.000898024
0.0013682
0.00188304
0.0025145
0.00331972
0.00434529
0.00566404
0.00733356
0.00942719
0.0117682
0.0141443
0.0163633
0.0181841
0.01951
0.0203473
0.0207779
0.0209172
0.0208824
0.0207817
0.020694
0.0206503
0.0207156
0.0209179
0.0212615
0.0217367
0.0223253
0.0230059
0.0237563
0.0245559
0.0253863
0.0262313
0.0270777
0.0279153
0.0287364
0.0295356
0.030309
0.0310542
0.0317694
0.0324538
0.0331067
0.0337277
0.0343167
0.0348737
0.0353988
0.0358922
0.0363542
0.0367852
0.0371855
0.0375557
0.0378964
0.0382081
0.0384917
0.038748
0.0389778
0.0391821
0.039362
0.0395186
0.0396531
0.0397669
0.0398611
0.0399373
0.0399969
0.0400411
0.0400715
0.0400894
0.0400958
0.0400919
0.0400785
0.0400559
0.0400243
0.0399835
0.0399334
0.039875
0.0398086
0.0397346
0.0396488
0.0395516
0.0394452
0.0393323
0.0392162
0.0391009
0.038991
0.038892
0.0388104
0.0387536
0.0387298
0.0387478
0.0388166
0.0389448
0.0391401
0.0394122
0.039776
0.0402472
0.0408385
0.0415579
0.042414
0.0434205
3.91473e-06
9.96398e-05
0.000292487
0.000593676
0.00090252
0.00121751
0.00157708
0.00202433
0.00259785
0.0033521
0.00434033
0.0056071
0.00720284
0.00918955
0.0114309
0.0137387
0.0159867
0.0179875
0.0195903
0.0207392
0.0214561
0.0218167
0.02192
0.0218662
0.0217484
0.0216351
0.0215545
0.0215659
0.0216972
0.0219559
0.0223365
0.0228259
0.0234066
0.0240601
0.0247682
0.0255142
0.0262831
0.0270619
0.0278398
0.0286079
0.0293593
0.030089
0.030793
0.0314687
0.0321142
0.0327282
0.0333101
0.0338593
0.0343759
0.03486
0.0353119
0.035732
0.036121
0.0364794
0.0368081
0.0371079
0.0373797
0.0376246
0.0378435
0.0380377
0.0382084
0.0383567
0.038484
0.0385917
0.0386812
0.0387539
0.0388112
0.0388544
0.0388848
0.0389034
0.0389112
0.0389088
0.0388965
0.0388743
0.0388422
0.0388013
0.0387522
0.0386957
0.0386269
0.0385466
0.0384572
0.0383613
0.0382624
0.0381645
0.0380723
0.0379916
0.0379289
0.0378922
0.0378905
0.0379338
0.0380325
0.0381969
0.0384357
0.0387556
0.0391663
0.0396851
0.0403287
0.0411069
0.0420312
0.043116
0.0443712
0.045803
0.0474136
0.0492011
2.88541e-06
7.36335e-05
0.000214897
0.000443439
0.000672005
0.000888861
0.00111562
0.0013771
0.0016997
0.00210752
0.00263655
0.00334086
0.0042755
0.00546818
0.00696627
0.00882526
0.0109746
0.0132308
0.0154622
0.0175811
0.0194127
0.0208594
0.0218887
0.0225281
0.022846
0.0229284
0.0228614
0.0227252
0.0225806
0.0224535
0.0224001
0.0224499
0.0226144
0.0228935
0.0232786
0.0237565
0.0243115
0.0249277
0.025589
0.0262809
0.02699
0.0277047
0.0284154
0.0291139
0.029794
0.0304507
0.0310804
0.0316806
0.0322497
0.0327866
0.0332908
0.0337625
0.0342017
0.034609
0.034985
0.0353305
0.0356465
0.0359338
0.0361936
0.036427
0.036635
0.0368191
0.0369805
0.0371206
0.0372407
0.0373422
0.0374267
0.0374954
0.0375497
0.0375909
0.03762
0.037638
0.0376454
0.0376427
0.0376302
0.0376085
0.0375786
0.0375412
0.0374934
0.0374343
0.0373661
0.037292
0.0372153
0.0371401
0.0370713
0.0370148
0.0369775
0.0369677
0.0369948
0.0370698
0.0372042
0.0374099
0.037698
0.0380764
0.0385504
0.0391317
0.0398407
0.0406916
0.0416991
0.0428782
0.0442395
0.0457893
0.0475297
0.0494577
2.31423e-06
5.94429e-05
0.000172504
0.000362034
0.000550529
0.000719915
0.000883822
0.00105602
0.00125133
0.00148813
0.00178074
0.00215062
0.00263652
0.00328136
0.00413819
0.00523154
0.00660576
0.00831253
0.0103405
0.0125459
0.0147574
0.0169268
0.0189383
0.0206559
0.0220066
0.0229696
0.0235718
0.0238715
0.0239416
0.0238566
0.0236878
0.0234886
0.0232947
0.0231621
0.0231222
0.0231908
0.0233717
0.0236595
0.0240435
0.0245094
0.0250416
0.025624
0.0262414
0.0268799
0.0275275
0.0281739
0.0288106
0.0294309
0.0300297
0.0306031
0.0311485
0.0316639
0.0321484
0.0326016
0.0330234
0.0334141
0.0337743
0.0341046
0.034406
0.0346794
0.034926
0.0351469
0.0353432
0.0355165
0.0356679
0.0357991
0.0359113
0.0360061
0.036085
0.0361493
0.0362006
0.03624
0.0362686
0.0362873
0.0362964
0.0362967
0.0362888
0.0362733
0.0362508
0.0362168
0.0361744
0.0361268
0.0360776
0.036031
0.035992
0.0359667
0.0359623
0.0359872
0.0360514
0.0361663
0.0363444
0.0365987
0.0369418
0.0373841
0.0379315
0.0385907
0.0393789
0.0403181
0.0414256
0.0427171
0.0442036
0.0458915
0.0477816
0.0498698
1.98765e-06
5.14222e-05
0.000148369
0.000316606
0.000485728
0.000633081
0.000768208
0.000900435
0.00103788
0.0011894
0.00136691
0.00158126
0.00184445
0.00217951
0.0026191
0.00320129
0.00396615
0.00494385
0.00617602
0.00770913
0.00959108
0.0117076
0.0138977
0.0160714
0.0181911
0.0201282
0.0217744
0.0230709
0.0239991
0.0245791
0.0248587
0.0249025
0.0247805
0.0245619
0.0242906
0.0240256
0.0238193
0.0237029
0.0236935
0.0237954
0.0240039
0.0243085
0.0246951
0.0251479
0.025651
0.0261892
0.0267491
0.0273188
0.0278885
0.0284503
0.0289979
0.0295263
0.030032
0.0305123
0.0309656
0.0313907
0.0317872
0.0321548
0.0324938
0.0328046
0.0330879
0.0333445
0.0335754
0.0337818
0.0339648
0.034126
0.0342666
0.0343884
0.0344928
0.0345816
0.0346564
0.0347188
0.0347705
0.0348127
0.034846
0.0348711
0.034889
0.0349003
0.0349067
0.034901
0.0348884
0.0348722
0.034856
0.0348443
0.0348422
0.0348558
0.0348925
0.0349609
0.0350713
0.0352354
0.0354664
0.0357782
0.0361843
0.0366967
0.0373228
0.038069
0.0389516
0.0399965
0.041223
0.0426472
0.0442801
0.0461271
0.0481879
0.0504562
0.0529198
1.82003e-06
4.72919e-05
0.00013549
0.000292289
0.000452477
0.000590197
0.000712687
0.000827385
0.000939916
0.00105523
0.0011787
0.0013173
0.00148103
0.0016771
0.00191575
0.00221943
0.00261641
0.0031407
0.00382097
0.00469516
0.00580248
0.00718291
0.00888968
0.0108761
0.013028
0.0152072
0.0173622
0.0194314
0.0213049
0.0228911
0.0241348
0.0250168
0.025553
0.0257881
0.0257849
0.0256145
0.0253417
0.0250137
0.0246999
0.0244448
0.0242769
0.0242103
0.0242478
0.0243844
0.02461
0.0249115
0.0252745
0.0256847
0.0261286
0.0265941
0.0270707
0.0275496
0.0280237
0.0284871
0.0289353
0.0293648
0.0297731
0.0301583
0.0305192
0.0308549
0.0311653
0.0314501
0.0317099
0.0319452
0.0321569
0.0323459
0.0325137
0.0326616
0.0327913
0.0329046
0.0330034
0.0330896
0.0331652
0.0332321
0.033291
0.0333428
0.0333886
0.0334291
0.0334646
0.0334943
0.0335173
0.0335383
0.0335616
0.0335917
0.033634
0.0336947
0.0337811
0.0339019
0.0340675
0.0342901
0.0345834
0.0349618
0.0354397
0.0360295
0.0367396
0.0375811
0.0385746
0.0397438
0.0411094
0.0426873
0.0444875
0.0465144
0.0487654
0.0512317
0.0538984
0.0567452
0.0597478
1.75864e-06
4.57777e-05
0.00013014
0.00028139
0.000437926
0.000571822
0.000689012
0.000796101
0.000897755
0.000997523
0.00109859
0.00120436
0.0013191
0.0014488
0.00160164
0.00178315
0.0020026
0.00228051
0.0026416
0.00311146
0.0037226
0.00451058
0.00551242
0.0067642
0.00830777
0.0101731
0.0122629
0.0144479
0.016635
0.0187714
0.0207901
0.0225922
0.0240994
0.0252616
0.0260645
0.0265287
0.0267031
0.026652
0.0264455
0.0261322
0.0257788
0.0254405
0.025154
0.0249427
0.0248181
0.0247826
0.0248329
0.0249612
0.0251576
0.0254108
0.0257092
0.0260417
0.0263981
0.0267691
0.027147
0.027525
0.0278976
0.0282602
0.0286091
0.0289416
0.0292556
0.0295495
0.0298223
0.0300736
0.0303033
0.0305119
0.0306999
0.0308685
0.0310192
0.0311535
0.0312734
0.031381
0.0314787
0.0315687
0.0316522
0.0317302
0.0318045
0.0318767
0.0319473
0.0320178
0.032081
0.0321442
0.0322128
0.0322915
0.0323855
0.0325008
0.0326448
0.0328261
0.0330552
0.0333443
0.0337075
0.0341603
0.0347184
0.0353946
0.0361983
0.0371471
0.0382676
0.0395792
0.0411027
0.0428532
0.0448397
0.0470644
0.0495224
0.0522017
0.0550839
0.0581454
0.0613587
0.0646942
1.77639e-06
4.62434e-05
0.000130556
0.000280396
0.000436397
0.000569396
0.000684696
0.000788577
0.00088535
0.000978049
0.00106906
0.00116056
0.00125482
0.00135455
0.00146341
0.00158669
0.00173127
0.00190167
0.00210636
0.00236242
0.00269087
0.00311763
0.00367351
0.00439335
0.0053142
0.00647254
0.0079026
0.00964853
0.0116674
0.0138493
0.0160669
0.0182539
0.0203507
0.0222955
0.0239968
0.0253921
0.0264442
0.0271507
0.0275412
0.0276658
0.0275864
0.0273589
0.0270315
0.0266659
0.0263039
0.0259773
0.0257065
0.0255033
0.025373
0.0253155
0.0253271
0.0254013
0.0255303
0.0257051
0.0259168
0.0261565
0.0264161
0.0266882
0.0269662
0.0272445
0.0275184
0.027784
0.0280381
0.0282786
0.0285037
0.0287125
0.0289045
0.02908
0.0292399
0.0293852
0.0295176
0.0296393
0.0297527
0.0298603
0.0299634
0.0300634
0.030163
0.0302646
0.0303697
0.0304792
0.0305954
0.0307111
0.0308324
0.030966
0.0311179
0.0312946
0.0315029
0.0317512
0.0320501
0.0324113
0.0328482
0.0333768
0.034017
0.0347879
0.0357051
0.0367832
0.0380441
0.0395125
0.0412089
0.0431477
0.0453361
0.0477737
0.0504524
0.0533562
0.056463
0.0597454
0.0631726
0.0667124
0.0703319
0.0739997
1.85606e-06
4.8292e-05
0.000135669
0.000287355
0.000445063
0.00057902
0.000694331
0.000797218
0.000891917
0.000981296
0.00106746
0.00115214
0.00123688
0.00132331
0.00141327
0.00150912
0.00161402
0.00173261
0.00187091
0.00203243
0.00222393
0.00246096
0.0027627
0.00315319
0.00366181
0.00432278
0.00517337
0.00625109
0.00758918
0.00922134
0.0111692
0.0133248
0.0155528
0.0177842
0.0199461
0.0219724
0.0238117
0.0253899
0.0266609
0.0276044
0.0282297
0.0285701
0.0286712
0.028583
0.0283394
0.0280009
0.0276127
0.0272125
0.0268293
0.0264839
0.0261901
0.0259559
0.0257846
0.0256756
0.0256256
0.0256293
0.02568
0.0257702
0.0258925
0.0260392
0.0262035
0.0263788
0.0265597
0.0267416
0.0269205
0.0270933
0.0272582
0.0274138
0.0275594
0.0276954
0.0278226
0.0279428
0.028058
0.0281708
0.0282827
0.0283951
0.0285114
0.0286346
0.0287673
0.028912
0.0290719
0.0292472
0.0294328
0.0296333
0.0298535
0.030099
0.0303773
0.0306952
0.0310616
0.0314922
0.0320024
0.0326108
0.0333397
0.034213
0.0352534
0.0364772
0.0378965
0.0395342
0.0414172
0.0435584
0.0459628
0.0486265
0.051537
0.0546739
0.0580107
0.061516
0.065156
0.0688957
0.0727007
0.0765382
0.0803782
0.0841934
0.0879599
0.0916573
1.9907e-06
5.17346e-05
0.000144852
0.000300989
0.00046212
0.000598422
0.000715039
0.000818267
0.000912432
0.0010004
0.00108419
0.00116537
0.00124526
0.00132503
0.00140589
0.00148915
0.00157639
0.00166962
0.00177161
0.0018864
0.0020195
0.00217393
0.00235485
0.00257587
0.00285422
0.00321183
0.00367619
0.00428032
0.00506137
0.006058
0.0073064
0.00883646
0.0106865
0.0127839
0.0150005
0.0172303
0.0194262
0.0215212
0.0234517
0.0251666
0.0266193
0.0277788
0.0286378
0.0292093
0.0295195
0.0296001
0.0294858
0.0292295
0.0288769
0.0284675
0.0280341
0.0276029
0.0271944
0.0268232
0.0264993
0.0262282
0.0260119
0.0258494
0.0257372
0.0256707
0.0256438
0.0256504
0.0256841
0.0257386
0.0258084
0.0258884
0.0259748
0.0260643
0.0261547
0.0262449
0.0263344
0.0264242
0.0265159
0.0266113
0.0267117
0.0268187
0.0269356
0.0270653
0.027211
0.0273753
0.0275612
0.0277738
0.0280143
0.0282771
0.0285656
0.0288843
0.0292395
0.0296378
0.0300873
0.0305997
0.0311916
0.0318852
0.0327055
0.0336809
0.034841
0.0362111
0.0378033
0.0396291
0.0417124
0.0440698
0.0467029
0.0496032
0.0527533
0.0561278
0.0596953
0.0634208
0.0672671
0.0711973
0.0751756
0.0791686
0.0831462
0.0870815
0.0909513
0.0947359
2.17925e-06
5.65297e-05
0.000157903
0.000320593
0.000486315
0.000625679
0.000744358
0.000848812
0.000943411
0.00103107
0.00111382
0.00119321
0.00127044
0.00134656
0.00142252
0.00149926
0.00157778
0.0016592
0.0017449
0.00183664
0.00193684
0.00204898
0.00217814
0.00232723
0.00249984
0.00270727
0.00296482
0.00329201
0.00371375
0.00426091
0.00496944
0.00587817
0.00702544
0.00844265
0.0101633
0.0121632
0.0143263
0.0165242
0.0187075
0.0208238
0.0228191
0.0246378
0.0262291
0.0275655
0.0286279
0.0294098
0.0299172
0.0301807
0.030237
0.0301247
0.0298817
0.0295432
0.0291414
0.0287043
0.0282558
0.0278149
0.0273966
0.0270115
0.0266663
0.0263647
0.0261074
0.0258934
0.0257196
0.0255819
0.0254759
0.0253975
0.0253416
0.0253048
0.0252834
0.0252752
0.0252784
0.025293
0.0253193
0.0253589
0.0254139
0.0254859
0.025577
0.0256897
0.0258264
0.0259895
0.0261816
0.0264061
0.0266679
0.0269723
0.0273154
0.0276978
0.0281245
0.0286014
0.029136
0.0297389
0.0304249
0.031213
0.0321287
0.0332063
0.0344822
0.0359914
0.037756
0.0397835
0.0420825
0.0446667
0.0475373
0.0506805
0.0540728
0.0576834
0.0614764
0.065413
0.0694535
0.0735592
0.0776937
0.0818235
0.0859188
0.0899537
0.093906
0.097757
2.42282e-06
6.26973e-05
0.000174847
0.000344915
0.000516087
0.000659425
0.000780852
0.000887085
0.000982681
0.00107066
0.00115314
0.00123166
0.00130744
0.00138144
0.00145455
0.00152756
0.00160122
0.00167634
0.00175379
0.00183455
0.00191986
0.00201125
0.00211084
0.00222158
0.0023479
0.00249324
0.00265996
0.0028563
0.00309584
0.00339536
0.00377666
0.0042672
0.00490001
0.00571193
0.00674063
0.00801887
0.0095764
0.0114359
0.0134927
0.0156186
0.017753
0.019847
0.0218472
0.0237079
0.0253869
0.0268451
0.0280554
0.0290106
0.0297169
0.030191
0.0304563
0.0305397
0.0304699
0.030276
0.0299861
0.0296266
0.0292212
0.0287905
0.0283517
0.0279188
0.0275023
0.0271098
0.026746
0.0264128
0.0261114
0.0258416
0.0256025
0.0253918
0.0252076
0.0250477
0.0249116
0.0247983
0.024708
0.0246432
0.0246074
0.0246028
0.0246301
0.0246907
0.0247862
0.0249184
0.0250893
0.0253015
0.025558
0.025863
0.0262223
0.0266389
0.0271135
0.0276481
0.0282502
0.0289299
0.0297012
0.0305837
0.0316031
0.0327905
0.0341832
0.0358253
0.0377526
0.0399813
0.0425088
0.045329
0.0484404
0.0518262
0.0554567
0.0592955
0.0633021
0.0674344
0.0716509
0.0759118
0.0801807
0.0844245
0.0886145
0.0927258
0.0967376
0.100633
2.72251e-06
7.02192e-05
0.000195127
0.000373763
0.000551321
0.00069903
0.00082345
0.000931693
0.00102855
0.00111719
0.00119981
0.00127799
0.00135297
0.00142572
0.00149708
0.00156778
0.0016385
0.0017099
0.00178265
0.00185743
0.00193503
0.00201634
0.00210243
0.00219467
0.00229486
0.0024055
0.00253023
0.00267333
0.00283644
0.00302437
0.00324897
0.00352435
0.00386884
0.00430578
0.00486382
0.00557615
0.00647831
0.00760427
0.00898107
0.0106488
0.0125436
0.0145579
0.0166009
0.0186282
0.0205921
0.0224479
0.0241539
0.0256783
0.0269982
0.0281022
0.0289896
0.0296662
0.0301445
0.0304414
0.0305766
0.0305715
0.0304485
0.0302293
0.0299349
0.0295847
0.0291959
0.0287832
0.0283592
0.0279334
0.0275139
0.0271068
0.0267167
0.0263465
0.0259985
0.0256741
0.0253753
0.0251035
0.0248617
0.0246521
0.0244823
0.0243575
0.0242782
0.024245
0.0242588
0.0243211
0.0244334
0.0245978
0.0248168
0.0250932
0.0254308
0.0258336
0.0263071
0.026858
0.0274922
0.0282185
0.0290504
0.0300071
0.0311157
0.0324093
0.0339253
0.035703
0.0377854
0.0402035
0.0429579
0.0460257
0.0493796
0.053001
0.0568584
0.0609098
0.0651109
0.0694172
0.0737857
0.0781768
0.0825543
0.0868863
0.0911454
0.0953083
0.0993557
0.103272
0.107045
3.08323e-06
7.91867e-05
0.000218449
0.00040708
0.000591522
0.000743712
0.000871153
0.000981447
0.00107965
0.00116909
0.00125205
0.00133018
0.00140474
0.00147672
0.00154695
0.00161615
0.00168497
0.00175399
0.00182381
0.001895
0.00196815
0.00204388
0.0021229
0.00220599
0.00229411
0.00238843
0.0024905
0.00260241
0.00272712
0.00286903
0.00303019
0.00321268
0.00342572
0.0036813
0.0039944
0.00438428
0.00487487
0.00549478
0.00627593
0.00725147
0.00844779
0.00989629
0.0115899
0.0134461
0.0153545
0.0172747
0.0191601
0.0209673
0.0226612
0.0242128
0.0256029
0.0268171
0.0278477
0.0286945
0.0293617
0.0298576
0.0301941
0.0303856
0.0304478
0.0303976
0.0302514
0.0300256
0.0297353
0.0293946
0.0290163
0.0286114
0.0281894
0.0277586
0.0273261
0.026898
0.0264802
0.0260775
0.0256953
0.0253396
0.0250241
0.0247595
0.0245481
0.024391
0.02429
0.024247
0.0242639
0.0243431
0.024487
0.0246985
0.0249809
0.0253382
0.0257754
0.026299
0.0269174
0.0276427
0.0284921
0.029489
0.030662
0.0320456
0.0336779
0.0355959
0.0378369
0.0404342
0.0433999
0.0467105
0.050314
0.0541628
0.0582268
0.062467
0.066836
0.071288
0.0757795
0.0802714
0.0847287
0.089121
0.0934225
0.0976116
0.101671
0.105586
0.109347
3.51314e-06
8.97295e-05
0.000244808
0.000444575
0.000636088
0.000792676
0.000923034
0.00103531
0.00113485
0.00122512
0.00130851
0.00138674
0.00146108
0.00153256
0.00160203
0.00167019
0.00173768
0.00180508
0.00187294
0.00194178
0.00201212
0.00208448
0.00215938
0.0022374
0.00231914
0.00240531
0.00249671
0.00259438
0.00269961
0.00281415
0.00294043
0.00308198
0.00324238
0.00342261
0.00362766
0.00386826
0.00415655
0.00450819
0.00494263
0.00548339
0.00615717
0.00699238
0.00801367
0.00924108
0.0107116
0.0123624
0.0141128
0.015893
0.0176658
0.0193921
0.0210392
0.0225823
0.0239998
0.0252765
0.0264026
0.027372
0.0281832
0.028839
0.029345
0.0297091
0.0299417
0.0300544
0.0300595
0.0299697
0.0297977
0.0295556
0.029255
0.0289063
0.0285195
0.0281041
0.0276688
0.0272221
0.0267719
0.0263277
0.0259081
0.0255307
0.0252016
0.0249249
0.0247049
0.0245453
0.0244499
0.0244224
0.0244666
0.0245861
0.0247852
0.0250684
0.0254416
0.025912
0.0264897
0.027189
0.0280298
0.0290388
0.0302497
0.0317016
0.0334354
0.0354883
0.0378888
0.0406628
0.0438276
0.0473577
0.0511938
0.0552604
0.0595067
0.0639037
0.0684077
0.0729718
0.0775534
0.0821142
0.0866208
0.0910447
0.0953618
0.0995525
0.103601
0.107494
0.111224
4.01719e-06
0.000101846
0.000274328
0.000485894
0.00068438
0.000845152
0.000978255
0.0010924
0.0011932
0.00128429
0.00136814
0.00144652
0.00152076
0.0015919
0.0016608
0.00172818
0.00179468
0.00186088
0.00192731
0.00199449
0.00206291
0.00213303
0.00220534
0.00228028
0.00235834
0.00244001
0.00252581
0.00261634
0.00271228
0.00281451
0.00292411
0.00304254
0.00317178
0.00331464
0.00347534
0.0036554
0.00385638
0.0040869
0.00435722
0.00467978
0.00507012
0.00554681
0.0061313
0.00684706
0.00771841
0.00876129
0.0099968
0.0114199
0.0129747
0.0145872
0.0162167
0.0178315
0.0193991
0.0208935
0.0222941
0.0235849
0.0247528
0.0257896
0.0266903
0.0274529
0.0280787
0.0285714
0.0289367
0.0291818
0.0293154
0.0293467
0.0292854
0.0291411
0.0289234
0.0286421
0.0283067
0.0279267
0.0275119
0.027073
0.0266313
0.0262089
0.0258169
0.025464
0.0251577
0.0249051
0.0247128
0.0245869
0.0245336
0.0245583
0.024667
0.0248664
0.0251637
0.0255681
0.0260921
0.0267528
0.0275739
0.0285864
0.0298286
0.0313436
0.0331741
0.0353556
0.0379117
0.0408584
0.044207
0.0479334
0.0519652
0.0562173
0.0606269
0.0651502
0.069754
0.0743941
0.0790311
0.0836281
0.0881536
0.0925811
0.0968884
0.101058
0.105075
0.108929
0.112613
0.116119
4.59908e-06
0.000115609
0.000306432
0.00053028
0.000735567
0.000900315
0.00103601
0.00115192
0.00125392
0.00134579
0.0014301
0.00150867
0.00158286
0.00165374
0.00172218
0.00178891
0.0018546
0.00191981
0.00198511
0.00205099
0.00211796
0.00218646
0.00225696
0.00232988
0.00240565
0.00248465
0.0025673
0.002654
0.0027452
0.00284137
0.00294309
0.00305107
0.00316625
0.00328984
0.00342355
0.00356968
0.00373161
0.00391283
0.00411388
0.00433896
0.0045976
0.00489962
0.00525736
0.00568534
0.0062003
0.00682017
0.00756343
0.00844476
0.0094734
0.010669
0.0120048
0.0134359
0.0149005
0.0163731
0.017827
0.0192354
0.0205766
0.021833
0.0229914
0.0240414
0.0249753
0.0257889
0.0264803
0.0270499
0.0275001
0.0278351
0.02806
0.0281808
0.0282042
0.0281379
0.0279897
0.0277681
0.027482
0.0271418
0.0267672
0.0263819
0.0260014
0.0256382
0.0253039
0.0250089
0.0247623
0.0245736
0.0244518
0.0244047
0.0244409
0.0245695
0.0248003
0.0251451
0.0256197
0.0262453
0.0270502
0.0280706
0.0293498
0.0309342
0.0328675
0.035183
0.0378985
0.0410131
0.044513
0.0483735
0.0525461
0.0569499
0.0614989
0.066126
0.0707973
0.0754832
0.0801433
0.0847449
0.0892605
0.0936654
0.0979397
0.102067
0.106036
0.109836
0.11346
0.116905
5.27457e-06
0.000131288
0.00034061
0.00057708
0.000788929
0.000957461
0.00109561
0.0012132
0.00131635
0.00140899
0.00149375
0.0015725
0.00164666
0.0017173
0.00178532
0.00185147
0.0019164
0.00198073
0.00204501
0.00210976
0.0021755
0.0022427
0.00231181
0.00238326
0.00245746
0.00253478
0.00261557
0.00270016
0.00278887
0.00288202
0.00297993
0.00308301
0.00319173
0.00330667
0.00342864
0.00355871
0.00369832
0.00384943
0.00401474
0.00419843
0.00440201
0.00462633
0.00487882
0.00516787
0.0055029
0.00589514
0.00635697
0.00690166
0.00754265
0.00829315
0.00915976
0.0101458
0.0112658
0.0124888
0.0137797
0.0150914
0.0164015
0.0176891
0.0189326
0.0201134
0.021217
0.0222318
0.0231494
0.0239637
0.0246707
0.0252684
0.0257569
0.0261373
0.0264123
0.0265857
0.0266621
0.0266468
0.0265464
0.0263692
0.0261304
0.0258514
0.0255504
0.0252428
0.0249426
0.024663
0.0244163
0.0242142
0.0240679
0.0239879
0.0239849
0.0240715
0.0242608
0.0245674
0.0250111
0.025618
0.0264218
0.0274645
0.0287941
0.0304601
0.0325057
0.0349603
0.0378324
0.0411028
0.0447411
0.0487177
0.052984
0.0574677
0.062089
0.0667741
0.0714791
0.0761767
0.0808321
0.0854135
0.089894
0.0942528
0.0984728
0.10254
0.106444
0.110177
0.113733
0.117108
6.03176e-06
0.000148632
0.000377403
0.000625822
0.000843854
0.00101599
0.0011565
0.00127571
0.00137997
0.00147334
0.00155852
0.00163745
0.00171155
0.00178195
0.00184956
0.0019151
0.00197927
0.00204269
0.00210595
0.00216962
0.0022342
0.00230021
0.00236811
0.00243837
0.0025114
0.00258757
0.00266721
0.00275064
0.0028381
0.00292984
0.00302609
0.00312705
0.003233
0.00334423
0.00346114
0.00358424
0.00371425
0.00385212
0.00399913
0.00415702
0.00432806
0.00451547
0.004723
0.00495089
0.00520185
0.00548394
0.00580424
0.00617124
0.00659413
0.00708253
0.00764577
0.00829262
0.00903121
0.00986241
0.0107845
0.0118041
0.0128974
0.0140372
0.0151911
0.0163332
0.0174483
0.0185204
0.0195338
0.0204764
0.0213385
0.0221129
0.0227941
0.023379
0.0238654
0.0242527
0.0245417
0.0247343
0.0248336
0.0248448
0.0247764
0.0246449
0.0244689
0.0242648
0.0240482
0.0238336
0.0236349
0.0234654
0.0233387
0.0232676
0.0232644
0.0233432
0.0235214
0.0238177
0.0242558
0.024867
0.0256908
0.0267747
0.0281711
0.0299308
0.0320948
0.0346867
0.037701
0.0411088
0.0448741
0.048949
0.053274
0.057783
0.0624109
0.0670993
0.0718008
0.0764766
0.0810935
0.0856233
0.0900424
0.0943316
0.0984755
0.102462
0.106283
0.109932
0.113406
0.1167
6.87892e-06
0.000167541
0.000415802
0.000676076
0.000899908
0.00107547
0.00121826
0.00133905
0.00144442
0.00153852
0.00162413
0.00170322
0.00177723
0.0018473
0.00191435
0.00197916
0.00204245
0.00210486
0.00216703
0.00222957
0.00229297
0.00235777
0.00242451
0.00249369
0.00256573
0.00264102
0.00271992
0.00280272
0.00288965
0.00298093
0.0030767
0.00317711
0.00328228
0.00339238
0.00350758
0.00362813
0.00375439
0.00388683
0.0040261
0.00417307
0.00432892
0.00449518
0.00467384
0.00486742
0.00507983
0.00531308
0.00556698
0.00584668
0.00615865
0.00650875
0.00690387
0.00735077
0.00785599
0.00842503
0.00906224
0.0097711
0.0105492
0.0113912
0.0122947
0.0132494
0.0142328
0.015224
0.0161977
0.0171392
0.0180375
0.0188813
0.0196595
0.0203643
0.0209896
0.0215305
0.0219839
0.0223483
0.0226235
0.0228106
0.0229116
0.0229369
0.0229032
0.0228264
0.0227214
0.0226032
0.022486
0.022384
0.0223113
0.0222822
0.0223114
0.0224149
0.0226116
0.0229247
0.0233828
0.0240221
0.0248877
0.026032
0.0275103
0.0293727
0.0316562
0.034375
0.03751
0.0410248
0.044878
0.0490137
0.0533699
0.0578833
0.0624942
0.067149
0.0718023
0.0764161
0.0809587
0.0854042
0.0897315
0.0939236
0.0979672
0.101852
0.105568
0.109112
0.112483
0.115685
7.80922e-06
0.00018796
0.000455217
0.000727135
0.000956477
0.00113529
0.00128027
0.00140261
0.00150906
0.00160387
0.0016899
0.00176912
0.00184301
0.00191271
0.00197917
0.0020432
0.00210552
0.00216681
0.00222771
0.00228886
0.00235087
0.00241433
0.00247983
0.00254795
0.00261908
0.00269363
0.00277199
0.00285449
0.00294133
0.00303269
0.00312871
0.00322947
0.00333502
0.00344544
0.00356078
0.00368114
0.00380668
0.00393761
0.00407427
0.00421711
0.00436677
0.00452405
0.00469004
0.00486611
0.00505402
0.00525586
0.00547424
0.00571318
0.00597307
0.00625391
0.00656178
0.00690114
0.0072764
0.00769248
0.00815347
0.00866289
0.00922294
0.00983425
0.0104965
0.0112064
0.011957
0.0127402
0.0135526
0.0143801
0.0152059
0.0160148
0.0167873
0.0175158
0.0181924
0.0188081
0.0193567
0.0198331
0.0202338
0.0205567
0.0207978
0.0209615
0.0210608
0.02111
0.0211228
0.0211125
0.0210926
0.0210767
0.0210791
0.0211146
0.0211989
0.0213498
0.0215887
0.0219416
0.0224414
0.0231297
0.0240563
0.0252773
0.026849
0.0288194
0.0312193
0.0340473
0.0372757
0.040868
0.0447744
0.0489354
0.0532888
0.0577738
0.0623343
0.0669209
0.0714913
0.0760102
0.0804487
0.0847831
0.0889945
0.0930683
0.0969929
0.10076
0.104363
0.107795
0.111057
0.114156
8.81589e-06
0.000209633
0.000495097
0.000778375
0.00101298
0.00119491
0.00134201
0.00146584
0.00157334
0.00166884
0.00175523
0.00183451
0.00190819
0.00197742
0.00204318
0.00210628
0.00216749
0.00222751
0.00228704
0.00234675
0.0024073
0.00246933
0.00253348
0.00260031
0.00267037
0.00274414
0.00282207
0.0029045
0.00299149
0.00308327
0.00317999
0.00328165
0.00338828
0.00349987
0.00361641
0.00373791
0.0038644
0.00399595
0.00413271
0.0042749
0.00442286
0.00457704
0.00473804
0.00490664
0.00508382
0.00527078
0.00546903
0.00568041
0.00590693
0.00615102
0.00641598
0.00670124
0.0070071
0.00733889
0.00769911
0.00809048
0.00851586
0.00897681
0.00947423
0.010008
0.0105764
0.0111765
0.0118047
0.012455
0.0131193
0.01379
0.0144656
0.0151331
0.0157803
0.0163905
0.016958
0.0174758
0.0179383
0.0183414
0.0186765
0.0189417
0.0191462
0.0193014
0.0194191
0.0195106
0.0195878
0.0196623
0.0197474
0.0198579
0.0200098
0.0202223
0.0205184
0.0209273
0.0214855
0.0222389
0.0232409
0.0245499
0.0262212
0.0282986
0.0308015
0.0337165
0.0370122
0.040649
0.0445724
0.0487218
0.0530362
0.0574577
0.0619343
0.0664204
0.0708774
0.0752734
0.0795822
0.083783
0.0878593
0.0917984
0.0955907
0.0992296
0.10271
0.106029
0.109183
0.112175
9.88923e-06
0.00023228
0.000534946
0.00082922
0.00106883
0.00125375
0.0014029
0.00152819
0.00163669
0.00173282
0.00181949
0.00189874
0.00197208
0.0020407
0.00210557
0.00216756
0.00222745
0.00228602
0.00234398
0.00240209
0.00246105
0.00252158
0.00258434
0.00264998
0.00271907
0.00279212
0.00286955
0.00295171
0.00303885
0.0031312
0.00322897
0.00333186
0.00343994
0.00355323
0.0036716
0.003795
0.00392338
0.00405674
0.00419509
0.00433852
0.0044872
0.00464135
0.00480131
0.00496753
0.00514058
0.00532117
0.00551016
0.00570862
0.00591774
0.00613897
0.006374
0.00662441
0.00689199
0.00717924
0.00748497
0.00780885
0.00815493
0.00852383
0.00891659
0.00933447
0.00977713
0.0102434
0.0107315
0.0112381
0.0117592
0.0122911
0.0128303
0.0133713
0.0139092
0.0144452
0.0149689
0.0154637
0.0159255
0.0163493
0.0167251
0.017047
0.0173198
0.0175514
0.0177502
0.0179253
0.018087
0.0182449
0.0184101
0.0185962
0.0188195
0.0190996
0.0194612
0.0199357
0.0205631
0.021392
0.0224786
0.023881
0.0256517
0.0278282
0.0304147
0.0333898
0.036724
0.0403716
0.0442761
0.0483779
0.0526183
0.0569434
0.0613049
0.0656615
0.0699784
0.0742272
0.078385
0.0824334
0.0863586
0.0901499
0.0937995
0.0973022
0.100655
0.103855
0.1069
0.109791
1.10092e-05
0.000255504
0.000574146
0.000878982
0.00112339
0.0013112
0.00146234
0.00158905
0.00169851
0.00179519
0.00188204
0.00196113
0.00203398
0.00210179
0.00216557
0.00222622
0.00228457
0.00234143
0.00239762
0.00245391
0.00251111
0.00257
0.0026313
0.00269572
0.00276387
0.00283628
0.00291341
0.0029956
0.00308309
0.00317607
0.00327461
0.00337872
0.0034884
0.00360372
0.0037243
0.00385
0.00398082
0.00411665
0.00425741
0.00440312
0.00455383
0.00470963
0.0048707
0.00503727
0.00520968
0.00538833
0.00557373
0.0057665
0.00596734
0.00617708
0.00639666
0.00662706
0.00686939
0.00712485
0.00739425
0.00767818
0.0079786
0.00829387
0.0086222
0.00896649
0.00932663
0.00970108
0.0100897
0.0104912
0.0109024
0.0113204
0.0117435
0.012169
0.0125946
0.0130195
0.0134426
0.0138686
0.0142827
0.0146781
0.0150469
0.0153818
0.0156843
0.0159593
0.0162118
0.0164482
0.0166757
0.0169029
0.0171384
0.0173944
0.0176864
0.0180344
0.0184641
0.019009
0.019711
0.0206211
0.0217959