/*--------------------------------*- C++ -*----------------------------------*\
  =========                 |
  \\      /  F ield         | OpenFOAM: The Open Source CFD Toolbox
   \\    /   O peration     | Website:  https://openfoam.org
    \\  /    A nd           | Version:  10
     \\/     M anipulation  |
\*---------------------------------------------------------------------------*/
FoamFile
{
    format      ascii;
    class       volScalarField;
    location    "41000";
    object      p;
}
// * * * * * * * * * * * * * * * * * * * * * * * * * * * * * * * * * * * * * //

dimensions      [0 2 -2 0 0 0 0];

internalField   nonuniform List<scalar> 
17808
(
11.2922
11.3225
11.3401
11.3483
11.3539
11.3562
11.3563
11.3546
11.3515
11.3472
11.342
11.3358
11.3289
11.3213
11.3131
11.3043
11.2949
11.285
11.2746
11.2637
11.2523
11.2405
11.2281
11.2153
11.2021
11.1884
11.1742
11.1596
11.1445
11.1289
11.1129
11.0965
11.0795
11.0621
11.0442
11.0258
11.007
10.9876
10.9678
10.9474
10.9266
10.9052
10.8833
10.8609
10.8379
10.8144
10.7903
10.7656
10.7404
10.7146
10.6882
10.6613
10.6337
10.6055
10.5766
10.5472
10.517
10.4863
10.4548
10.4227
10.3899
10.3563
10.3221
10.2872
10.2515
10.215
10.1778
10.1399
10.1011
10.0616
10.0212
9.98
9.93797
9.8951
9.85136
9.80674
9.76122
9.71481
9.66747
9.61919
9.56997
9.51978
9.46861
9.41644
9.36327
9.30906
9.25382
9.19751
9.14014
9.08167
9.02209
8.96139
11.3725
11.377
11.3715
11.3682
11.3664
11.3638
11.3607
11.3569
11.3524
11.3472
11.3414
11.3348
11.3277
11.3199
11.3115
11.3027
11.2933
11.2833
11.2729
11.262
11.2507
11.2388
11.2265
11.2138
11.2006
11.1869
11.1728
11.1582
11.1432
11.1277
11.1117
11.0953
11.0784
11.061
11.0432
11.0248
11.006
10.9867
10.9669
10.9466
10.9257
10.9044
10.8825
10.8601
10.8372
10.8137
10.7896
10.765
10.7398
10.7141
10.6877
10.6608
10.6332
10.605
10.5762
10.5467
10.5166
10.4859
10.4544
10.4223
10.3895
10.356
10.3218
10.2869
10.2512
10.2148
10.1776
10.1396
10.1009
10.0613
10.021
9.9798
9.93778
9.89491
9.85118
9.80656
9.76106
9.71465
9.66731
9.61904
9.56982
9.51964
9.46847
9.41631
9.36314
9.30894
9.2537
9.1974
9.14002
9.08156
9.02198
8.96129
11.4105
11.4081
11.399
11.3931
11.3869
11.3803
11.3738
11.3671
11.3602
11.3531
11.3457
11.338
11.3299
11.3214
11.3125
11.3032
11.2934
11.2832
11.2726
11.2616
11.2501
11.2382
11.2258
11.213
11.1997
11.186
11.1719
11.1573
11.1423
11.1268
11.1108
11.0944
11.0775
11.0602
11.0424
11.0241
11.0053
10.986
10.9662
10.9459
10.9251
10.9038
10.8819
10.8595
10.8366
10.8131
10.7891
10.7645
10.7394
10.7136
10.6873
10.6603
10.6328
10.6046
10.5758
10.5464
10.5163
10.4855
10.4541
10.422
10.3892
10.3557
10.3215
10.2866
10.2509
10.2145
10.1773
10.1394
10.1007
10.0611
10.0208
9.97959
9.93758
9.89471
9.85099
9.80638
9.76088
9.71447
9.66714
9.61887
9.56965
9.51947
9.46831
9.41615
9.36298
9.30878
9.25354
9.19724
9.13987
9.0814
9.02183
8.96113
11.4121
11.4095
11.4031
11.3988
11.3929
11.3865
11.3799
11.3728
11.3654
11.3577
11.3497
11.3414
11.3327
11.3237
11.3143
11.3046
11.2945
11.284
11.2732
11.2619
11.2502
11.2382
11.2257
11.2128
11.1994
11.1857
11.1715
11.1569
11.1418
11.1263
11.1103
11.0939
11.077
11.0596
11.0418
11.0235
11.0047
10.9854
10.9656
10.9454
10.9246
10.9032
10.8814
10.859
10.8361
10.8127
10.7887
10.7641
10.7389
10.7132
10.6869
10.6599
10.6324
10.6042
10.5755
10.546
10.516
10.4852
10.4538
10.4217
10.3889
10.3555
10.3213
10.2863
10.2507
10.2143
10.1771
10.1392
10.1004
10.0609
10.0206
9.97938
9.93738
9.89452
9.85079
9.80619
9.76069
9.71428
9.66696
9.61869
9.56948
9.5193
9.46814
9.41598
9.36281
9.30861
9.25337
9.19707
9.1397
9.08123
9.02166
8.96096
11.4133
11.4102
11.4047
11.4003
11.3945
11.3884
11.382
11.375
11.3677
11.36
11.3519
11.3434
11.3346
11.3254
11.3158
11.3059
11.2956
11.2849
11.2739
11.2625
11.2506
11.2384
11.2258
11.2128
11.1994
11.1855
11.1713
11.1566
11.1415
11.1259
11.1099
11.0935
11.0765
11.0592
11.0413
11.023
11.0042
10.9849
10.9652
10.9449
10.9241
10.9028
10.8809
10.8586
10.8357
10.8122
10.7882
10.7637
10.7385
10.7128
10.6865
10.6596
10.632
10.6039
10.5751
10.5457
10.5156
10.4849
10.4535
10.4214
10.3887
10.3552
10.321
10.2861
10.2504
10.214
10.1769
10.1389
10.1002
10.0607
10.0204
9.97919
9.93718
9.89433
9.85061
9.80601
9.76051
9.71411
9.66679
9.61853
9.56931
9.51914
9.46798
9.41582
9.36265
9.30846
9.25322
9.19692
9.13955
9.08108
9.02151
8.96081
11.4183
11.4146
11.4093
11.4043
11.3982
11.3919
11.3851
11.3779
11.3703
11.3624
11.3541
11.3454
11.3364
11.327
11.3173
11.3072
11.2967
11.2859
11.2747
11.2632
11.2512
11.2389
11.2262
11.2131
11.1995
11.1856
11.1713
11.1565
11.1413
11.1257
11.1097
11.0932
11.0763
11.0589
11.041
11.0227
11.0039
10.9846
10.9648
10.9445
10.9237
10.9024
10.8806
10.8582
10.8353
10.8119
10.7879
10.7633
10.7382
10.7124
10.6861
10.6592
10.6317
10.6036
10.5748
10.5454
10.5153
10.4846
10.4532
10.4212
10.3884
10.3549
10.3208
10.2859
10.2502
10.2138
10.1767
10.1387
10.1
10.0605
10.0202
9.979
9.937
9.89415
9.85043
9.80584
9.76034
9.71395
9.66663
9.61837
9.56916
9.51898
9.46782
9.41567
9.3625
9.30831
9.25307
9.19677
9.1394
9.08094
9.02136
8.96067
11.4223
11.4183
11.4132
11.408
11.4018
11.3952
11.3882
11.3808
11.373
11.3649
11.3564
11.3475
11.3383
11.3288
11.3189
11.3086
11.298
11.287
11.2757
11.264
11.2519
11.2395
11.2267
11.2135
11.1999
11.1859
11.1715
11.1566
11.1414
11.1257
11.1096
11.0931
11.0761
11.0587
11.0408
11.0224
11.0036
10.9843
10.9645
10.9442
10.9234
10.9021
10.8802
10.8579
10.835
10.8115
10.7875
10.763
10.7378
10.7121
10.6858
10.6589
10.6314
10.6033
10.5745
10.5451
10.5151
10.4844
10.453
10.4209
10.3882
10.3547
10.3205
10.2856
10.25
10.2136
10.1765
10.1385
10.0998
10.0603
10.02
9.97881
9.93682
9.89397
9.85026
9.80567
9.76018
9.71379
9.66647
9.61821
9.56901
9.51883
9.46768
9.41552
9.36236
9.30817
9.25293
9.19663
9.13926
9.0808
9.02123
8.96053
11.4247
11.4205
11.4155
11.4102
11.404
11.3975
11.3904
11.383
11.3751
11.3669
11.3583
11.3493
11.34
11.3303
11.3203
11.3099
11.2992
11.2881
11.2767
11.2649
11.2527
11.2402
11.2273
11.214
11.2003
11.1862
11.1717
11.1569
11.1416
11.1258
11.1097
11.0931
11.0761
11.0586
11.0407
11.0223
11.0034
10.9841
10.9643
10.944
10.9232
10.9018
10.88
10.8576
10.8347
10.8113
10.7873
10.7627
10.7376
10.7118
10.6855
10.6586
10.6311
10.603
10.5743
10.5449
10.5148
10.4841
10.4527
10.4207
10.3879
10.3545
10.3203
10.2854
10.2498
10.2134
10.1763
10.1383
10.0996
10.0601
10.0198
9.97864
9.93665
9.89381
9.8501
9.80551
9.76003
9.71363
9.66632
9.61807
9.56886
9.51869
9.46754
9.41538
9.36222
9.30803
9.2528
9.1965
9.13913
9.08067
9.0211
8.9604
11.4265
11.4222
11.4173
11.4119
11.4057
11.3992
11.3921
11.3846
11.3767
11.3684
11.3598
11.3507
11.3414
11.3316
11.3215
11.3111
11.3003
11.2891
11.2776
11.2658
11.2535
11.2409
11.2279
11.2145
11.2008
11.1866
11.1721
11.1572
11.1418
11.126
11.1098
11.0932
11.0761
11.0586
11.0407
11.0223
11.0034
10.984
10.9642
10.9438
10.923
10.9017
10.8798
10.8574
10.8345
10.811
10.787
10.7625
10.7373
10.7116
10.6853
10.6584
10.6309
10.6028
10.574
10.5446
10.5146
10.4839
10.4525
10.4205
10.3877
10.3543
10.3201
10.2852
10.2496
10.2132
10.1761
10.1381
10.0994
10.0599
10.0196
9.97847
9.93649
9.89365
9.84994
9.80536
9.75988
9.71349
9.66617
9.61792
9.56872
9.51855
9.4674
9.41525
9.36209
9.3079
9.25267
9.19637
9.139
9.08054
9.02097
8.96028
11.4282
11.4237
11.419
11.4135
11.4073
11.4007
11.3936
11.386
11.3781
11.3698
11.3611
11.352
11.3426
11.3328
11.3227
11.3122
11.3013
11.2901
11.2785
11.2666
11.2543
11.2416
11.2285
11.2151
11.2013
11.1871
11.1725
11.1575
11.1421
11.1263
11.11
11.0934
11.0763
11.0587
11.0407
11.0223
11.0034
10.984
10.9641
10.9438
10.9229
10.9015
10.8797
10.8573
10.8343
10.8109
10.7869
10.7623
10.7371
10.7114
10.6851
10.6582
10.6307
10.6026
10.5738
10.5444
10.5144
10.4837
10.4523
10.4203
10.3875
10.3541
10.3199
10.285
10.2494
10.213
10.1759
10.138
10.0993
10.0598
10.0195
9.97831
9.93633
9.8935
9.84979
9.80521
9.75973
9.71335
9.66604
9.61779
9.56859
9.51842
9.46727
9.41513
9.36197
9.30778
9.25255
9.19625
9.13888
9.08042
9.02085
8.96016
11.4296
11.4251
11.4204
11.4148
11.4087
11.402
11.3949
11.3873
11.3794
11.371
11.3623
11.3532
11.3437
11.3339
11.3237
11.3131
11.3022
11.291
11.2793
11.2673
11.255
11.2423
11.2292
11.2157
11.2018
11.1876
11.1729
11.1579
11.1424
11.1266
11.1103
11.0936
11.0765
11.0589
11.0409
11.0224
11.0034
10.984
10.9641
10.9437
10.9229
10.9015
10.8796
10.8572
10.8342
10.8108
10.7867
10.7621
10.737
10.7113
10.685
10.658
10.6305
10.6024
10.5736
10.5442
10.5142
10.4835
10.4521
10.4201
10.3873
10.3539
10.3197
10.2849
10.2492
10.2129
10.1757
10.1378
10.0991
10.0596
10.0193
9.97817
9.93619
9.89336
9.84966
9.80508
9.7596
9.71322
9.66591
9.61766
9.56847
9.5183
9.46715
9.41501
9.36185
9.30766
9.25243
9.19614
9.13877
9.08031
9.02074
8.96005
11.4308
11.4262
11.4216
11.416
11.4098
11.4031
11.396
11.3884
11.3804
11.372
11.3633
11.3542
11.3447
11.3348
11.3246
11.314
11.303
11.2917
11.2801
11.2681
11.2557
11.2429
11.2298
11.2162
11.2023
11.1881
11.1734
11.1583
11.1428
11.1269
11.1106
11.0939
11.0767
11.0591
11.041
11.0225
11.0035
10.9841
10.9642
10.9438
10.9229
10.9015
10.8796
10.8571
10.8342
10.8107
10.7866
10.762
10.7369
10.7112
10.6848
10.6579
10.6304
10.6023
10.5735
10.5441
10.5141
10.4834
10.452
10.4199
10.3872
10.3537
10.3196
10.2847
10.2491
10.2127
10.1756
10.1377
10.099
10.0595
10.0192
9.97803
9.93605
9.89322
9.84953
9.80495
9.75948
9.71309
9.66579
9.61755
9.56835
9.51819
9.46704
9.4149
9.36174
9.30756
9.25233
9.19604
9.13867
9.08021
9.02064
8.95995
11.4318
11.4271
11.4226
11.4169
11.4108
11.4041
11.3969
11.3893
11.3813
11.3729
11.3642
11.355
11.3455
11.3356
11.3254
11.3148
11.3038
11.2925
11.2808
11.2687
11.2563
11.2435
11.2303
11.2168
11.2028
11.1885
11.1738
11.1587
11.1432
11.1273
11.1109
11.0941
11.0769
11.0593
11.0412
11.0227
11.0037
10.9842
10.9643
10.9438
10.9229
10.9015
10.8796
10.8571
10.8342
10.8107
10.7866
10.762
10.7368
10.7111
10.6847
10.6578
10.6303
10.6021
10.5734
10.544
10.5139
10.4832
10.4519
10.4198
10.3871
10.3536
10.3195
10.2846
10.249
10.2126
10.1754
10.1375
10.0988
10.0593
10.019
9.9779
9.93593
9.8931
9.84941
9.80483
9.75936
9.71298
9.66568
9.61744
9.56824
9.51808
9.46694
9.41479
9.36164
9.30745
9.25223
9.19594
9.13857
9.08011
9.02054
8.95985
11.4327
11.428
11.4234
11.4178
11.4116
11.4049
11.3978
11.3902
11.3822
11.3738
11.365
11.3558
11.3463
11.3364
11.3261
11.3155
11.3045
11.2931
11.2814
11.2693
11.2569
11.2441
11.2309
11.2173
11.2033
11.189
11.1742
11.1591
11.1436
11.1276
11.1112
11.0944
11.0772
11.0595
11.0414
11.0229
11.0038
10.9843
10.9644
10.9439
10.923
10.9016
10.8796
10.8572
10.8342
10.8107
10.7866
10.762
10.7368
10.711
10.6847
10.6577
10.6302
10.6021
10.5733
10.5439
10.5138
10.4831
10.4517
10.4197
10.3869
10.3535
10.3193
10.2845
10.2488
10.2125
10.1753
10.1374
10.0987
10.0592
10.0189
9.97779
9.93582
9.89299
9.8493
9.80472
9.75925
9.71287
9.66557
9.61733
9.56814
9.51798
9.46684
9.4147
9.36154
9.30736
9.25213
9.19585
9.13848
9.08002
9.02046
8.95976
11.4335
11.4287
11.4242
11.4185
11.4124
11.4057
11.3985
11.3909
11.3829
11.3745
11.3657
11.3565
11.3469
11.337
11.3267
11.3161
11.3051
11.2937
11.282
11.2699
11.2574
11.2446
11.2314
11.2178
11.2038
11.1894
11.1747
11.1595
11.1439
11.1279
11.1115
11.0947
11.0775
11.0598
11.0417
11.0231
11.004
10.9845
10.9645
10.9441
10.9231
10.9017
10.8797
10.8572
10.8342
10.8107
10.7866
10.762
10.7368
10.711
10.6847
10.6577
10.6302
10.602
10.5732
10.5438
10.5138
10.483
10.4517
10.4196
10.3869
10.3534
10.3192
10.2844
10.2487
10.2124
10.1752
10.1373
10.0986
10.0591
10.0188
9.97769
9.93572
9.89289
9.8492
9.80463
9.75916
9.71278
9.66548
9.61724
9.56805
9.51789
9.46675
9.41461
9.36146
9.30728
9.25205
9.19576
9.1384
9.07994
9.02037
8.95968
11.4341
11.4294
11.4249
11.4192
11.413
11.4063
11.3992
11.3916
11.3835
11.3751
11.3663
11.3571
11.3475
11.3376
11.3273
11.3167
11.3057
11.2943
11.2825
11.2704
11.2579
11.2451
11.2318
11.2182
11.2042
11.1898
11.1751
11.1599
11.1443
11.1283
11.1119
11.095
11.0778
11.06
11.0419
11.0233
11.0042
10.9847
10.9647
10.9442
10.9232
10.9018
10.8798
10.8573
10.8343
10.8107
10.7866
10.762
10.7368
10.711
10.6846
10.6577
10.6301
10.602
10.5732
10.5438
10.5137
10.483
10.4516
10.4195
10.3868
10.3533
10.3192
10.2843
10.2487
10.2123
10.1751
10.1372
10.0985
10.059
10.0187
9.9776
9.93563
9.8928
9.84911
9.80454
9.75907
9.71269
9.66539
9.61716
9.56797
9.51781
9.46667
9.41453
9.36138
9.3072
9.25197
9.19569
9.13832
9.07987
9.0203
8.9596
11.4348
11.43
11.4255
11.4198
11.4136
11.4069
11.3998
11.3921
11.3841
11.3757
11.3669
11.3577
11.3481
11.3382
11.3279
11.3172
11.3062
11.2948
11.283
11.2709
11.2584
11.2455
11.2323
11.2186
11.2046
11.1902
11.1754
11.1602
11.1446
11.1286
11.1122
11.0953
11.078
11.0603
11.0421
11.0235
11.0044
10.9849
10.9649
10.9444
10.9234
10.9019
10.8799
10.8574
10.8344
10.8108
10.7867
10.7621
10.7368
10.711
10.6847
10.6577
10.6301
10.602
10.5732
10.5437
10.5137
10.483
10.4516
10.4195
10.3867
10.3533
10.3191
10.2842
10.2486
10.2122
10.1751
10.1372
10.0985
10.059
10.0187
9.97753
9.93555
9.89273
9.84904
9.80446
9.75899
9.71262
9.66532
9.61708
9.56789
9.51773
9.4666
9.41446
9.36131
9.30713
9.2519
9.19562
11.4353
11.4305
11.426
11.4203
11.4142
11.4075
11.4003
11.3927
11.3846
11.3762
11.3674
11.3582
11.3486
11.3387
11.3284
11.3177
11.3066
11.2952
11.2835
11.2713
11.2588
11.2459
11.2327
11.219
11.205
11.1906
11.1758
11.1606
11.145
11.1289
11.1125
11.0956
11.0783
11.0606
11.0424
11.0238
11.0047
10.9851
10.9651
10.9446
10.9236
10.9021
10.8801
10.8575
10.8345
10.8109
10.7868
10.7621
10.7369
10.7111
10.6847
10.6577
10.6302
10.602
10.5732
10.5437
10.5137
10.4829
10.4515
10.4195
10.3867
10.3532
10.3191
10.2842
10.2485
10.2122
10.175
10.1371
10.0984
10.0589
10.0186
9.97747
9.93549
9.89266
9.84897
9.8044
9.75893
9.71255
9.66525
9.61702
9.56783
9.51767
9.46653
9.41439
9.36124
9.30706
9.25184
9.19555
11.4358
11.431
11.4265
11.4208
11.4147
11.408
11.4008
11.3932
11.3851
11.3767
11.3679
11.3586
11.3491
11.3391
11.3288
11.3181
11.3071
11.2957
11.2839
11.2718
11.2592
11.2463
11.2331
11.2194
11.2054
11.191
11.1761
11.1609
11.1453
11.1292
11.1128
11.0959
11.0786
11.0608
11.0426
11.024
11.0049
10.9853
10.9653
10.9447
10.9237
10.9022
10.8802
10.8577
10.8346
10.811
10.7869
10.7622
10.737
10.7112
10.6848
10.6578
10.6302
10.602
10.5732
10.5438
10.5137
10.4829
10.4515
10.4195
10.3867
10.3532
10.319
10.2841
10.2485
10.2121
10.175
10.1371
10.0984
10.0589
10.0186
9.97742
9.93544
9.89261
9.84892
9.80434
9.75888
9.7125
9.6652
9.61696
9.56777
9.51762
9.46648
9.41434
9.36119
9.30701
9.25178
9.19549
11.4363
11.4315
11.427
11.4213
11.4151
11.4084
11.4012
11.3936
11.3856
11.3771
11.3683
11.3591
11.3495
11.3395
11.3292
11.3185
11.3075
11.2961
11.2843
11.2721
11.2596
11.2467
11.2334
11.2198
11.2057
11.1913
11.1765
11.1612
11.1456
11.1295
11.1131
11.0962
11.0788
11.0611
11.0429
11.0242
11.0051
10.9855
10.9655
10.9449
10.9239
10.9024
10.8804
10.8578
10.8347
10.8111
10.787
10.7623
10.7371
10.7112
10.6848
10.6579
10.6303
10.6021
10.5733
10.5438
10.5137
10.483
10.4516
10.4195
10.3867
10.3532
10.319
10.2841
10.2485
10.2121
10.175
10.137
10.0983
10.0588
10.0185
9.97738
9.9354
9.89257
9.84888
9.8043
9.75883
9.71246
9.66516
9.61692
9.56773
9.51757
9.46643
9.41429
9.36114
11.4367
11.4319
11.4274
11.4217
11.4155
11.4088
11.4016
11.394
11.386
11.3775
11.3687
11.3595
11.3499
11.3399
11.3296
11.3189
11.3079
11.2964
11.2847
11.2725
11.26
11.2471
11.2338
11.2201
11.2061
11.1916
11.1768
11.1615
11.1459
11.1298
11.1133
11.0964
11.0791
11.0613
11.0431
11.0245
11.0053
10.9857
10.9657
10.9451
10.9241
10.9026
10.8805
10.858
10.8349
10.8113
10.7871
10.7624
10.7372
10.7113
10.6849
10.6579
10.6303
10.6021
10.5733
10.5439
10.5138
10.483
10.4516
10.4195
10.3867
10.3532
10.319
10.2841
10.2485
10.2121
10.175
10.137
10.0983
10.0588
10.0185
9.97736
9.93538
9.89255
9.84885
9.80427
9.7588
9.71242
9.66512
9.61688
9.56769
9.51753
9.46639
9.41425
9.3611
11.4371
11.4323
11.4278
11.4221
11.4159
11.4092
11.402
11.3944
11.3863
11.3779
11.3691
11.3598
11.3503
11.3403
11.33
11.3193
11.3082
11.2968
11.285
11.2728
11.2603
11.2474
11.2341
11.2204
11.2064
11.1919
11.1771
11.1618
11.1462
11.1301
11.1136
11.0967
11.0794
11.0616
11.0434
11.0247
11.0056
10.986
10.9659
10.9453
10.9243
10.9027
10.8807
10.8581
10.835
10.8114
10.7873
10.7626
10.7373
10.7115
10.685
10.658
10.6304
10.6022
10.5734
10.5439
10.5138
10.4831
10.4516
10.4195
10.3867
10.3533
10.3191
10.2842
10.2485
10.2121
10.175
10.137
10.0983
10.0588
10.0185
9.97735
9.93537
9.89253
9.84883
9.80425
9.75878
9.7124
9.6651
9.61686
9.56767
9.51751
9.46636
9.41422
9.36107
11.4374
11.4326
11.4281
11.4224
11.4163
11.4096
11.4024
11.3947
11.3867
11.3782
11.3694
11.3602
11.3506
11.3406
11.3303
11.3196
11.3085
11.2971
11.2853
11.2732
11.2606
11.2477
11.2344
11.2207
11.2067
11.1922
11.1774
11.1621
11.1464
11.1304
11.1139
11.097
11.0796
11.0618
11.0436
11.0249
11.0058
10.9862
10.9661
10.9455
10.9245
10.9029
10.8809
10.8583
10.8352
10.8116
10.7874
10.7627
10.7374
10.7116
10.6852
10.6581
10.6305
10.6023
10.5735
10.544
10.5139
10.4831
10.4517
10.4196
10.3868
10.3533
10.3191
10.2842
10.2485
10.2121
10.175
10.137
10.0983
10.0588
10.0185
9.97735
9.93537
9.89253
9.84883
9.80425
9.75877
9.71239
9.66509
9.61685
9.56765
9.51749
9.46635
9.41421
9.36105
11.4378
11.433
11.4285
11.4228
11.4166
11.4099
11.4027
11.3951
11.387
11.3786
11.3697
11.3605
11.3509
11.341
11.3306
11.3199
11.3089
11.2974
11.2856
11.2735
11.2609
11.248
11.2347
11.221
11.207
11.1925
11.1776
11.1624
11.1467
11.1306
11.1141
11.0972
11.0799
11.0621
11.0438
11.0251
11.006
10.9864
10.9663
10.9457
10.9247
10.9031
10.881
10.8585
10.8354
10.8117
10.7876
10.7628
10.7376
10.7117
10.6853
10.6583
10.6306
10.6024
10.5736
10.5441
10.514
10.4832
10.4518
10.4196
10.3869
10.3534
10.3192
10.2842
10.2486
10.2122
10.175
10.1371
10.0984
10.0588
10.0185
9.97737
9.93538
9.89254
9.84884
9.80425
9.75878
9.71239
9.66509
9.61684
9.56765
9.51749
9.46634
9.4142
9.36105
11.4381
11.4333
11.4288
11.4231
11.4169
11.4102
11.403
11.3954
11.3873
11.3789
11.37
11.3608
11.3512
11.3413
11.3309
11.3202
11.3092
11.2977
11.2859
11.2737
11.2612
11.2483
11.235
11.2213
11.2072
11.1928
11.1779
11.1626
11.147
11.1309
11.1144
11.0975
11.0801
11.0623
11.0441
11.0254
11.0062
10.9866
10.9665
10.9459
10.9249
10.9033
10.8812
10.8586
10.8355
10.8119
10.7877
10.763
10.7377
10.7118
10.6854
10.6584
10.6308
10.6025
10.5737
10.5442
10.5141
10.4833
10.4518
10.4197
10.3869
10.3534
10.3192
10.2843
10.2486
10.2122
10.1751
10.1371
10.0984
10.0589
10.0185
9.97739
9.9354
9.89256
9.84885
9.80427
9.75879
9.7124
9.6651
9.61685
9.56765
9.51749
9.46635
9.4142
9.36105
11.4384
11.4336
11.4291
11.4234
11.4172
11.4105
11.4033
11.3957
11.3876
11.3792
11.3703
11.3611
11.3515
11.3415
11.3312
11.3205
11.3094
11.298
11.2862
11.274
11.2615
11.2485
11.2352
11.2216
11.2075
11.193
11.1782
11.1629
11.1472
11.1311
11.1146
11.0977
11.0803
11.0625
11.0443
11.0256
11.0064
10.9868
10.9667
10.9461
10.925
10.9035
10.8814
10.8588
10.8357
10.8121
10.7879
10.7631
10.7378
10.712
10.6855
10.6585
10.6309
10.6026
10.5738
10.5443
10.5142
10.4834
10.4519
10.4198
10.387
10.3535
10.3193
10.2844
10.2487
10.2123
10.1751
10.1372
10.0984
10.0589
10.0186
9.97743
9.93544
9.89259
9.84888
9.8043
9.75881
9.71243
9.66512
9.61687
9.56767
9.51751
9.46636
9.41422
9.36106
11.4387
11.4339
11.4294
11.4237
11.4175
11.4108
11.4036
11.396
11.3879
11.3794
11.3706
11.3614
11.3518
11.3418
11.3315
11.3208
11.3097
11.2983
11.2865
11.2743
11.2617
11.2488
11.2355
11.2218
11.2077
11.1933
11.1784
11.1631
11.1475
11.1314
11.1148
11.0979
11.0805
11.0627
11.0445
11.0258
11.0066
10.987
10.9669
10.9463
10.9252
10.9037
10.8816
10.859
10.8359
10.8122
10.788
10.7633
10.738
10.7121
10.6857
10.6586
10.631
10.6028
10.5739
10.5444
10.5143
10.4835
10.452
10.4199
10.3871
10.3536
10.3194
10.2844
10.2488
10.2124
10.1752
10.1372
10.0985
10.059
10.0186
9.97748
9.93548
9.89263
9.84892
9.80433
9.75885
9.71246
9.66515
9.6169
9.5677
9.51753
9.46638
9.41424
9.36108
11.4389
11.4342
11.4296
11.424
11.4178
11.411
11.4039
11.3962
11.3882
11.3797
11.3709
11.3616
11.352
11.3421
11.3317
11.321
11.31
11.2985
11.2867
11.2745
11.262
11.2491
11.2358
11.2221
11.208
11.1935
11.1786
11.1634
11.1477
11.1316
11.1151
11.0981
11.0808
11.063
11.0447
11.026
11.0068
10.9872
10.9671
10.9465
10.9254
10.9039
10.8818
10.8592
10.8361
10.8124
10.7882
10.7635
10.7382
10.7123
10.6858
10.6588
10.6311
10.6029
10.574
10.5445
10.5144
10.4836
10.4521
10.42
10.3872
10.3537
10.3195
10.2845
10.2489
10.2124
10.1753
10.1373
10.0986
10.059
10.0187
9.97754
9.93554
9.89269
9.84897
9.80438
9.75889
9.7125
9.66519
9.61694
9.56773
9.51757
9.46642
9.41427
9.36111
11.4392
11.4344
11.4299
11.4242
11.418
11.4113
11.4041
11.3965
11.3884
11.38
11.3711
11.3619
11.3523
11.3423
11.332
11.3213
11.3102
11.2988
11.287
11.2748
11.2622
11.2493
11.236
11.2223
11.2082
11.1937
11.1789
11.1636
11.1479
11.1318
11.1153
11.0984
11.081
11.0632
11.0449
11.0262
11.007
10.9874
10.9673
10.9467
10.9256
10.904
10.882
10.8594
10.8362
10.8126
10.7884
10.7636
10.7383
10.7124
10.686
10.6589
10.6313
10.603
10.5742
10.5447
10.5145
10.4837
10.4523
10.4201
10.3873
10.3538
10.3196
10.2846
10.2489
10.2125
10.1753
10.1374
10.0986
10.0591
10.0188
9.97761
9.9356
9.89275
9.84903
9.80444
9.75895
9.71255
9.66524
9.61698
9.56778
9.51761
9.46646
9.41431
9.36115
11.4395
11.4347
11.4301
11.4245
11.4183
11.4116
11.4044
11.3967
11.3887
11.3802
11.3714
11.3622
11.3525
11.3426
11.3322
11.3215
11.3105
11.299
11.2872
11.275
11.2625
11.2495
11.2362
11.2225
11.2084
11.194
11.1791
11.1638
11.1481
11.132
11.1155
11.0986
11.0812
11.0634
11.0451
11.0264
11.0072
10.9876
10.9675
10.9469
10.9258
10.9042
10.8821
10.8595
10.8364
10.8127
10.7885
10.7638
10.7385
10.7126
10.6861
10.6591
10.6314
10.6032
10.5743
10.5448
10.5147
10.4839
10.4524
10.4203
10.3874
10.3539
10.3197
10.2847
10.249
10.2126
10.1754
10.1375
10.0987
10.0592
10.0189
9.97768
9.93568
9.89282
9.8491
9.8045
9.75901
9.71262
9.6653
9.61704
9.56783
9.51766
9.46651
9.41436
9.36119
11.4397
11.4349
11.4304
11.4247
11.4185
11.4118
11.4046
11.397
11.3889
11.3805
11.3716
11.3624
11.3528
11.3428
11.3325
11.3218
11.3107
11.2992
11.2874
11.2753
11.2627
11.2498
11.2365
11.2228
11.2087
11.1942
11.1793
11.164
11.1484
11.1323
11.1157
11.0988
11.0814
11.0636
11.0453
11.0266
11.0074
10.9878
10.9677
10.9471
10.926
10.9044
10.8823
10.8597
10.8366
10.8129
10.7887
10.764
10.7386
10.7128
10.6863
10.6592
10.6316
10.6033
10.5744
10.5449
10.5148
10.484
10.4525
10.4204
10.3876
10.354
10.3198
10.2848
10.2492
10.2127
10.1755
10.1376
10.0988
10.0593
10.0189
9.97777
9.93576
9.8929
9.84918
9.80458
9.75909
9.71269
9.66536
9.61711
9.5679
9.51772
9.46657
9.41442
9.36125
11.4399
11.4352
11.4306
11.425
11.4188
11.412
11.4048
11.3972
11.3892
11.3807
11.3719
11.3626
11.353
11.343
11.3327
11.322
11.3109
11.2995
11.2877
11.2755
11.2629
11.25
11.2367
11.223
11.2089
11.1944
11.1795
11.1643
11.1486
11.1325
11.1159
11.099
11.0816
11.0638
11.0455
11.0268
11.0076
10.988
10.9679
10.9473
10.9262
10.9046
10.8825
10.8599
10.8368
10.8131
10.7889
10.7641
10.7388
10.7129
10.6865
10.6594
10.6317
10.6035
10.5746
10.5451
10.5149
10.4841
10.4527
10.4205
10.3877
10.3542
10.3199
10.285
10.2493
10.2128
10.1756
10.1377
10.0989
10.0594
10.019
9.97787
9.93585
9.89299
9.84927
9.80466
9.75917
9.71276
9.66544
9.61718
9.56797
9.51779
9.46664
9.41448
9.36131
11.4402
11.4354
11.4309
11.4252
11.419
11.4123
11.4051
11.3974
11.3894
11.3809
11.3721
11.3629
11.3533
11.3433
11.3329
11.3222
11.3111
11.2997
11.2879
11.2757
11.2631
11.2502
11.2369
11.2232
11.2091
11.1946
11.1797
11.1645
11.1488
11.1327
11.1162
11.0992
11.0818
11.064
11.0457
11.027
11.0078
10.9882
10.9681
10.9475
10.9264
10.9048
10.8827
10.8601
10.8369
10.8133
10.7891
10.7643
10.739
10.7131
10.6866
10.6596
10.6319
10.6036
10.5748
10.5452
10.5151
10.4843
10.4528
10.4206
10.3878
10.3543
10.32
10.2851
10.2494
10.213
10.1758
10.1378
10.099
10.0595
10.0191
9.97797
9.93595
9.89309
9.84936
9.80476
9.75926
9.71285
9.66553
9.61726
9.56805
9.51787
9.46671
9.41456
9.36139
11.4404
11.4357
11.4311
11.4254
11.4192
11.4125
11.4053
11.3977
11.3896
11.3812
11.3723
11.3631
11.3535
11.3435
11.3332
11.3224
11.3114
11.2999
11.2881
11.2759
11.2634
11.2504
11.2371
11.2234
11.2093
11.1948
11.18
11.1647
11.149
11.1329
11.1164
11.0994
11.082
11.0642
11.0459
11.0272
11.008
10.9884
10.9683
10.9477
10.9266
10.905
10.8829
10.8603
10.8371
10.8135
10.7892
10.7645
10.7392
10.7133
10.6868
10.6597
10.6321
10.6038
10.5749
10.5454
10.5152
10.4844
10.4529
10.4208
10.388
10.3544
10.3202
10.2852
10.2495
10.2131
10.1759
10.1379
10.0992
10.0596
10.0193
9.97808
9.93606
9.89319
9.84946
9.80485
9.75935
9.71295
9.66562
9.61735
9.56814
9.51796
9.4668
9.41464
9.36147
11.4406
11.4359
11.4313
11.4256
11.4194
11.4127
11.4055
11.3979
11.3898
11.3814
11.3725
11.3633
11.3537
11.3437
11.3334
11.3227
11.3116
11.3001
11.2883
11.2761
11.2636
11.2506
11.2373
11.2236
11.2095
11.195
11.1802
11.1649
11.1492
11.1331
11.1166
11.0996
11.0822
11.0644
11.0461
11.0274
11.0082
10.9886
10.9685
10.9479
10.9268
10.9052
10.8831
10.8604
10.8373
10.8136
10.7894
10.7647
10.7393
10.7134
10.687
10.6599
10.6322
10.604
10.5751
10.5455
10.5154
10.4846
10.4531
10.4209
10.3881
10.3546
10.3203
10.2854
10.2497
10.2132
10.176
10.138
10.0993
10.0597
10.0194
9.97819
9.93617
9.89331
9.84957
9.80496
9.75946
9.71305
9.66572
9.61745
9.56823
9.51805
9.46689
9.41473
9.36156
11.4408
11.4361
11.4315
11.4259
11.4197
11.4129
11.4057
11.3981
11.39
11.3816
11.3727
11.3635
11.3539
11.3439
11.3336
11.3229
11.3118
11.3004
11.2885
11.2763
11.2638
11.2509
11.2375
11.2238
11.2097
11.1953
11.1804
11.1651
11.1494
11.1333
11.1168
11.0998
11.0824
11.0646
11.0463
11.0276
11.0084
10.9888
10.9686
10.948
10.9269
10.9053
10.8832
10.8606
10.8375
10.8138
10.7896
10.7648
10.7395
10.7136
10.6871
10.6601
10.6324
10.6041
10.5752
10.5457
10.5155
10.4847
10.4532
10.4211
10.3882
10.3547
10.3205
10.2855
10.2498
10.2134
10.1761
10.1382
10.0994
10.0599
10.0195
9.97832
9.93629
9.89342
9.84969
9.80507
9.75957
9.71316
9.66582
9.61756
9.56834
9.51815
9.46699
9.41482
11.4411
11.4363
11.4317
11.4261
11.4199
11.4132
11.406
11.3983
11.3903
11.3818
11.373
11.3637
11.3541
11.3441
11.3338
11.3231
11.312
11.3006
11.2887
11.2766
11.264
11.2511
11.2377
11.224
11.2099
11.1955
11.1806
11.1653
11.1496
11.1335
11.117
11.1
11.0826
11.0648
11.0465
11.0278
11.0086
10.989
10.9688
10.9482
10.9271
10.9055
10.8834
10.8608
10.8377
10.814
10.7898
10.765
10.7397
10.7138
10.6873
10.6602
10.6326
10.6043
10.5754
10.5459
10.5157
10.4849
10.4534
10.4212
10.3884
10.3549
10.3206
10.2856
10.2499
10.2135
10.1763
10.1383
10.0996
10.06
10.0196
9.97844
9.93642
9.89355
9.84981
9.80519
9.75968
9.71327
9.66594
9.61767
9.56844
9.51826
9.46709
9.41492
11.4413
11.4366
11.4319
11.4263
11.4201
11.4134
11.4062
11.3985
11.3905
11.382
11.3732
11.3639
11.3543
11.3444
11.334
11.3233
11.3122
11.3008
11.289
11.2768
11.2642
11.2513
11.2379
11.2242
11.2101
11.1957
11.1808
11.1655
11.1498
11.1337
11.1172
11.1002
11.0828
11.065
11.0467
11.028
11.0088
10.9892
10.969
10.9484
10.9273
10.9057
10.8836
10.861
10.8378
10.8142
10.79
10.7652
10.7399
10.714
10.6875
10.6604
10.6327
10.6045
10.5756
10.546
10.5159
10.485
10.4536
10.4214
10.3886
10.355
10.3208
10.2858
10.2501
10.2136
10.1764
10.1385
10.0997
10.0601
10.0198
9.97858
9.93655
9.89367
9.84993
9.80532
9.75981
9.71339
9.66605
9.61778
9.56856
9.51837
9.4672
9.41503
11.4415
11.4368
11.4321
11.4265
11.4203
11.4136
11.4064
11.3987
11.3907
11.3822
11.3734
11.3641
11.3545
11.3446
11.3342
11.3235
11.3124
11.301
11.2892
11.277
11.2644
11.2515
11.2381
11.2244
11.2103
11.1959
11.181
11.1657
11.15
11.1339
11.1174
11.1004
11.083
11.0652
11.0469
11.0282
11.009
10.9893
10.9692
10.9486
10.9275
10.9059
10.8838
10.8612
10.838
10.8144
10.7901
10.7654
10.74
10.7141
10.6876
10.6606
10.6329
10.6046
10.5757
10.5462
10.516
10.4852
10.4537
10.4216
10.3887
10.3552
10.3209
10.2859
10.2502
10.2138
10.1766
10.1386
10.0998
10.0603
10.0199
9.97871
9.93668
9.89381
9.85007
9.80545
9.75993
9.71352
9.66618
9.6179
9.56868
9.51849
9.46732
9.41515
11.4417
11.437
11.4323
11.4267
11.4205
11.4138
11.4066
11.3989
11.3909
11.3824
11.3736
11.3644
11.3547
11.3448
11.3344
11.3237
11.3126
11.3012
11.2894
11.2772
11.2646
11.2517
11.2383
11.2246
11.2105
11.1961
11.1812
11.1659
11.1502
11.1341
11.1176
11.1006
11.0832
11.0654
11.0471
11.0284
11.0092
10.9895
10.9694
10.9488
10.9277
10.9061
10.884
10.8614
10.8382
10.8145
10.7903
10.7655
10.7402
10.7143
10.6878
10.6607
10.6331
10.6048
10.5759
10.5464
10.5162
10.4854
10.4539
10.4217
10.3889
10.3553
10.3211
10.2861
10.2504
10.2139
10.1767
10.1387
10.1
10.0604
10.02
9.97885
9.93682
9.89394
9.8502
9.80558
9.76007
9.71365
9.66631
9.61803
9.5688
9.51861
9.46744
9.41527
11.4419
11.4372
11.4326
11.4269
11.4207
11.414
11.4068
11.3992
11.3911
11.3826
11.3738
11.3646
11.3549
11.345
11.3346
11.3239
11.3128
11.3014
11.2896
11.2774
11.2648
11.2519
11.2385
11.2248
11.2107
11.1963
11.1814
11.1661
11.1504
11.1343
11.1177
11.1008
11.0834
11.0656
11.0473
11.0286
11.0094
10.9897
10.9696
10.949
10.9279
10.9063
10.8842
10.8615
10.8384
10.8147
10.7905
10.7657
10.7404
10.7145
10.688
10.6609
10.6332
10.605
10.5761
10.5465
10.5164
10.4855
10.454
10.4219
10.389
10.3555
10.3212
10.2863
10.2505
10.2141
10.1769
10.1389
10.1001
10.0606
10.0202
9.979
9.93697
9.89408
9.85034
9.80572
9.7602
9.71378
9.66644
9.61816
9.56893
9.51874
9.46756
9.41539
11.4421
11.4374
11.4328
11.4271
11.4209
11.4142
11.407
11.3994
11.3913
11.3828
11.374
11.3648
11.3551
11.3452
11.3348
11.3241
11.313
11.3016
11.2898
11.2776
11.265
11.2521
11.2387
11.225
11.2109
11.1965
11.1816
11.1663
11.1506
11.1345
11.1179
11.101
11.0836
11.0658
11.0475
11.0288
11.0096
10.9899
10.9698
10.9492
10.9281
10.9065
10.8844
10.8617
10.8386
10.8149
10.7907
10.7659
10.7406
10.7147
10.6882
10.6611
10.6334
10.6051
10.5762
10.5467
10.5165
10.4857
10.4542
10.422
10.3892
10.3556
10.3214
10.2864
10.2507
10.2142
10.177
10.139
10.1003
10.0607
10.0203
9.97914
9.93711
9.89423
9.85048
9.80586
9.76034
9.71392
9.66658
9.6183
9.56907
9.51887
9.4677
9.41552
11.4423
11.4376
11.433
11.4273
11.4211
11.4144
11.4072
11.3996
11.3915
11.383
11.3742
11.365
11.3553
11.3454
11.335
11.3243
11.3132
11.3018
11.29
11.2778
11.2652
11.2523
11.2389
11.2252
11.2111
11.1966
11.1818
11.1665
11.1508
11.1347
11.1181
11.1012
11.0838
11.066