/*--------------------------------*- C++ -*----------------------------------*\
  =========                 |
  \\      /  F ield         | OpenFOAM: The Open Source CFD Toolbox
   \\    /   O peration     | Website:  https://openfoam.org
    \\  /    A nd           | Version:  10
     \\/     M anipulation  |
\*---------------------------------------------------------------------------*/
FoamFile
{
    format      ascii;
    class       volVectorField;
    location    "41000";
    object      U;
}
// * * * * * * * * * * * * * * * * * * * * * * * * * * * * * * * * * * * * * //

dimensions      [0 1 -1 0 0 0 0];

internalField   nonuniform List<vector> 
17808
(
(-1.43194 1.55636 -6.27267e-18)
(-1.77068 1.93236 -7.04161e-19)
(-1.92042 2.09714 4.55838e-18)
(-2.02316 2.20606 4.91503e-18)
(-2.09949 2.28947 -1.15538e-18)
(-2.16069 2.35596 -8.16329e-18)
(-2.21144 2.41137 4.1064e-18)
(-2.25478 2.45879 -4.36663e-18)
(-2.29259 2.50024 7.35735e-18)
(-2.32611 2.53705 -1.46857e-21)
(-2.35621 2.57015 -3.32904e-18)
(-2.38352 2.60022 2.38149e-18)
(-2.40852 2.62776 -3.41904e-18)
(-2.43155 2.65316 3.63942e-19)
(-2.4529 2.67673 0)
(-2.4728 2.6987 3.36009e-19)
(-2.49142 2.71929 -6.47307e-19)
(-2.50891 2.73863 -6.24341e-19)
(-2.5254 2.75687 -2.71229e-18)
(-2.54099 2.77413 2.30811e-21)
(-2.55576 2.79048 2.25892e-18)
(-2.56978 2.80603 0)
(-2.58313 2.82082 2.12107e-18)
(-2.59586 2.83494 -2.0616e-18)
(-2.60801 2.84842 2.00079e-18)
(-2.61963 2.86131 -2.43464e-18)
(-2.63075 2.87365 -4.7355e-19)
(-2.6414 2.88549 0)
(-2.65162 2.89684 -4.49294e-19)
(-2.66144 2.90774 -4.37943e-19)
(-2.67086 2.91822 1.70736e-18)
(-2.67992 2.92829 -1.25171e-18)
(-2.68863 2.93798 0)
(-2.69701 2.9473 0)
(-2.70508 2.95628 3.8822e-19)
(-2.71284 2.96492 1.89584e-18)
(-2.72032 2.97323 -1.11405e-18)
(-2.72751 2.98125 0)
(-2.73444 2.98896 -1.41775e-18)
(-2.74111 2.99639 2.61309e-21)
(-2.74753 3.00354 2.03904e-18)
(-2.75371 3.01042 1.99294e-18)
(-2.75965 3.01704 -1.30276e-18)
(-2.76536 3.0234 6.36999e-19)
(-2.77085 3.02952 0)
(-2.77612 3.0354 -6.10696e-19)
(-2.78118 3.04104 1.7928e-18)
(-2.78603 3.04645 -2.34405e-18)
(-2.79068 3.05163 5.73598e-19)
(-2.79513 3.05659 0)
(-2.79938 3.06133 0)
(-2.80344 3.06586 1.61515e-18)
(-2.8073 3.07017 -5.29117e-19)
(-2.81098 3.07427 0)
(-2.81447 3.07817 5.06104e-19)
(-2.81777 3.08186 4.9561e-19)
(-2.8209 3.08535 -4.85279e-19)
(-2.82384 3.08864 -4.75108e-19)
(-2.8266 3.09173 -4.65119e-19)
(-2.82919 3.09462 9.09176e-19)
(-2.8316 3.09732 -1.40673e-21)
(-2.83383 3.09982 8.70767e-19)
(-2.83589 3.10212 -8.54856e-19)
(-2.83777 3.10423 -8.3495e-19)
(-2.83948 3.10615 -1.63201e-18)
(-2.84101 3.10787 7.98742e-19)
(-2.84237 3.1094 -1.56354e-18)
(-2.84355 3.11074 1.5272e-18)
(-2.84457 3.11188 0)
(-2.8454 3.11284 7.29424e-19)
(-2.84607 3.11359 1.42389e-18)
(-2.84655 3.11416 -6.99064e-19)
(-2.84687 3.11453 -6.81339e-19)
(-2.847 3.11471 6.63844e-19)
(-2.84696 3.11469 -1.44955e-21)
(-2.84675 3.11447 -1.89719e-18)
(-2.84635 3.11406 1.23547e-18)
(-2.84578 3.11345 0)
(-2.84503 3.11265 -5.8834e-19)
(-2.84409 3.11164 -1.71791e-18)
(-2.84298 3.11043 0)
(-2.84168 3.10902 0)
(-2.8402 3.10741 1.05853e-18)
(-2.83853 3.10559 0)
(-2.83668 3.10356 1.00352e-18)
(-2.83463 3.10133 0)
(-2.8324 3.09888 -1.99314e-23)
(-2.82998 3.09623 0)
(-2.82736 3.09336 0)
(-2.82455 3.09028 8.73678e-19)
(-2.82154 3.08699 1.69811e-18)
(-2.81834 3.08347 1.64975e-18)
(-1.43101 1.56914 -7.02264e-19)
(-1.7652 1.94507 6.94712e-19)
(-1.91544 2.10683 0)
(-2.01654 2.21579 0)
(-2.09221 2.29867 1.15232e-18)
(-2.1531 2.36462 -5.41198e-19)
(-2.2037 2.41955 4.07819e-18)
(-2.247 2.46658 -3.37062e-18)
(-2.28482 2.5077 -4.55952e-19)
(-2.31837 2.54425 3.46064e-18)
(-2.34851 2.57714 -3.70709e-18)
(-2.37586 2.60704 7.85743e-19)
(-2.4009 2.63445 3.75594e-19)
(-2.42397 2.65976 -3.59823e-19)
(-2.44536 2.68325 0)
(-2.46529 2.70516 -3.32049e-19)
(-2.48394 2.7257 3.19759e-19)
(-2.50145 2.74501 3.08377e-19)
(-2.51796 2.76323 0)
(-2.53356 2.78047 0)
(-2.54835 2.79682 0)
(-2.56238 2.81236 -5.4018e-19)
(-2.57574 2.82715 0)
(-2.58847 2.84127 -5.08732e-19)
(-2.60063 2.85475 0)
(-2.61225 2.86765 4.80735e-19)
(-2.62337 2.88 4.67887e-19)
(-2.63403 2.89184 0)
(-2.64425 2.90321 -1.77461e-18)
(-2.65407 2.91412 4.35324e-19)
(-2.66349 2.92461 1.26793e-18)
(-2.67255 2.9347 -4.12081e-19)
(-2.68126 2.9444 1.60824e-18)
(-2.68964 2.95373 -3.53735e-18)
(-2.6977 2.96272 1.15345e-18)
(-2.70546 2.97137 -3.75422e-19)
(-2.71294 2.97971 -7.34223e-19)
(-2.72013 2.98773 0)
(-2.72705 2.99546 0)
(-2.73372 3.0029 1.71759e-18)
(-2.74013 3.01006 -1.34726e-18)
(-2.74631 3.01696 -4.31905e-23)
(-2.75225 3.02359 -6.45118e-19)
(-2.75795 3.02997 -1.26347e-18)
(-2.76344 3.0361 -6.17408e-19)
(-2.76871 3.04199 1.81948e-18)
(-2.77376 3.04764 -1.18601e-18)
(-2.77861 3.05307 1.74616e-18)
(-2.78325 3.05826 -1.70804e-18)
(-2.7877 3.06323 1.11788e-18)
(-2.79194 3.06798 -1.09256e-18)
(-2.79599 3.07252 1.07316e-18)
(-2.79986 3.07684 -5.25061e-19)
(-2.80353 3.08096 0)
(-2.80702 3.08486 -5.03972e-19)
(-2.81032 3.08857 0)
(-2.81344 3.09206 0)
(-2.81638 3.09536 4.73713e-19)
(-2.81914 3.09846 1.41399e-21)
(-2.82172 3.10136 9.10119e-19)
(-2.82413 3.10406 -8.89795e-19)
(-2.82636 3.10657 8.7118e-19)
(-2.82841 3.10888 0)
(-2.83029 3.11099 0)
(-2.832 3.11292 1.63245e-18)
(-2.83353 3.11464 -7.99385e-19)
(-2.83489 3.11618 1.56556e-18)
(-2.83607 3.11752 -1.45858e-21)
(-2.83708 3.11867 -7.49546e-19)
(-2.83792 3.11963 0)
(-2.83858 3.12039 -1.42865e-18)
(-2.83907 3.12096 2.7954e-18)
(-2.83939 3.12133 -2.91641e-21)
(-2.83953 3.12151 -2.91925e-21)
(-2.83949 3.12149 -1.45235e-21)
(-2.83927 3.12128 6.34724e-19)
(-2.83888 3.12087 -1.24354e-18)
(-2.83831 3.12026 6.06097e-19)
(-2.83756 3.11945 1.18128e-18)
(-2.83663 3.11844 -5.78297e-19)
(-2.83552 3.11723 5.61049e-19)
(-2.83423 3.11582 -1.64662e-18)
(-2.83275 3.1142 1.60196e-18)
(-2.83109 3.11238 -2.91261e-21)
(-2.82924 3.11035 -1.01452e-18)
(-2.8272 3.10811 4.95412e-19)
(-2.82497 3.10566 -1.92349e-18)
(-2.82256 3.10301 0)
(-2.81995 3.10013 0)
(-2.81715 3.09705 -1.77143e-18)
(-2.81415 3.09374 -1.29039e-18)
(-2.81095 3.09022 -8.34287e-19)
(-1.42878 1.57668 1.40435e-18)
(-1.7628 1.95246 1.10961e-17)
(-1.91298 2.11376 -2.08406e-17)
(-2.01258 2.22362 9.78358e-18)
(-2.08764 2.30635 -5.72741e-19)
(-2.14792 2.37224 0)
(-2.198 2.4271 0)
(-2.24088 2.47403 0)
(-2.27837 2.51505 -6.77121e-18)
(-2.31167 2.55149 6.85544e-18)
(-2.34161 2.58427 4.07295e-19)
(-2.36882 2.61408 1.12368e-22)
(-2.39374 2.64141 5.9363e-18)
(-2.41673 2.66664 -1.1729e-17)
(-2.43805 2.69006 5.45852e-18)
(-2.45793 2.71193 4.91453e-18)
(-2.47654 2.73242 -4.7359e-18)
(-2.49402 2.7517 0)
(-2.51051 2.76989 0)
(-2.52609 2.7871 0)
(-2.54086 2.80343 0)
(-2.55488 2.81896 1.06574e-18)
(-2.56823 2.83375 0)
(-2.58095 2.84786 5.01838e-19)
(-2.5931 2.86134 0)
(-2.60472 2.87424 -4.74242e-19)
(-2.61583 2.8866 0)
(-2.62648 2.89844 1.79669e-18)
(-2.6367 2.90981 -1.75324e-18)
(-2.64651 2.92073 4.27082e-19)
(-2.65593 2.93123 -4.1666e-19)
(-2.66498 2.94132 2.03232e-18)
(-2.67368 2.95104 -2.45428e-21)
(-2.68206 2.96038 -1.16523e-18)
(-2.69012 2.96938 1.13639e-18)
(-2.69787 2.97804 -1.11346e-18)
(-2.70534 2.98639 3.626e-19)
(-2.71252 2.99443 0)
(-2.71944 3.00217 0)
(-2.7261 3.00962 -2.0372e-18)
(-2.73251 3.01679 2.56489e-21)
(-2.73868 3.0237 2.54422e-21)
(-2.74461 3.03035 1.91514e-18)
(-2.75032 3.03674 -1.24844e-18)
(-2.7558 3.04288 6.13466e-19)
(-2.76106 3.04878 0)
(-2.76611 3.05444 0)
(-2.77095 3.05988 0)
(-2.77559 3.06508 1.34366e-21)
(-2.78003 3.07006 5.54468e-19)
(-2.78427 3.07483 0)
(-2.78832 3.07937 5.31271e-19)
(-2.79218 3.08371 -1.04001e-18)
(-2.79584 3.08783 1.53226e-18)
(-2.79933 3.09175 9.98823e-19)
(-2.80263 3.09546 -9.81548e-19)
(-2.80574 3.09896 -9.59087e-19)
(-2.80868 3.10227 4.71958e-19)
(-2.81144 3.10537 -4.61042e-19)
(-2.81402 3.10828 4.51654e-19)
(-2.81642 3.11099 8.84871e-19)
(-2.81865 3.1135 -8.66682e-19)
(-2.8207 3.11582 0)
(-2.82258 3.11794 0)
(-2.82428 3.11987 -2.03358e-23)
(-2.82581 3.1216 -1.59151e-18)
(-2.82717 3.12314 7.8095e-19)
(-2.82835 3.12449 -7.61342e-19)
(-2.82936 3.12564 2.23882e-18)
(-2.8302 3.1266 -1.45417e-21)
(-2.83086 3.12737 7.13897e-19)
(-2.83135 3.12794 -6.98037e-19)
(-2.83167 3.12831 0)
(-2.83181 3.12849 0)
(-2.83177 3.12847 0)
(-2.83156 3.12826 6.35073e-19)
(-2.83117 3.12785 -6.23106e-19)
(-2.8306 3.12724 -6.06976e-19)
(-2.82986 3.12643 0)
(-2.82893 3.12542 0)
(-2.82782 3.12421 -1.69074e-18)
(-2.82653 3.1228 2.75226e-18)
(-2.82506 3.12118 -1.90621e-23)
(-2.8234 3.11935 0)
(-2.82156 3.11732 -5.08122e-19)
(-2.81953 3.11508 2.91812e-21)
(-2.81731 3.11262 4.84985e-19)
(-2.8149 3.10996 -9.41538e-19)
(-2.8123 3.10708 -9.16457e-19)
(-2.8095 3.10399 1.33623e-18)
(-2.80652 3.10068 -2.89097e-21)
(-2.80333 3.09715 4.2037e-19)
(-1.42438 1.58149 9.83071e-18)
(-1.75869 1.95738 1.03764e-17)
(-1.90843 2.11947 -1.10281e-17)
(-2.00736 2.22998 6.08032e-19)
(-2.08233 2.31273 0)
(-2.14231 2.37881 0)
(-2.19213 2.43381 0)
(-2.23477 2.48083 7.56385e-18)
(-2.27204 2.52191 -1.43042e-17)
(-2.30514 2.55839 1.35601e-17)
(-2.33491 2.59119 -6.44715e-18)
(-2.36196 2.62101 5.75561e-18)
(-2.38675 2.64833 -5.86888e-18)
(-2.40962 2.67356 3.5096e-19)
(-2.43084 2.69697 5.72107e-18)
(-2.45063 2.71882 -4.85499e-18)
(-2.46917 2.7393 4.98014e-18)
(-2.4866 2.75856 -3.04757e-19)
(-2.50303 2.77674 -4.6394e-18)
(-2.51857 2.79395 -2.80174e-19)
(-2.5333 2.81027 0)
(-2.54729 2.82579 -1.05097e-18)
(-2.56061 2.84057 0)
(-2.57331 2.85468 0)
(-2.58543 2.86816 -4.3253e-18)
(-2.59703 2.88106 3.74342e-18)
(-2.60813 2.89342 0)
(-2.61876 2.90527 0)
(-2.62897 2.91664 0)
(-2.63876 2.92757 -8.42532e-19)
(-2.64817 2.93807 4.11035e-19)
(-2.65721 2.94817 0)
(-2.6659 2.95789 0)
(-2.67427 2.96724 0)
(-2.68231 2.97625 -2.24313e-18)
(-2.69006 2.98493 3.29616e-18)
(-2.69752 2.99328 0)
(-2.7047 3.00133 0)
(-2.71161 3.00908 0)
(-2.71826 3.01654 3.01801e-18)
(-2.72466 3.02373 -5.06602e-21)
(-2.73082 3.03064 -6.43743e-18)
(-2.73675 3.0373 4.41422e-18)
(-2.74245 3.0437 -1.85607e-18)
(-2.74792 3.04986 0)
(-2.75318 3.05577 5.93301e-19)
(-2.75822 3.06144 2.32342e-18)
(-2.76306 3.06688 -2.28261e-18)
(-2.76769 3.0721 -5.58755e-19)
(-2.77212 3.07709 2.73605e-18)
(-2.77636 3.08186 -1.07796e-18)
(-2.7804 3.08642 -1.05555e-18)
(-2.78425 3.09076 -1.03353e-18)
(-2.78792 3.0949 -1.36253e-21)
(-2.79139 3.09882 -1.48936e-18)
(-2.79469 3.10254 0)
(-2.7978 3.10605 4.75245e-19)
(-2.80074 3.10937 -9.35711e-19)
(-2.80349 3.11248 -1.37223e-18)
(-2.80607 3.11539 4.50112e-19)
(-2.80847 3.11811 8.79414e-19)
(-2.81069 3.12063 1.39982e-21)
(-2.81274 3.12295 2.82641e-21)
(-2.81462 3.12508 8.28316e-19)
(-2.81632 3.12701 -8.09887e-19)
(-2.81785 3.12875 7.93073e-19)
(-2.8192 3.13029 0)
(-2.82039 3.13164 -7.58712e-19)
(-2.8214 3.1328 -7.4113e-19)
(-2.82223 3.13376 1.4344e-21)
(-2.8229 3.13453 -1.42319e-18)
(-2.82339 3.1351 1.39498e-18)
(-2.8237 3.13548 0)
(-2.82384 3.13566 -1.4537e-21)
(-2.82381 3.13565 -1.304e-18)
(-2.8236 3.13543 6.36477e-19)
(-2.82321 3.13502 6.21882e-19)
(-2.82265 3.13441 6.07447e-19)
(-2.8219 3.1336 0)
(-2.82098 3.13259 0)
(-2.81988 3.13138 1.13056e-18)
(-2.81859 3.12996 -2.20633e-18)
(-2.81712 3.12834 -1.07615e-18)
(-2.81547 3.12651 1.04947e-18)
(-2.81363 3.12447 1.53331e-18)
(-2.81161 3.12223 4.97164e-19)
(-2.8094 3.11977 9.71734e-19)
(-2.807 3.1171 4.71828e-19)
(-2.8044 3.11422 9.18844e-19)
(-2.80162 3.11112 -4.50126e-19)
(-2.79864 3.1078 4.35196e-19)
(-2.79546 3.10426 -2.91967e-21)
(-1.41995 1.58617 1.19248e-17)
(-1.75405 1.96212 -1.10426e-17)
(-1.90302 2.12518 -9.68249e-18)
(-2.00155 2.23601 1.81305e-17)
(-2.07638 2.31888 -8.48257e-18)
(-2.1361 2.38519 8.99892e-18)
(-2.18575 2.44032 -1.59086e-17)
(-2.22824 2.48745 4.69614e-21)
(-2.26537 2.52862 7.07839e-18)
(-2.29834 2.56517 0)
(-2.32799 2.59803 0)
(-2.35493 2.62789 -3.79227e-19)
(-2.37962 2.65525 -3.62098e-19)
(-2.40239 2.6805 3.46508e-19)
(-2.42353 2.70394 4.29855e-23)
(-2.44324 2.7258 -3.19205e-19)
(-2.46171 2.74629 -6.1434e-19)
(-2.47907 2.76556 -2.44257e-23)
(-2.49544 2.78374 0)
(-2.51093 2.80095 2.76235e-19)
(-2.52561 2.81727 4.27512e-18)
(-2.53956 2.8328 -3.62855e-18)
(-2.55284 2.84758 0)
(-2.56551 2.86169 4.38789e-18)
(-2.5776 2.87517 -3.32034e-18)
(-2.58917 2.88808 -3.68559e-18)
(-2.60024 2.90044 3.59172e-18)
(-2.61086 2.91229 4.37003e-19)
(-2.62104 2.92367 0)
(-2.63081 2.93461 4.15374e-19)
(-2.6402 2.94512 0)
(-2.64923 2.95522 0)
(-2.65791 2.96495 -3.08966e-18)
(-2.66626 2.97431 2.64628e-18)
(-2.67429 2.98333 -7.38482e-19)
(-2.68203 2.99201 -2.88644e-18)
(-2.68947 3.00038 2.4754e-18)
(-2.69664 3.00843 -3.45724e-19)
(-2.70354 3.01619 -2.70504e-18)
(-2.71018 3.02367 2.65361e-18)
(-2.71658 3.03086 -2.59403e-18)
(-2.72273 3.03779 3.18204e-18)
(-2.72864 3.04446 -2.48972e-18)
(-2.73433 3.05087 5.08988e-21)
(-2.7398 3.05703 4.18914e-18)
(-2.74505 3.06295 -2.93573e-18)
(-2.75008 3.06864 0)
(-2.75491 3.07409 2.25285e-18)
(-2.75954 3.07931 -2.21414e-18)
(-2.76396 3.08432 0)
(-2.76819 3.0891 -5.31632e-19)
(-2.77223 3.09366 1.04271e-18)
(-2.77608 3.09801 -2.04239e-18)
(-2.77974 3.10216 4.51241e-18)
(-2.78321 3.10609 -1.47771e-18)
(-2.7865 3.10982 -4.82131e-19)
(-2.78961 3.11334 2.3611e-18)
(-2.79254 3.11666 9.2161e-19)
(-2.79529 3.11978 4.48971e-19)
(-2.79786 3.1227 -5.54451e-21)
(-2.80026 3.12542 -5.24113e-18)
(-2.80248 3.12795 -8.50611e-19)
(-2.80453 3.13028 5.61776e-21)
(-2.8064 3.13241 1.64734e-18)
(-2.8081 3.13435 -2.41407e-18)
(-2.80963 3.13609 -1.57279e-18)
(-2.81098 3.13764 4.28399e-21)
(-2.81216 3.13899 7.58492e-19)
(-2.81317 3.14015 -7.39841e-19)
(-2.81401 3.14112 1.45281e-18)
(-2.81467 3.14189 0)
(-2.81516 3.14246 -1.38871e-18)
(-2.81548 3.14284 6.81496e-19)
(-2.81562 3.14302 1.46392e-21)
(-2.81559 3.14301 1.30251e-18)
(-2.81538 3.1428 -6.36029e-19)
(-2.815 3.14239 0)
(-2.81443 3.14177 -1.21509e-18)
(-2.8137 3.14096 0)
(-2.81278 3.13995 -1.15951e-18)
(-2.81168 3.13874 0)
(-2.8104 3.13732 5.54136e-19)
(-2.80893 3.13569 5.40828e-19)
(-2.80729 3.13386 -1.57725e-18)
(-2.80546 3.13182 -5.11828e-19)
(-2.80344 3.12957 -1.50008e-18)
(-2.80123 3.12711 -4.86439e-19)
(-2.79884 3.12443 9.50994e-19)
(-2.79625 3.12154 -4.61779e-19)
(-2.79348 3.11844 9.05293e-19)
(-2.79051 3.11511 -4.37831e-19)
(-2.78734 3.11157 -1.28426e-18)
(-1.41569 1.59098 0)
(-1.74941 1.9671 0)
(-1.89755 2.13105 9.63825e-18)
(-1.99582 2.24205 -4.86381e-21)
(-2.07039 2.32512 -9.54278e-18)
(-2.12984 2.39163 7.87268e-18)
(-2.1793 2.44689 -7.38932e-18)
(-2.22161 2.49413 0)
(-2.25859 2.53539 -4.37477e-19)
(-2.29142 2.57201 -7.03865e-18)
(-2.32094 2.60494 6.29503e-18)
(-2.34777 2.63485 7.48929e-19)
(-2.37235 2.66225 3.57386e-19)
(-2.39503 2.68753 -6.15217e-18)
(-2.41608 2.711 4.91887e-18)
(-2.43572 2.73289 3.14795e-19)
(-2.45411 2.7534 3.02884e-19)
(-2.4714 2.77268 5.25203e-18)
(-2.48772 2.79088 -4.54803e-21)
(-2.50315 2.8081 -8.71306e-18)
(-2.51778 2.82444 4.21803e-18)
(-2.53168 2.83997 0)
(-2.54492 2.85477 -3.95891e-18)
(-2.55754 2.86888 4.57964e-21)
(-2.5696 2.88237 3.73915e-18)
(-2.58113 2.89529 4.54291e-19)
(-2.59217 2.90766 3.535e-18)
(-2.60276 2.91952 -7.75222e-18)
(-2.61291 2.93091 6.71644e-18)
(-2.62266 2.94185 -4.65921e-21)
(-2.63203 2.95236 -3.59809e-18)
(-2.64103 2.96248 0)
(-2.64969 2.97222 0)
(-2.65802 2.98159 3.72439e-19)
(-2.66604 2.99061 3.64148e-19)
(-2.67376 2.99931 -7.12351e-19)
(-2.68119 3.00768 9.85741e-24)
(-2.68834 3.01574 3.4112e-19)
(-2.69523 3.02351 0)
(-2.70186 3.031 -2.94129e-18)
(-2.70824 3.0382 1.92493e-18)
(-2.71438 3.04514 -2.50906e-18)
(-2.72029 3.05181 3.07917e-18)
(-2.72597 3.05824 2.41007e-18)
(-2.73142 3.06441 -2.36768e-18)
(-2.73666 3.07034 0)
(-2.74169 3.07603 0)
(-2.74651 3.0815 0)
(-2.75113 3.08673 0)
(-2.75555 3.09174 -5.36336e-19)
(-2.75977 3.09653 -1.57565e-18)
(-2.7638 3.10111 1.55081e-18)
(-2.76764 3.10547 0)
(-2.7713 3.10962 -4.9658e-19)
(-2.77477 3.11356 -1.9458e-18)
(-2.77805 3.11729 2.39182e-18)
(-2.78115 3.12082 4.68684e-19)
(-2.78408 3.12415 -1.22543e-23)
(-2.78682 3.12728 4.50858e-19)
(-2.78939 3.13021 0)
(-2.79179 3.13293 8.6718e-19)
(-2.79401 3.13547 0)
(-2.79605 3.1378 0)
(-2.79792 3.13994 -2.44868e-18)
(-2.79962 3.14188 4.00474e-18)
(-2.80114 3.14363 -7.87753e-19)
(-2.8025 3.14518 7.69146e-19)
(-2.80368 3.14654 0)
(-2.80469 3.1477 7.38106e-19)
(-2.80552 3.14867 7.20001e-19)
(-2.80619 3.14944 -2.83132e-18)
(-2.80668 3.15002 1.3888e-18)
(-2.80699 3.1504 0)
(-2.80714 3.15058 0)
(-2.80711 3.15057 6.49355e-19)
(-2.8069 3.15036 0)
(-2.80652 3.14995 6.21121e-19)
(-2.80596 3.14933 -6.04314e-19)
(-2.80522 3.14852 1.19001e-18)
(-2.80431 3.14751 -5.78501e-19)
(-2.80322 3.14629 1.70127e-18)
(-2.80194 3.14487 0)
(-2.80048 3.14324 -5.3883e-19)
(-2.79884 3.1414 5.28873e-19)
(-2.79702 3.13936 0)
(-2.79501 3.1371 -5.03549e-19)
(-2.79281 3.13464 1.46752e-18)
(-2.79042 3.13196 0)
(-2.78785 3.12906 0)
(-2.78508 3.12595 -1.35881e-18)
(-2.78212 3.12262 2.20991e-18)
(-2.77896 3.11907 8.60249e-19)
(-1.41129 1.59567 0)
(-1.74452 1.97214 -6.86325e-19)
(-1.89189 2.13688 6.39499e-19)
(-1.98995 2.24805 5.96789e-19)
(-2.06424 2.33139 8.35097e-18)
(-2.12346 2.39807 -8.32876e-18)
(-2.17273 2.45346 1.14753e-22)
(-2.21487 2.50082 -7.33363e-18)
(-2.25169 2.54218 7.35497e-18)
(-2.28438 2.57889 -6.54604e-18)
(-2.31378 2.61189 1.24299e-17)
(-2.34049 2.64187 -3.74347e-19)
(-2.36496 2.66932 -4.66842e-21)
(-2.38754 2.69465 -5.39918e-18)
(-2.4085 2.71816 0)
(-2.42805 2.74008 0)
(-2.44637 2.76062 4.7752e-18)
(-2.46359 2.77994 -9.49433e-18)
(-2.47983 2.79816 4.4445e-18)
(-2.4952 2.81541 -4.29051e-18)
(-2.50977 2.83176 4.15595e-18)
(-2.52362 2.84731 0)
(-2.53681 2.86212 -3.90015e-18)
(-2.54939 2.87625 2.8436e-18)
(-2.5614 2.88976 3.67902e-18)
(-2.5729 2.90268 -4.03006e-18)
(-2.5839 2.91506 0)
(-2.59445 2.92694 4.24303e-19)
(-2.60458 2.93833 0)
(-2.6143 2.94929 0)
(-2.62364 2.95981 3.93694e-19)
(-2.63262 2.96994 -3.07313e-18)
(-2.64125 2.97968 3.00698e-18)
(-2.64956 2.98907 -2.5674e-18)
(-2.65756 2.9981 2.87419e-18)
(-2.66526 3.0068 7.02347e-19)
(-2.67267 3.01519 -2.40324e-18)
(-2.67981 3.02326 5.04638e-18)
(-2.68668 3.03104 -2.63796e-18)
(-2.6933 3.03853 3.22704e-19)
(-2.69966 3.04575 1.2647e-18)
(-2.70579 3.0527 -2.47637e-18)
(-2.71168 3.05938 1.82478e-18)
(-2.71735 3.06581 0)
(-2.72279 3.072 1.16793e-18)
(-2.72802 3.07794 0)
(-2.73304 3.08364 1.68263e-18)
(-2.73785 3.08911 -5.56094e-19)
(-2.74246 3.09435 -2.16479e-18)
(-2.74687 3.09937 5.30353e-19)
(-2.75109 3.10417 0)
(-2.75511 3.10876 0)
(-2.75895 3.11313 0)
(-2.76259 3.11728 4.91594e-19)
(-2.76605 3.12123 -1.92679e-18)
(-2.76933 3.12497 3.78641e-18)
(-2.77243 3.12851 -4.17959e-18)
(-2.77535 3.13185 -4.50253e-19)
(-2.77809 3.13498 8.96762e-19)
(-2.78066 3.13791 -1.75145e-18)
(-2.78305 3.14065 5.48357e-21)
(-2.78526 3.14319 1.69055e-18)
(-2.7873 3.14553 8.27649e-19)
(-2.78917 3.14767 8.11643e-19)
(-2.79087 3.14962 0)
(-2.79239 3.15137 2.3378e-18)
(-2.79374 3.15293 -5.64214e-21)
(-2.79492 3.15429 -1.50195e-18)
(-2.79593 3.15545 -7.34523e-19)
(-2.79676 3.15642 0)
(-2.79743 3.1572 0)
(-2.79792 3.15778 -6.9041e-19)
(-2.79824 3.15816 0)
(-2.79838 3.15834 -6.61836e-19)
(-2.79835 3.15833 -1.94048e-18)
(-2.79815 3.15812 6.39717e-19)
(-2.79777 3.15771 -6.14327e-19)
(-2.79721 3.15709 1.21607e-18)
(-2.79648 3.15628 -5.93133e-19)
(-2.79557 3.15526 1.15972e-18)
(-2.79448 3.15404 -1.13345e-18)
(-2.79321 3.15262 0)
(-2.79176 3.15099 0)
(-2.79012 3.14915 1.05644e-18)
(-2.78831 3.1471 0)
(-2.7863 3.14484 1.00666e-18)
(-2.78411 3.14237 -1.96442e-18)
(-2.78173 3.13968 0)
(-2.77917 3.13678 9.34269e-19)
(-2.77641 3.13366 0)
(-2.77345 3.13032 -8.87621e-19)
(-2.77031 3.12676 0)
(-1.4067 1.60026 1.18946e-17)
(-1.73932 1.97722 1.23118e-17)
(-1.88593 2.14269 -2.03624e-17)
(-1.98379 2.25405 4.78713e-21)
(-2.0578 2.33765 9.94636e-18)
(-2.11681 2.40451 -8.76342e-18)
(-2.1659 2.46005 -4.77787e-19)
(-2.20788 2.50754 7.25851e-18)
(-2.24456 2.54901 7.26494e-18)
(-2.27712 2.58582 -1.25328e-17)
(-2.3064 2.6189 3.88275e-19)
(-2.333 2.64895 5.47462e-18)
(-2.35737 2.67647 0)
(-2.37986 2.70186 3.32616e-19)
(-2.40073 2.72542 3.18717e-19)
(-2.4202 2.74739 0)
(-2.43843 2.76797 4.70578e-18)
(-2.45558 2.78732 -4.52231e-21)
(-2.47176 2.80558 -4.10504e-18)
(-2.48706 2.82285 2.64298e-19)
(-2.50157 2.83923 0)
(-2.51537 2.85481 -3.46545e-18)
(-2.5285 2.86964 3.3651e-18)
(-2.54103 2.88379 -2.22158e-23)
(-2.553 2.89731 -3.6231e-18)
(-2.56445 2.91025 3.96887e-18)
(-2.57542 2.92265 0)
(-2.58593 2.93454 0)
(-2.59602 2.94595 -2.84914e-18)
(-2.60571 2.95692 4.55165e-21)
(-2.61502 2.96746 3.10472e-18)
(-2.62397 2.9776 0)
(-2.63258 2.98735 -2.95796e-18)
(-2.64086 2.99675 2.53437e-18)
(-2.64883 3.00579 -2.47397e-18)
(-2.65651 3.01451 2.4251e-18)
(-2.6639 3.0229 -3.38754e-19)
(-2.67102 3.03099 -2.31933e-18)
(-2.67788 3.03878 2.60111e-18)
(-2.68447 3.04628 0)
(-2.69082 3.0535 2.4925e-18)
(-2.69694 3.06046 -2.44792e-18)
(-2.70281 3.06716 0)
(-2.70847 3.0736 0)
(-2.7139 3.07979 -2.87987e-18)
(-2.71912 3.08574 1.6989e-18)
(-2.72412 3.09145 2.77131e-18)
(-2.72893 3.09693 -3.8102e-18)
(-2.73352 3.10219 2.13902e-18)
(-2.73793 3.10722 0)
(-2.74213 3.11202 0)
(-2.74615 3.11661 2.52186e-18)
(-2.74997 3.12099 -1.98478e-18)
(-2.75361 3.12516 -4.86385e-19)
(-2.75706 3.12911 0)
(-2.76034 3.13286 -2.34024e-18)
(-2.76343 3.13641 5.31385e-21)
(-2.76634 3.13975 1.3568e-18)
(-2.76908 3.14289 2.65522e-18)
(-2.77164 3.14583 -2.1763e-18)
(-2.77402 3.14857 8.53154e-19)
(-2.77624 3.15112 0)
(-2.77827 3.15346 -1.70272e-23)
(-2.78014 3.15561 0)
(-2.78183 3.15756 7.90257e-19)
(-2.78335 3.15932 7.72245e-19)
(-2.7847 3.16088 -1.52284e-18)
(-2.78588 3.16224 7.45163e-19)
(-2.78689 3.16341 7.30488e-19)
(-2.78772 3.16438 7.15982e-19)
(-2.78839 3.16516 -1.40043e-18)
(-2.78888 3.16574 2.06524e-18)
(-2.7892 3.16612 0)
(-2.78934 3.16631 6.59558e-19)
(-2.78932 3.1663 -6.45818e-19)
(-2.78912 3.16608 -1.26448e-18)
(-2.78874 3.16567 -6.18798e-19)
(-2.78819 3.16506 0)
(-2.78746 3.16424 5.9236e-19)
(-2.78655 3.16323 0)
(-2.78547 3.162 1.13294e-18)
(-2.7842 3.16058 0)
(-2.78275 3.15894 0)
(-2.78113 3.1571 -1.05448e-18)
(-2.77931 3.15504 2.96377e-21)
(-2.77732 3.15278 1.00849e-18)
(-2.77514 3.1503 1.39609e-23)
(-2.77277 3.14761 -9.60726e-19)
(-2.77021 3.1447 -9.37297e-19)
(-2.76746 3.14157 -1.82531e-18)
(-2.76452 3.13823 8.94273e-19)
(-2.76138 3.13466 0)
(-1.40197 1.60485 -1.18784e-17)
(-1.73384 1.98241 1.02302e-17)
(-1.87973 2.14854 0)
(-1.97737 2.26013 9.41777e-18)
(-2.05109 2.34399 -9.86397e-18)
(-2.10989 2.41103 -7.20489e-23)
(-2.15881 2.46672 7.16349e-18)
(-2.20063 2.51434 -4.8477e-21)
(-2.23717 2.55593 -7.60555e-18)
(-2.26961 2.59283 0)
(-2.29878 2.626 -3.7849e-19)
(-2.32527 2.65613 -5.75631e-18)
(-2.34955 2.68373 5.49247e-18)
(-2.37194 2.70918 0)
(-2.39273 2.73279 -3.14087e-19)
(-2.41211 2.75482 -3.01484e-19)
(-2.43027 2.77544 0)
(-2.44735 2.79484 -4.18607e-18)
(-2.46346 2.81313 8.35063e-18)
(-2.4787 2.83044 -8.58832e-18)
(-2.49315 2.84686 8.05678e-18)
(-2.50689 2.86246 -4.92175e-19)
(-2.51997 2.87732 -3.31307e-18)
(-2.53245 2.8915 4.59128e-19)
(-2.54437 2.90504 0)
(-2.55578 2.91801 -4.3389e-19)
(-2.5667 2.93042 0)
(-2.57718 2.94233 3.70054e-18)
(-2.58723 2.95376 -3.61181e-18)
(-2.59688 2.96474 3.12759e-18)
(-2.60616 2.9753 -6.10997e-18)
(-2.61507 2.98545 3.35886e-18)
(-2.62365 2.99522 0)
(-2.63191 3.00463 2.84803e-18)
(-2.63986 3.01369 -6.27271e-18)
(-2.64751 3.02242 2.73024e-18)
(-2.65488 3.03082 1.20246e-24)
(-2.66198 3.03892 0)
(-2.66881 3.04672 -2.87925e-18)
(-2.67539 3.05423 4.72039e-21)
(-2.68172 3.06147 1.84731e-18)
(-2.68781 3.06844 0)
(-2.69368 3.07514 -2.36242e-18)
(-2.69931 3.0816 2.90168e-18)
(-2.70473 3.0878 0)
(-2.70994 3.09376 9.97168e-24)
(-2.71493 3.09948 -2.1881e-18)
(-2.71972 3.10497 3.7622e-18)
(-2.72431 3.11023 -2.64009e-18)
(-2.7287 3.11527 0)
(-2.73289 3.12009 5.08315e-19)
(-2.7369 3.12469 -4.99036e-19)
(-2.74071 3.12907 0)
(-2.74434 3.13324 -1.92144e-18)
(-2.74779 3.13721 1.89162e-18)
(-2.75106 3.14097 4.63669e-19)
(-2.75414 3.14452 0)
(-2.75705 3.14787 8.93831e-19)
(-2.75978 3.15101 -4.38749e-19)
(-2.76233 3.15396 8.62466e-24)
(-2.76472 3.15671 8.42839e-19)
(-2.76692 3.15926 -1.66255e-18)
(-2.76896 3.16161 -8.1452e-19)
(-2.77082 3.16376 -7.993e-19)
(-2.77251 3.16572 -7.84306e-19)
(-2.77403 3.16748 0)
(-2.77537 3.16904 7.54828e-19)
(-2.77655 3.17041 -7.40372e-19)
(-2.77756 3.17158 -1.45213e-18)
(-2.77839 3.17256 -7.11927e-19)
(-2.77906 3.17333 -1.39303e-18)
(-2.77955 3.17392 2.05513e-18)
(-2.77987 3.1743 -1.33795e-18)
(-2.78002 3.17449 6.59736e-19)
(-2.77999 3.17447 1.92749e-18)
(-2.77979 3.17426 -6.33074e-19)
(-2.77942 3.17385 6.17063e-19)
(-2.77887 3.17323 -1.2052e-18)
(-2.77814 3.17242 1.18531e-18)
(-2.77724 3.1714 0)
(-2.77616 3.17017 -2.26346e-18)
(-2.7749 3.16874 -1.10679e-18)
(-2.77346 3.1671 1.08211e-18)
(-2.77184 3.16525 -2.11543e-18)
(-2.77003 3.1632 1.03358e-18)
(-2.76805 3.16093 -2.01643e-18)
(-2.76587 3.15844 1.97516e-18)
(-2.76351 3.15574 1.29036e-23)
(-2.76096 3.15283 9.36727e-19)
(-2.75822 3.1497 -2.96945e-21)
(-2.75529 3.14634 -8.94434e-19)
(-2.75216 3.14276 8.69248e-19)
(-1.3971 1.60947 -1.11678e-17)
(-1.72812 1.98772 -1.08706e-17)
(-1.87332 2.15448 4.51371e-21)
(-1.97071 2.26631 1.87055e-17)
(-2.04414 2.35044 -8.15036e-18)
(-2.10274 2.41766 8.59666e-18)
(-2.15147 2.47351 -7.09201e-18)
(-2.19314 2.52126 0)
(-2.22954 2.56296 4.1722e-19)
(-2.26186 2.59997 5.90939e-18)
(-2.29091 2.63323 -5.60445e-18)
(-2.3173 2.66344 7.09929e-19)
(-2.34148 2.69111 3.38306e-19)
(-2.36378 2.71663 -4.84565e-18)
(-2.38448 2.7403 5.26342e-18)
(-2.40379 2.76238 5.04608e-18)
(-2.42188 2.78306 -4.57008e-18)
(-2.43888 2.8025 4.39689e-18)
(-2.45492 2.82084 -4.24557e-18)
(-2.4701 2.83819 -2.56208e-19)
(-2.48449 2.85464 -3.96309e-18)
(-2.49817 2.87028 3.84277e-18)
(-2.5112 2.88517 4.65525e-19)
(-2.52363 2.89937 -4.51888e-19)
(-2.5355 2.91295 0)
(-2.54686 2.92594 -3.41401e-18)
(-2.55774 2.93838 3.32751e-18)
(-2.56817 2.95031 -4.04916e-19)
(-2.57819 2.96176 0)
(-2.5878 2.97276 3.46358e-18)
(-2.59704 2.98333 -3.38536e-18)
(-2.60593 2.99351 -3.66929e-18)
(-2.61447 3.00329 2.87264e-18)
(-2.6227 3.01272 -2.80425e-18)
(-2.63062 3.02179 3.09074e-18)
(-2.63825 3.03053 0)
(-2.64559 3.03895 3.28779e-19)
(-2.65266 3.04706 3.21996e-19)
(-2.65947 3.05487 -1.89043e-18)
(-2.66603 3.0624 4.94642e-18)
(-2.67234 3.06965 -6.10798e-19)
(-2.67842 3.07663 -4.16022e-18)
(-2.68426 3.08334 2.33393e-18)
(-2.68988 3.08981 1.14122e-18)
(-2.69528 3.09602 -2.24656e-18)
(-2.70047 3.10199 5.50577e-19)
(-2.70545 3.10772 2.15909e-18)
(-2.71023 3.11322 -1.06334e-18)
(-2.7148 3.11849 2.60134e-18)
(-2.71918 3.12354 -1.53638e-18)
(-2.72336 3.12837 -8.47738e-24)
(-2.72736 3.13297 0)
(-2.73116 3.13737 -1.93403e-18)
(-2.73479 3.14155 2.37983e-18)
(-2.73822 3.14552 0)
(-2.74148 3.14929 0)
(-2.74456 3.15284 1.79879e-18)
(-2.74746 3.1562 -8.89773e-19)
(-2.75018 3.15935 -2.17421e-18)
(-2.75273 3.16231 -1.2768e-18)
(-2.75511 3.16506 1.67776e-18)
(-2.75731 3.16761 -8.22335e-19)
(-2.75934 3.16997 8.04645e-19)
(-2.7612 3.17213 -7.9525e-19)
(-2.76289 3.17409 -1.55314e-18)
(-2.7644 3.17585 1.52976e-18)
(-2.76575 3.17742 -1.49851e-18)
(-2.76692 3.17879 0)
(-2.76793 3.17996 2.88213e-18)
(-2.76876 3.18094 -1.41771e-18)
(-2.76942 3.18172 -1.38483e-18)
(-2.76992 3.18231 6.83162e-19)
(-2.77024 3.18269 0)
(-2.77039 3.18288 6.53786e-19)
(-2.77036 3.18287 0)
(-2.77016 3.18265 6.27749e-19)
(-2.76979 3.18224 6.12038e-19)
(-2.76925 3.18162 -1.20737e-18)
(-2.76853 3.18081 0)
(-2.76763 3.17978 5.77215e-19)
(-2.76655 3.17856 2.25958e-18)
(-2.7653 3.17712 1.1054e-18)
(-2.76387 3.17548 -1.08124e-18)
(-2.76225 3.17363 1.37498e-23)
(-2.76045 3.17156 0)
(-2.75847 3.16929 -1.01024e-18)
(-2.75631 3.1668 -2.97211e-21)
(-2.75395 3.16409 -2.96885e-21)
(-2.75141 3.16117 0)
(-2.74868 3.15803 -9.19126e-19)
(-2.74576 3.15467 1.79102e-18)
(-2.74265 3.15108 -2.99357e-21)
(-1.39209 1.61414 -1.11531e-17)
(-1.72216 1.99317 -1.08321e-17)
(-1.86669 2.16052 2.00262e-17)
(-1.96381 2.27262 -9.28613e-18)
(-2.03695 2.35701 0)
(-2.09534 2.42441 0)
(-2.14388 2.48042 0)
(-2.1854 2.52831 7.00638e-18)
(-2.22166 2.57012 -6.59497e-18)
(-2.25385 2.60723 3.88943e-19)
(-2.28279 2.64059 5.89207e-18)
(-2.30907 2.67088 -3.54545e-19)
(-2.33315 2.69863 -1.10025e-17)
(-2.35537 2.72422 4.77875e-18)
(-2.37598 2.74796 -6.09664e-19)
(-2.39521 2.7701 4.96912e-18)
(-2.41322 2.79083 2.7668e-19)
(-2.43016 2.81032 -4.6032e-18)
(-2.44613 2.82871 0)
(-2.46124 2.8461 4.53618e-18)
(-2.47558 2.86259 -3.90413e-18)
(-2.4892 2.87826 4.72385e-19)
(-2.50217 2.89319 -4.58008e-19)
(-2.51455 2.90743 4.44577e-19)
(-2.52637 2.92103 0)
(-2.53768 2.93405 3.35887e-18)
(-2.54852 2.94652 -3.27381e-18)
(-2.55891 2.95847 3.98405e-19)
(-2.56888 2.96995 3.88408e-19)
(-2.57845 2.98097 -7.57835e-19)
(-2.58766 2.99157 3.32691e-18)
(-2.59651 3.00176 -5.41975e-18)
(-2.60502 3.01156 2.82722e-18)
(-2.61322 3.021 2.41486e-18)
(-2.62111 3.03009 -5.40488e-18)
(-2.6287 3.03885 2.64721e-18)
(-2.63602 3.04729 3.23723e-19)
(-2.64307 3.05541 -3.17084e-19)
(-2.64985 3.06324 2.48325e-18)
(-2.65639 3.07078 -2.13397e-18)
(-2.66268 3.07804 -1.19196e-18)
(-2.66873 3.08503 1.75917e-18)
(-2.67456 3.09176 -5.7446e-19)
(-2.68016 3.09824 2.2522e-18)
(-2.68554 3.10446 -2.2149e-18)
(-2.69071 3.11044 2.71222e-18)
(-2.69568 3.11618 -4.80366e-21)
(-2.70044 3.12169 -5.28144e-19)
(-2.705 3.12697 -2.05788e-18)
(-2.70936 3.13203 -5.04648e-19)
(-2.71354 3.13686 1.48443e-18)
(-2.71752 3.14148 -1.94978e-18)
(-2.72131 3.14588 -4.78193e-19)
(-2.72492 3.15007 0)
(-2.72835 3.15405 -4.61444e-19)
(-2.7316 3.15782 -1.81066e-18)
(-2.73467 3.16139 2.22911e-18)
(-2.73756 3.16475 2.62208e-18)
(-2.74028 3.16791 -8.62021e-19)
(-2.74282 3.17087 0)
(-2.74519 3.17363 8.29177e-19)
(-2.74739 3.17619 2.44052e-18)
(-2.74942 3.17855 -1.60227e-18)
(-2.75127 3.18071 7.85403e-19)
(-2.75295 3.18268 -1.53968e-18)
(-2.75447 3.18445 5.44956e-21)
(-2.75581 3.18602 2.97588e-18)
(-2.75698 3.18739 0)
(-2.75799 3.18857 -1.0699e-23)
(-2.75882 3.18955 1.40241e-18)
(-2.75948 3.19033 -1.38146e-18)
(-2.75997 3.19092 0)
(-2.76029 3.1913 1.98674e-18)
(-2.76044 3.19149 -5.68775e-21)
(-2.76042 3.19148 -1.27799e-18)
(-2.76023 3.19126 6.2206e-19)
(-2.75986 3.19085 -6.15304e-19)
(-2.75932 3.19023 0)
(-2.7586 3.18941 0)
(-2.75771 3.18839 -7.37841e-24)
(-2.75664 3.18716 -1.42706e-23)
(-2.75539 3.18572 1.10327e-18)
(-2.75396 3.18407 -1.07964e-18)
(-2.75235 3.18222 2.96412e-21)
(-2.75056 3.18015 5.92243e-21)
(-2.74859 3.17787 3.03337e-18)