/*--------------------------------*- C++ -*----------------------------------*\
  =========                 |
  \\      /  F ield         | OpenFOAM: The Open Source CFD Toolbox
   \\    /   O peration     | Website:  https://openfoam.org
    \\  /    A nd           | Version:  10
     \\/     M anipulation  |
\*---------------------------------------------------------------------------*/
FoamFile
{
    format      ascii;
    class       volVectorField;
    location    "15000";
    object      U;
}
// * * * * * * * * * * * * * * * * * * * * * * * * * * * * * * * * * * * * * //

dimensions      [0 1 -1 0 0 0 0];

internalField   nonuniform List<vector> 
17981
(
(-0.0364507 3.57423 1.4584e-21)
(-0.0370074 3.58846 -1.4048e-21)
(-0.0375349 3.60225 0)
(-0.0380246 3.61562 -8.68204e-21)
(-0.0384769 3.6286 1.89156e-20)
(-0.0388936 3.64118 -1.0155e-20)
(-0.0392767 3.6534 0)
(-0.039628 3.66525 8.79308e-22)
(-0.0399492 3.67676 0)
(-0.0402421 3.68794 0)
(-0.0405083 3.6988 -1.06832e-21)
(-0.0407497 3.70934 1.96361e-20)
(-0.040968 3.71958 -1.77701e-20)
(-0.0411646 3.72953 0)
(-0.0413412 3.7392 0)
(-0.0414994 3.74859 0)
(-0.0416404 3.75771 0)
(-0.0417657 3.76657 -2.04392e-20)
(-0.0418765 3.77517 1.9625e-20)
(-0.041974 3.78353 4.09889e-20)
(-0.0420593 3.79164 -3.87451e-20)
(-0.0421335 3.79952 -6.24788e-22)
(-0.0421975 3.80717 0)
(-0.0422522 3.81459 0)
(-0.0422985 3.8218 3.97363e-20)
(-0.0423372 3.82879 -3.76061e-20)
(-0.0423689 3.83557 3.88198e-20)
(-0.0423944 3.84214 -3.73475e-20)
(-0.0424141 3.84852 -5.82734e-22)
(-0.0424287 3.8547 0)
(-0.0424387 3.86069 2.82577e-22)
(-0.0424445 3.86649 -2.77921e-22)
(-0.0424466 3.87211 -2.73131e-22)
(-0.0424453 3.87755 3.43958e-20)
(-0.0424411 3.88282 -3.31382e-20)
(-0.0424341 3.88792 -2.58198e-22)
(-0.0424248 3.89285 0)
(-0.0424133 3.89762 0)
(-0.0424 3.90222 2.42838e-22)
(-0.0423849 3.90668 -3.08892e-20)
(-0.0423685 3.91098 -1.7872e-22)
(-0.0423507 3.91513 2.87008e-20)
(-0.0423314 3.91913 1.11187e-22)
(-0.0423109 3.923 0)
(-0.0422909 3.9267 0)
(-0.0422707 3.93015 0)
(-0.0422504 3.93325 0)
(-0.042231 3.93597 -3.93499e-20)
(-0.117635 3.5744 -6.44325e-21)
(-0.118615 3.58852 0)
(-0.119542 3.6022 -2.64189e-20)
(-0.120418 3.61546 6.3663e-20)
(-0.121245 3.62831 -3.54765e-20)
(-0.122023 3.64078 5.22155e-20)
(-0.122756 3.65287 -5.00872e-20)
(-0.123445 3.6646 9.34524e-22)
(-0.124092 3.67599 2.02738e-21)
(-0.1247 3.68705 -7.25966e-20)
(-0.12527 3.69778 1.4445e-19)
(-0.125805 3.70821 -7.4035e-20)
(-0.126307 3.71834 0)
(-0.126777 3.72818 2.5106e-21)
(-0.127218 3.73773 -8.44165e-20)
(-0.127631 3.74702 8.09648e-20)
(-0.128019 3.75603 8.62328e-20)
(-0.128382 3.76479 -8.27334e-20)
(-0.128722 3.7733 1.32803e-21)
(-0.129041 3.78157 0)
(-0.12934 3.7896 -6.63869e-22)
(-0.129621 3.79739 8.67866e-20)
(-0.129884 3.80496 -8.14031e-20)
(-0.130132 3.81231 8.60963e-20)
(-0.130364 3.81944 -1.6541e-19)
(-0.130582 3.82636 8.00313e-20)
(-0.130787 3.83308 -8.19142e-20)
(-0.130979 3.83959 7.87684e-20)
(-0.13116 3.84591 6.14509e-22)
(-0.131331 3.85203 0)
(-0.131491 3.85797 2.97444e-22)
(-0.131642 3.86372 2.92685e-22)
(-0.131784 3.8693 -7.40252e-20)
(-0.131917 3.87469 7.18448e-20)
(-0.132043 3.87992 -8.30462e-22)
(-0.132162 3.88497 7.03538e-20)
(-0.132274 3.88987 -6.75342e-20)
(-0.132379 3.8946 0)
(-0.132478 3.89917 6.55245e-20)
(-0.132572 3.90359 -1.27027e-19)
(-0.13266 3.90786 6.13273e-20)
(-0.132743 3.91199 -6.12677e-20)
(-0.13282 3.91597 -1.10972e-21)
(-0.132893 3.91981 5.78038e-20)
(-0.132963 3.92351 0)
(-0.133027 3.92699 0)
(-0.133083 3.93016 2.70819e-22)
(-0.13313 3.93295 -1.53314e-22)
(-0.196439 3.57313 0)
(-0.197822 3.58714 1.85325e-20)
(-0.199139 3.6007 -1.92893e-20)
(-0.200392 3.61384 3.93655e-20)
(-0.201583 3.62656 -4.04494e-20)
(-0.202714 3.6389 -3.17422e-21)
(-0.203787 3.65086 0)
(-0.204804 3.66246 -2.00142e-21)
(-0.205769 3.67371 -6.48876e-21)
(-0.206683 3.68464 0)
(-0.207549 3.69524 2.42593e-21)
(-0.208369 3.70554 5.04508e-21)
(-0.209146 3.71554 0)
(-0.209882 3.72525 -2.83061e-24)
(-0.210579 3.73469 2.72436e-21)
(-0.211239 3.74385 0)
(-0.211865 3.75275 1.83286e-19)
(-0.212458 3.7614 -1.72933e-19)
(-0.213021 3.7698 -1.85836e-19)
(-0.213554 3.77797 1.76905e-19)
(-0.21406 3.78589 -2.81397e-21)
(-0.21454 3.79359 0)
(-0.214996 3.80107 1.39091e-21)
(-0.215429 3.80833 -1.38112e-21)
(-0.21584 3.81538 1.36682e-21)
(-0.216231 3.82222 -1.74124e-19)
(-0.216603 3.82886 1.68605e-19)
(-0.216957 3.8353 -1.31637e-21)
(-0.217294 3.84155 0)
(-0.217614 3.8476 1.64044e-19)
(-0.217919 3.85348 4.10998e-21)
(-0.218209 3.85917 -1.57572e-19)
(-0.218486 3.86469 0)
(-0.21875 3.87003 0)
(-0.219001 3.87521 -1.51185e-19)
(-0.21924 3.88021 1.46181e-19)
(-0.219469 3.88506 -5.59635e-22)
(-0.219686 3.88975 0)
(-0.219894 3.89428 5.36232e-22)
(-0.220091 3.89867 -5.24805e-22)
(-0.22028 3.9029 -1.32252e-19)
(-0.220459 3.90699 1.27537e-19)
(-0.220631 3.91094 2.45082e-22)
(-0.220793 3.91475 -2.3918e-22)
(-0.220948 3.91842 -4.75482e-22)
(-0.221094 3.92191 0)
(-0.221226 3.92512 -2.71062e-22)
(-0.221342 3.92797 -1.5714e-19)
(-0.27954 3.62353 -2.83512e-21)
(-0.281012 3.63572 3.40147e-21)
(-0.282415 3.64754 1.33248e-19)
(-0.28375 3.659 -2.73324e-19)
(-0.285022 3.67011 1.44154e-19)
(-0.286232 3.68089 -4.91663e-21)
(-0.287383 3.69135 1.67743e-19)
(-0.288479 3.70151 -1.70997e-19)
(-0.289521 3.71137 0)
(-0.290513 3.72094 -2.85203e-21)
(-0.291457 3.73024 1.88511e-19)
(-0.292356 3.73928 -1.83374e-19)
(-0.293212 3.74805 -1.89179e-19)
(-0.294027 3.75658 -1.49228e-20)
(-0.294803 3.76486 1.87782e-19)
(-0.295542 3.77291 -1.95795e-19)
(-0.296247 3.78072 1.87742e-19)
(-0.296919 3.78831 0)
(-0.29756 3.79569 1.8929e-19)
(-0.298172 3.80285 -3.7485e-19)
(-0.298756 3.8098 1.78381e-19)
(-0.299313 3.81655 1.84451e-19)
(-0.299846 3.8231 -1.75682e-19)
(-0.300354 3.82946 -1.39213e-21)
(-0.30084 3.83563 -1.77739e-19)
(-0.301305 3.84161 -1.23568e-21)
(-0.301749 3.84741 -6.33478e-21)
(-0.302173 3.85304 1.67713e-19)
(-0.302579 3.85849 1.6535e-19)
(-0.302968 3.86377 -3.21202e-19)
(-0.303339 3.86889 1.57246e-19)
(-0.303695 3.87384 -1.55552e-19)
(-0.304035 3.87863 1.50372e-19)
(-0.304361 3.88327 -1.48966e-19)
(-0.304672 3.88776 -3.86754e-21)
(-0.30497 3.89209 1.40384e-19)
(-0.305254 3.89628 1.61967e-21)
(-0.305527 3.90033 -1.35438e-19)
(-0.305787 3.90424 1.30591e-19)
(-0.306036 3.90801 5.03459e-22)
(-0.306273 3.91165 4.95696e-22)
(-0.306499 3.91514 1.29574e-19)
(-0.306708 3.91838 -1.38128e-19)
(-0.306895 3.9213 0)
(-0.355183 3.61932 -7.97034e-20)
(-0.356986 3.63137 -7.23623e-21)
(-0.358708 3.64305 0)
(-0.360352 3.65435 1.55806e-19)
(-0.36192 3.66531 -1.492e-19)
(-0.363417 3.67594 1.05265e-20)
(-0.364844 3.68625 1.10667e-20)
(-0.366206 3.69625 0)
(-0.367505 3.70596 0)
(-0.368744 3.71539 -6.08339e-21)
(-0.369927 3.72454 0)
(-0.371055 3.73344 0)
(-0.372132 3.74207 -6.34589e-21)
(-0.37316 3.75046 3.18985e-21)
(-0.374142 3.75861 -2.08929e-19)
(-0.375079 3.76653 2.00172e-19)
(-0.375975 3.77422 -2.04326e-19)
(-0.376831 3.7817 1.98903e-19)
(-0.37765 3.78896 3.13912e-21)
(-0.378433 3.79601 0)
(-0.379182 3.80285 -1.99879e-19)
(-0.379899 3.8095 -8.5135e-21)
(-0.380585 3.81595 -8.11199e-21)
(-0.381242 3.82222 1.89633e-19)
(-0.381871 3.8283 -1.8832e-19)
(-0.382473 3.8342 -5.59978e-21)
(-0.38305 3.83992 1.82043e-19)
(-0.383603 3.84546 -1.79692e-19)
(-0.384133 3.85084 1.71435e-19)
(-0.384641 3.85605 0)
(-0.385128 3.8611 1.67803e-19)
(-0.385595 3.86599 -1.64011e-19)
(-0.386042 3.87072 0)
(-0.386471 3.8753 1.21803e-21)
(-0.386882 3.87973 1.19176e-21)
(-0.387276 3.88402 1.16438e-21)
(-0.387654 3.88816 1.45548e-19)
(-0.388016 3.89216 -2.86285e-19)
(-0.388362 3.89602 1.39717e-19)
(-0.388694 3.89975 0)
(-0.389011 3.90335 0)
(-0.389315 3.90682 1.33478e-19)
(-0.389601 3.91009 -1.38613e-19)
(-0.389859 3.91306 0)
(-0.428565 3.61408 -9.15681e-20)
(-0.430689 3.62599 -1.28321e-19)
(-0.43272 3.63751 2.83011e-19)
(-0.434662 3.64866 -1.46148e-19)
(-0.436518 3.65946 -1.7909e-19)
(-0.438291 3.66993 1.65734e-19)
(-0.439985 3.68008 -5.93141e-21)
(-0.441604 3.68992 0)
(-0.44315 3.69947 -2.10726e-19)
(-0.444627 3.70874 4.23265e-19)
(-0.446039 3.71774 1.26278e-20)
(-0.447388 3.72648 -2.09043e-19)
(-0.448677 3.73497 -6.76998e-21)
(-0.44991 3.74321 -2.22933e-19)
(-0.451089 3.75122 2.13418e-19)
(-0.452216 3.759 -2.22314e-19)
(-0.453296 3.76656 -8.25671e-21)
(-0.454328 3.7739 2.1188e-19)
(-0.455317 3.78103 -1.00292e-20)
(-0.456264 3.78796 0)
(-0.457171 3.79469 2.44282e-24)
(-0.45804 3.80123 3.23221e-21)
(-0.458873 3.80758 2.06598e-19)
(-0.459672 3.81374 5.0754e-21)
(-0.460438 3.81972 -3.95032e-19)
(-0.461172 3.82552 1.8888e-19)
(-0.461877 3.83116 -5.9571e-21)
(-0.462553 3.83662 0)
(-0.463201 3.84191 -3.70433e-19)
(-0.463824 3.84705 3.56071e-19)
(-0.464421 3.85202 0)
(-0.464994 3.85684 1.34631e-21)
(-0.465544 3.86151 3.39863e-19)
(-0.466072 3.86603 -3.28352e-19)
(-0.466579 3.8704 0)
(-0.467065 3.87463 -1.23032e-21)
(-0.467532 3.87871 1.20115e-21)
(-0.467979 3.88267 1.17357e-21)
(-0.468408 3.88648 -2.96228e-19)
(-0.46882 3.89017 2.84422e-19)
(-0.469214 3.89372 -1.09043e-21)
(-0.469592 3.89715 -2.79458e-19)
(-0.469949 3.90041 2.85232e-19)
(-0.470274 3.9034 0)
(-0.502185 3.61968 -8.28114e-21)
(-0.504516 3.63105 -9.4519e-21)
(-0.506746 3.64204 0)
(-0.50888 3.65268 -1.13337e-20)
(-0.510921 3.66298 -1.20706e-20)
(-0.512872 3.67296 0)
(-0.514738 3.68264 -2.19823e-19)
(-0.516523 3.69202 2.10173e-19)
(-0.518229 3.70113 0)
(-0.519861 3.70996 -4.67847e-19)
(-0.521422 3.71854 4.54565e-19)
(-0.522915 3.72686 7.25053e-21)
(-0.524344 3.73495 0)
(-0.525712 3.74281 0)
(-0.527022 3.75044 -7.26769e-21)
(-0.528276 3.75785 0)
(-0.529478 3.76506 4.68522e-19)
(-0.530629 3.77206 -9.12683e-19)
(-0.531732 3.77885 9.03237e-19)
(-0.53279 3.78546 -4.36085e-19)
(-0.533805 3.79187 0)
(-0.534778 3.7981 4.36258e-19)
(-0.535712 3.80415 -4.21636e-19)
(-0.536608 3.81003 0)
(-0.537468 3.81573 4.20417e-19)
(-0.538293 3.82126 -8.06571e-19)
(-0.539086 3.82663 3.89879e-19)
(-0.539847 3.83184 -3.93016e-19)
(-0.540578 3.83689 3.74631e-19)
(-0.54128 3.84178 -3.76501e-19)
(-0.541954 3.84652 3.61955e-19)
(-0.542601 3.85111 0)
(-0.543223 3.85556 3.49003e-19)
(-0.54382 3.85987 -3.38428e-19)
(-0.544393 3.86403 0)
(-0.544943 3.86806 -3.2872e-19)
(-0.545471 3.87195 3.16573e-19)
(-0.545978 3.87572 -1.20972e-21)
(-0.546464 3.87935 -3.04067e-19)
(-0.54693 3.88286 5.89567e-19)
(-0.547376 3.88624 -2.87511e-19)
(-0.547801 3.88948 2.98625e-19)
(-0.548194 3.89248 3.32533e-21)
(-0.576663 3.63461 -1.12288e-20)
(-0.579065 3.64508 4.57221e-23)
(-0.581364 3.65521 1.29987e-20)
(-0.583563 3.66502 0)
(-0.585667 3.67452 -4.86075e-19)
(-0.58768 3.68373 9.20961e-19)
(-0.589606 3.69266 3.13342e-20)
(-0.591449 3.70132 2.91417e-20)
(-0.593213 3.70973 -5.02453e-19)
(-0.594902 3.71789 -7.75472e-21)
(-0.596518 3.72581 0)
(-0.598066 3.73351 -5.0976e-19)
(-0.599549 3.74098 -1.25265e-20)
(-0.60097 3.74824 4.93514e-19)
(-0.602331 3.7553 0)
(-0.603637 3.76215 7.1544e-24)
(-0.604889 3.76881 7.52601e-21)
(-0.60609 3.77528 -7.43232e-21)
(-0.607242 3.78157 0)
(-0.608348 3.78767 4.64761e-19)
(-0.609409 3.7936 -4.48937e-19)
(-0.610428 3.79936 0)
(-0.611407 3.80495 3.42661e-21)
(-0.612347 3.81038 4.35127e-19)
(-0.61325 3.81564 -4.11019e-19)
(-0.614117 3.82075 0)
(-0.614951 3.82571 4.08532e-19)
(-0.615751 3.83051 -3.92456e-19)
(-0.61652 3.83517 3.0248e-21)
(-0.617259 3.83968 0)
(-0.617969 3.84405 2.89078e-21)
(-0.618651 3.84828 0)
(-0.619307 3.85238 -3.55302e-19)
(-0.619936 3.85634 6.88612e-19)
(-0.62054 3.86017 -6.71908e-19)
(-0.62112 3.86387 3.28188e-19)
(-0.621676 3.86745 0)
(-0.62221 3.8709 1.21755e-21)
(-0.622722 3.87424 -3.06762e-19)
(-0.623211 3.87744 6.11786e-19)
(-0.623668 3.88044 -3.25071e-19)
(-0.647138 3.63676 -4.30338e-19)
(-0.649685 3.64672 4.09863e-19)
(-0.652123 3.65636 0)
(-0.654456 3.66568 1.52566e-20)
(-0.656689 3.67471 3.67056e-23)
(-0.658826 3.68346 0)
(-0.660871 3.69194 0)
(-0.662828 3.70017 3.3048e-20)
(-0.664702 3.70815 8.32761e-21)
(-0.666497 3.7159 8.34291e-21)
(-0.668216 3.72343 0)
(-0.669864 3.73074 -5.43688e-19)
(-0.671442 3.73783 5.11479e-19)
(-0.672955 3.74473 5.35245e-19)
(-0.674407 3.75143 -5.03815e-19)
(-0.675799 3.75794 -8.04678e-21)
(-0.677135 3.76427 7.94188e-21)
(-0.678416 3.77041 0)
(-0.679647 3.77639 7.70493e-21)
(-0.680829 3.78219 4.90822e-19)
(-0.681964 3.78782 -4.70357e-19)
(-0.683054 3.79329 -4.79864e-19)
(-0.684101 3.79861 4.56743e-19)
(-0.685108 3.80376 -7.01422e-21)
(-0.686075 3.80877 0)
(-0.687004 3.81362 6.72124e-21)
(-0.687897 3.81833 4.2779e-19)
(-0.688756 3.82289 -4.10961e-19)
(-0.689581 3.82732 4.05167e-19)
(-0.690374 3.8316 -7.85006e-19)
(-0.691136 3.83576 3.80326e-19)
(-0.691868 3.83977 -3.76707e-19)
(-0.692571 3.84366 3.62388e-19)
(-0.693246 3.84743 -1.39074e-21)
(-0.693895 3.85106 -7.51634e-25)
(-0.694518 3.85458 1.32137e-21)
(-0.695116 3.85797 0)
(-0.695689 3.86125 -1.25503e-21)
(-0.696239 3.86441 0)
(-0.696757 3.86739 1.31329e-21)
(-0.718616 3.64706 0)
(-0.721169 3.6562 1.63653e-20)
(-0.723612 3.66505 1.69049e-20)
(-0.725951 3.67361 0)
(-0.728189 3.68191 -5.78545e-19)
(-0.730331 3.68996 5.34422e-19)
(-0.732382 3.69776 -1.78492e-20)
(-0.734346 3.70533 -8.96379e-21)
(-0.736228 3.71267 -5.85553e-19)
(-0.738031 3.71981 -2.34005e-20)
(-0.739758 3.72674 5.6556e-19)
(-0.741415 3.73347 0)
(-0.743003 3.74 -5.66534e-19)
(-0.744527 3.74636 -1.74901e-20)
(-0.74599 3.75253 1.09444e-18)
(-0.747393 3.75853 -5.27303e-19)
(-0.748741 3.76436 -5.33286e-19)
(-0.750035 3.77003 1.02624e-18)
(-0.751278 3.77553 -5.09546e-19)
(-0.752473 3.78087 -3.88648e-21)
(-0.753621 3.78606 -3.81475e-21)
(-0.754724 3.7911 -4.75539e-19)
(-0.755784 3.796 -9.24401e-21)
(-0.756803 3.80074 4.49774e-19)
(-0.757783 3.80535 -3.49656e-21)
(-0.758724 3.80982 0)
(-0.75963 3.81415 -3.33494e-21)
(-0.7605 3.81834 0)
(-0.761337 3.82241 0)
(-0.762141 3.82635 0)
(-0.762913 3.83016 3.02363e-21)
(-0.763656 3.83385 0)
(-0.764369 3.83741 -1.43773e-21)
(-0.765054 3.84086 -7.76128e-25)
(-0.765711 3.84419 -1.36447e-21)
(-0.766342 3.84741 3.44954e-19)
(-0.766947 3.85051 -3.34607e-19)
(-0.767518 3.85346 3.51993e-19)
(-0.793473 3.67133 6.2229e-19)
(-0.795791 3.67918 -5.74484e-19)
(-0.79801 3.68679 1.9211e-20)
(-0.800135 3.69417 0)
(-0.80217 3.70134 -6.28524e-19)
(-0.80412 3.70829 5.9994e-19)
(-0.805988 3.71504 -1.19151e-23)
(-0.807779 3.7216 9.41875e-21)
(-0.809496 3.72796 0)
(-0.811144 3.73415 -9.20079e-21)
(-0.812725 3.74017 -9.08007e-21)
(-0.814242 3.74601 -5.79976e-19)
(-0.815699 3.75169 5.54782e-19)
(-0.817098 3.75721 8.63375e-21)
(-0.818442 3.76258 6.73425e-24)
(-0.819734 3.76779 5.45759e-19)
(-0.820975 3.77285 -5.1486e-19)
(-0.822168 3.77777 -3.98228e-21)
(-0.823314 3.78254 -3.89306e-21)
(-0.824417 3.78717 0)
(-0.825477 3.79167 4.80543e-19)
(-0.826496 3.79603 -4.61163e-19)
(-0.827476 3.80026 4.57877e-19)
(-0.828418 3.80436 -4.43169e-19)
(-0.829324 3.80834 -4.35624e-19)
(-0.830194 3.81219 4.21907e-19)
(-0.831031 3.81592 -3.21261e-21)
(-0.831836 3.81953 -4.00224e-19)
(-0.832608 3.82302 3.84917e-19)
(-0.833351 3.82639 -3.81238e-19)
(-0.834064 3.82966 3.71234e-19)
(-0.834748 3.83281 3.61459e-19)
(-0.835404 3.83585 -3.54641e-19)
(-0.836027 3.83874 -1.42905e-21)
(-0.856788 3.66026 0)
(-0.859274 3.66793 -4.15464e-23)
(-0.861653 3.67534 6.7762e-19)
(-0.86393 3.68253 -6.66714e-19)
(-0.866111 3.6895 0)
(-0.868199 3.69627 -2.05379e-20)
(-0.870199 3.70283 1.01832e-20)
(-0.872117 3.70921 6.58563e-19)
(-0.873955 3.7154 2.16755e-20)
(-0.875718 3.72142 -6.11233e-19)
(-0.877409 3.72727 -6.21552e-19)
(-0.879033 3.73295 6.03255e-19)
(-0.880591 3.73847 6.09493e-19)
(-0.882088 3.74384 -5.7367e-19)
(-0.883526 3.74906 5.95091e-19)
(-0.884907 3.75413 -5.69753e-19)
(-0.886234 3.75905 -8.67727e-21)
(-0.88751 3.76384 5.49223e-19)
(-0.888737 3.76849 -1.05058e-18)
(-0.889916 3.773 -1.38659e-20)
(-0.89105 3.77738 5.02779e-19)
(-0.89214 3.78164 -4.99592e-19)
(-0.893189 3.78576 4.83179e-19)
(-0.894197 3.78976 -4.71575e-19)
(-0.895167 3.79364 9.19677e-19)
(-0.896099 3.7974 -4.45045e-19)
(-0.896996 3.80104 0)
(-0.897857 3.80457 -3.32658e-21)
(-0.898685 3.80798 3.24046e-21)
(-0.899481 3.81128 -6.31008e-21)
(-0.900246 3.81447 -3.97083e-19)
(-0.90098 3.81756 3.8366e-19)
(-0.901684 3.82053 2.93499e-21)
(-0.902354 3.82338 0)
(-0.9182 3.64881 -6.79554e-19)
(-0.920847 3.65627 7.05316e-19)
(-0.923378 3.66349 -1.44472e-18)
(-0.9258 3.67048 7.17353e-19)
(-0.928118 3.67726 -2.21843e-20)
(-0.930336 3.68383 -6.99323e-19)
(-0.932461 3.6902 6.65916e-19)
(-0.934497 3.69639 6.96117e-19)
(-0.936448 3.7024 -6.85188e-19)
(-0.938319 3.70824 6.7698e-19)
(-0.940113 3.71391 -6.66799e-19)
(-0.941835 3.71942 0)
(-0.943487 3.72478 -1.00536e-20)
(-0.945074 3.72999 6.29795e-19)
(-0.946598 3.73505 -1.23825e-18)
(-0.948062 3.73998 5.994e-19)
(-0.949468 3.74476 7.01628e-24)
(-0.95082 3.74941 0)
(-0.95212 3.75393 -1.77238e-20)
(-0.953369 3.75832 5.63568e-19)
(-0.954571 3.76258 -1.08174e-18)
(-0.955727 3.76671 5.2326e-19)
(-0.956838 3.77073 0)
(-0.957907 3.77463 0)
(-0.958934 3.7784 -4.93056e-19)
(-0.959923 3.78207 9.50011e-19)
(-0.960873 3.78562 -4.61347e-19)
(-0.961787 3.78906 4.55482e-19)
(-0.962665 3.79239 -4.37783e-19)
(-0.96351 3.79561 1.81897e-24)
(-0.964321 3.79872 -4.19979e-19)
(-0.9651 3.80173 4.00865e-19)
(-0.965848 3.80464 -1.55478e-21)
(-0.966561 3.80743 -4.06699e-19)
(-0.977772 3.63702 2.35986e-20)
(-0.980572 3.64429 0)
(-0.983249 3.65131 2.39749e-20)
(-0.985808 3.6581 0)
(-0.988256 3.66467 8.05629e-19)
(-0.990598 3.67105 -7.68302e-19)
(-0.992839 3.67722 0)
(-0.994986 3.68322 2.3299e-20)
(-0.997042 3.68903 7.60785e-19)
(-0.999012 3.69469 -7.03216e-19)
(-1.0009 3.70018 -1.11615e-20)
(-1.00271 3.70551 1.09704e-20)
(-1.00445 3.7107 7.09666e-19)
(-1.00612 3.71574 -1.35245e-18)
(-1.00772 3.72065 6.54461e-19)
(-1.00926 3.72542 6.76214e-19)
(-1.01074 3.73005 -6.17438e-19)
(-1.01216 3.73456 -6.26448e-19)
(-1.01353 3.73894 1.2302e-18)
(-1.01484 3.74319 -5.85699e-19)
(-1.0161 3.74733 0)
(-1.01732 3.75134 0)
(-1.01849 3.75524 0)
(-1.01961 3.75903 0)
(-1.02069 3.7627 4.07007e-21)
(-1.02173 3.76626 0)
(-1.02273 3.76972 -3.86071e-21)
(-1.02369 3.77307 4.8821e-19)
(-1.02461 3.77631 -4.65442e-19)
(-1.0255 3.77945 1.90134e-24)
(-1.02635 3.78248 -4.46184e-19)
(-1.02717 3.78542 4.29094e-19)
(-1.02796 3.78826 3.29596e-21)
(-1.02871 3.79098 0)
(-1.03851 3.63205 8.00265e-19)
(-1.04133 3.63887 -8.48177e-19)
(-1.04402 3.64545 1.65334e-18)
(-1.04659 3.65182 -7.79722e-19)
(-1.04905 3.65799 2.56e-20)
(-1.0514 3.66396 0)
(-1.05365 3.66976 -3.33098e-23)
(-1.0558 3.67538 -2.47255e-20)
(-1.05786 3.68084 7.92464e-19)
(-1.05984 3.68614 -7.31554e-19)
(-1.06173 3.69129 -1.18076e-23)
(-1.06355 3.6963 1.15458e-20)
(-1.06529 3.70117 0)
(-1.06697 3.70591 7.1805e-19)
(-1.06857 3.71051 -6.96907e-19)
(-1.07012 3.71499 6.85946e-19)
(-1.0716 3.71935 -1.32573e-18)
(-1.07303 3.72359 6.30643e-19)
(-1.0744 3.72771 9.86461e-21)
(-1.07571 3.73171 0)
(-1.07698 3.7356 0)
(-1.0782 3.73938 -5.90111e-19)
(-1.07937 3.74305 5.65686e-19)
(-1.0805 3.74661 -4.33968e-21)
(-1.08158 3.75007 0)
(-1.08262 3.75342 4.11287e-21)
(-1.08363 3.75667 -4.00255e-21)
(-1.08459 3.75982 0)
(-1.08552 3.76287 4.87777e-19)
(-1.08641 3.76583 -9.39403e-19)
(-1.08726 3.76868 4.55985e-19)
(-1.08809 3.77145 4.46951e-19)
(-1.08887 3.7741 -4.46597e-19)
(-1.09473 3.61961 8.87021e-19)
(-1.09768 3.62622 -8.69301e-19)
(-1.10049 3.6326 2.78466e-20)
(-1.10318 3.63876 9.08169e-19)
(-1.10574 3.64472 -8.36153e-19)
(-1.1082 3.65049 -2.72812e-20)
(-1.11054 3.65608 8.52115e-19)
(-1.11279 3.66149 5.57784e-20)
(-1.11493 3.66675 -8.24829e-19)
(-1.11699 3.67186 -3.86207e-20)
(-1.11896 3.67682 -2.52795e-20)
(-1.12084 3.68165 -8.16326e-19)
(-1.12265 3.68634 1.55383e-18)
(-1.12439 3.6909 -1.52055e-18)
(-1.12606 3.69534 7.23188e-19)
(-1.12766 3.69966 -7.34309e-19)
(-1.1292 3.70386 7.01801e-19)
(-1.13067 3.70794 1.081e-20)
(-1.13209 3.71192 -6.81432e-19)
(-1.13346 3.71578 6.52105e-19)
(-1.13477 3.71954 1.00167e-20)
(-1.13603 3.72319 0)
(-1.13725 3.72674 0)
(-1.13842 3.73019 -5.9664e-19)
(-1.13954 3.73354 5.72121e-19)
(-1.14062 3.73679 5.60252e-19)
(-1.14166 3.73994 -5.41835e-19)
(-1.14266 3.74299 0)
(-1.14362 3.74595 8.06085e-21)
(-1.14454 3.74882 -5.04554e-19)
(-1.14543 3.7516 4.88671e-19)
(-1.14628 3.75428 4.78719e-19)
(-1.1471 3.75686 -4.81267e-19)
(-1.14928 3.60703 9.64747e-19)
(-1.15235 3.61344 0)
(-1.15528 3.61961 -3.01346e-20)
(-1.15808 3.62556 -5.4278e-23)
(-1.16075 3.63131 -2.97552e-20)
(-1.1633 3.63686 9.89506e-19)
(-1.16574 3.64224 -1.85989e-18)
(-1.16806 3.64744 9.29463e-19)
(-1.17028 3.6525 0)
(-1.17241 3.6574 8.99417e-19)
(-1.17445 3.66216 -8.15905e-19)
(-1.1764 3.6668 0)
(-1.17827 3.6713 8.57421e-19)
(-1.18006 3.67568 -1.63071e-18)
(-1.18178 3.67995 1.60603e-18)
(-1.18343 3.6841 1.71143e-20)
(-1.18501 3.68814 -1.51866e-18)
(-1.18653 3.69207 7.33216e-19)
(-1.188 3.69589 -7.45884e-24)
(-1.1894 3.69961 7.09871e-19)
(-1.19075 3.70323 -7.0068e-19)
(-1.19205 3.70676 0)
(-1.1933 3.71018 0)
(-1.19451 3.71351 -6.41573e-19)
(-1.19566 3.71674 -8.92358e-21)
(-1.19678 3.71988 5.98313e-19)
(-1.19785 3.72293 0)
(-1.19888 3.72588 0)
(-1.19987 3.72875 -4.29264e-21)
(-1.20082 3.73153 -4.172e-21)
(-1.20173 3.73422 -8.10659e-21)
(-1.20261 3.73682 5.13168e-19)
(-1.20345 3.73932 -1.02408e-18)
(-1.20541 3.60058 1.01614e-18)
(-1.20846 3.60654 1.06685e-18)
(-1.21136 3.61228 -1.04487e-18)
(-1.21413 3.61781 -1.01663e-18)
(-1.21677 3.62314 9.64249e-19)
(-1.21928 3.6283 0)
(-1.22169 3.63329 -3.08776e-20)
(-1.22398 3.63812 9.86622e-19)
(-1.22617 3.64281 5.88791e-20)
(-1.22826 3.64737 -1.89818e-18)
(-1.23027 3.6518 8.88374e-19)
(-1.23219 3.65612 8.92797e-19)
(-1.23402 3.66031 -8.64366e-19)
(-1.23579 3.66439 0)
(-1.23748 3.66837 -8.43285e-19)
(-1.2391 3.67224 1.6271e-18)
(-1.24066 3.67601 -7.97543e-19)
(-1.24216 3.67968 -1.20776e-20)
(-1.2436 3.68325 0)
(-1.24499 3.68673 1.14507e-20)
(-1.24632 3.69012 0)
(-1.2476 3.69341 0)
(-1.24883 3.69661 -6.74479e-19)
(-1.25001 3.69973 6.56344e-19)
(-1.25115 3.70275 0)
(-1.25225 3.70569 0)
(-1.2533 3.70855 -4.70471e-21)
(-1.25432 3.71132 -5.93438e-19)
(-1.25529 3.714 5.6524e-19)
(-1.25623 3.71661 1.97648e-24)
(-1.25713 3.71913 -5.46289e-19)
(-1.25799 3.72155 5.44035e-19)
(-1.25689 3.58768 1.16018e-18)
(-1.26005 3.59344 -1.06459e-18)
(-1.26306 3.59897 1.11076e-18)
(-1.26592 3.60428 -1.15607e-18)
(-1.26865 3.60939 -1.08441e-18)
(-1.27125 3.61432 1.02822e-18)
(-1.27372 3.61908 0)
(-1.27607 3.62369 0)
(-1.27832 3.62816 -1.04208e-18)
(-1.28046 3.6325 9.91035e-19)
(-1.28251 3.63672 4.61201e-20)
(-1.28447 3.64083 1.50258e-20)
(-1.28635 3.64483 1.4678e-20)
(-1.28815 3.64873 -9.2795e-19)
(-1.28987 3.65252 -1.97525e-20)
(-1.29153 3.65622 8.63051e-19)
(-1.29312 3.65982 8.58288e-19)
(-1.29465 3.66333 -8.1966e-19)
(-1.29611 3.66675 0)
(-1.29753 3.67008 0)
(-1.29888 3.67333 -7.68759e-19)
(-1.30019 3.67649 7.47096e-19)
(-1.30144 3.67956 7.26228e-19)
(-1.30265 3.68256 -1.40651e-18)
(-1.30381 3.68546 6.7596e-19)
(-1.30493 3.68829 -6.6575e-19)
(-1.306 3.69104 1.28983e-18)
(-1.30704 3.69371 -6.15216e-19)
(-1.30803 3.6963 0)
(-1.30899 3.69881 5.96294e-19)
(-1.30991 3.70125 -1.14867e-18)
(-1.31078 3.70358 5.70394e-19)
(-1.30685 3.57477 -1.19321e-18)
(-1.31012 3.58035 -3.82209e-20)
(-1.31323 3.58569 3.79558e-20)
(-1.31619 3.5908 1.22811e-18)
(-1.31901 3.5957 -1.13058e-18)
(-1.32168 3.6004 7.36521e-20)
(-1.32422 3.6049 -1.18144e-18)
(-1.32663 3.60925 -3.71097e-20)
(-1.32892 3.61347 1.05993e-18)
(-1.33111 3.61758 3.38657e-20)
(-1.3332 3.62159 -3.31099e-20)
(-1.33519 3.62549 -1.61729e-20)
(-1.3371 3.62929 -1.5787e-20)
(-1.33893 3.63299 -1.53876e-20)
(-1.34068 3.6366 0)
(-1.34236 3.64012 0)
(-1.34397 3.64355 -1.42318e-20)
(-1.34552 3.64689 0)
(-1.34701 3.65016 -8.84123e-19)
(-1.34844 3.65334 -2.77008e-20)
(-1.34981 3.65644 1.61887e-18)
(-1.35114 3.65946 -1.59824e-18)
(-1.35241 3.6624 7.64623e-19)
(-1.35363 3.66527 -1.16926e-20)
(-1.35481 3.66806 -5.67848e-21)
(-1.35594 3.67077 0)
(-1.35703 3.67341 6.89917e-19)
(-1.35808 3.67597 -1.33105e-18)
(-1.35909 3.67847 6.42225e-19)
(-1.36006 3.68088 0)
(-1.36099 3.68323 6.20368e-19)
(-1.36188 3.68548 -6.08066e-19)
(-1.35537 3.56185 -1.3663e-18)
(-1.35874 3.56726 2.61001e-18)
(-1.36195 3.57242 -1.28575e-18)
(-1.365 3.57736 4.07495e-20)
(-1.36789 3.58207 -1.35586e-18)
(-1.37064 3.58658 -4.74977e-20)
(-1.37325 3.59086 2.57162e-18)
(-1.37572 3.59496 -1.26697e-18)
(-1.37805 3.5989 1.24258e-18)
(-1.38027 3.60271 -1.21212e-18)
(-1.38239 3.60644 0)
(-1.38441 3.6101 0)
(-1.38634 3.61369 -1.69836e-20)
(-1.38819 3.6172 1.08767e-18)
(-1.38996 3.62062 -1.02004e-18)
(-1.39165 3.62396 -1.56878e-20)
(-1.39328 3.62721 -9.87263e-19)
(-1.39484 3.63039 9.41779e-19)
(-1.39635 3.63349 -9.04171e-19)
(-1.39779 3.63652 9.0502e-19)
(-1.39917 3.63947 8.94331e-19)
(-1.40051 3.64235 1.35014e-20)
(-1.40179 3.64516 -8.17836e-19)
(-1.40302 3.6479 1.25067e-20)
(-1.40421 3.65057 -7.76268e-19)
(-1.40535 3.65316 7.43201e-19)
(-1.40645 3.65569 -5.71701e-21)
(-1.40751 3.65815 0)
(-1.40853 3.66054 -6.93287e-19)
(-1.40951 3.66286 -7.60481e-21)
(-1.41045 3.66511 -1.22422e-20)
(-1.41135 3.66727 6.53702e-19)
(-1.40251 3.54895 1.53007e-18)
(-1.40598 3.55419 -1.35913e-18)
(-1.40927 3.55918 4.4586e-20)
(-1.4124 3.56393 4.40927e-20)
(-1.41537 3.56847 4.35544e-20)
(-1.41819 3.5728 1.36292e-18)
(-1.42085 3.57691 -2.78033e-18)
(-1.42338 3.58081 1.37582e-18)
(-1.42576 3.58451 4.1804e-20)
(-1.42801 3.58806 0)
(-1.43015 3.59149 -1.33328e-18)
(-1.43218 3.59484 -3.21577e-20)
(-1.43412 3.59814 1.19542e-18)
(-1.43598 3.6014 0)
(-1.43776 3.60461 -1.12299e-18)
(-1.43947 3.60777 1.0842e-18)
(-1.4411 3.61085 3.27885e-20)
(-1.44267 3.61386 1.02991e-18)
(-1.44418 3.6168 2.61897e-21)
(-1.44562 3.61967 -9.39843e-19)
(-1.44702 3.62247 0)
(-1.44835 3.62521 -9.15747e-19)
(-1.44964 3.62788 -1.3445e-20)
(-1.45088 3.63048 8.63156e-19)
(-1.45207 3.63302 -8.23533e-19)
(-1.45322 3.6355 8.06892e-19)
(-1.45432 3.63791 6.10999e-21)
(-1.45538 3.64026 0)
(-1.45641 3.64255 0)
(-1.45739 3.64477 5.57662e-21)
(-1.45834 3.64693 5.45e-21)
(-1.45923 3.64899 0)
(-1.44829 3.53607 1.6641e-18)
(-1.45186 3.54116 -1.47726e-18)
(-1.45523 3.54598 1.5387e-18)
(-1.45843 3.55055 -1.5482e-18)
(-1.46147 3.5549 -7.89442e-23)
(-1.46435 3.55906 0)
(-1.46708 3.56301 0)
(-1.46966 3.56674 1.48641e-18)
(-1.47208 3.57025 -2.94207e-18)
(-1.47437 3.57357 1.40698e-18)
(-1.47652 3.57674 4.37238e-20)
(-1.47856 3.57981 0)
(-1.4805 3.5828 -1.33193e-18)
(-1.48235 3.58575 -2.97112e-20)
(-1.48413 3.58869 2.43365e-18)
(-1.48583 3.5916 -1.17562e-18)
(-1.48747 3.59449 1.1405e-18)
(-1.48904 3.59733 -1.06749e-18)
(-1.49055 3.6001 0)
(-1.49199 3.60281 -3.22814e-20)
(-1.49338 3.60546 1.56656e-20)
(-1.49472 3.60805 9.8107e-19)
(-1.49601 3.61058 -9.22468e-19)
(-1.49724 3.61305 -1.43192e-20)
(-1.49843 3.61546 -2.77724e-20)
(-1.49958 3.61782 -8.67676e-19)
(-1.50068 3.62011 8.30398e-19)
(-1.50174 3.62235 8.15365e-19)
(-1.50276 3.62453 1.54522e-20)
(-1.50375 3.62666 -7.64367e-19)
(-1.50469 3.62871 -7.61722e-19)
(-1.50558 3.63068 -7.88569e-21)
(-1.49276 3.52325 -9.86102e-19)
(-1.49642 3.52819 7.76656e-19)
(-1.49988 3.53285 8.62839e-19)
(-1.50315 3.53724 -8.14836e-19)
(-1.50625 3.54141 1.62192e-18)
(-1.50919 3.54538 -1.58229e-18)
(-1.51197 3.54915 0)
(-1.51459 3.55273 4.90769e-20)
(-1.51706 3.55608 1.58363e-18)
(-1.51938 3.55922 -1.52158e-18)
(-1.52155 3.56217 0)
(-1.5236 3.56498 4.64956e-20)
(-1.52554 3.5677 4.51823e-20)
(-1.52738 3.57035 0)
(-1.52913 3.57298 0)
(-1.53081 3.5756 2.01178e-20)
(-1.53243 3.57822 -3.85375e-20)
(-1.53399 3.58084 1.17749e-18)
(-1.53549 3.58343 -1.11521e-18)
(-1.53693 3.58598 8.66378e-24)
(-1.53832 3.58847 -3.36094e-20)
(-1.53965 3.59091 0)
(-1.54093 3.5933 1.00381e-18)
(-1.54216 3.59563 -9.74036e-19)
(-1.54334 3.59792 1.48672e-20)
(-1.54448 3.60014 -7.20322e-21)
(-1.54557 3.60232 0)
(-1.54663 3.60445 -6.7666e-21)
(-1.54765 3.60652 -2.23599e-24)
(-1.54862 3.60854 -8.1338e-19)
(-1.54956 3.6105 7.92908e-19)
(-1.55045 3.61237 0)
(-1.53596 3.5105 -1.1634e-19)
(-1.53971 3.51531 9.49835e-19)
(-1.54326 3.5198 -9.53336e-19)
(-1.5466 3.52403 9.81443e-19)
(-1.54975 3.52802 -8.17375e-19)
(-1.55273 3.5318 -8.91336e-19)
(-1.55556 3.53539 8.43247e-19)
(-1.55822 3.53879 -9.64667e-19)
(-1.56073 3.542 9.28115e-19)
(-1.56308 3.54498 5.18585e-20)
(-1.56528 3.54775 5.13306e-20)
(-1.56734 3.55035 -1.01082e-19)
(-1.56927 3.55281 -4.94106e-20)
(-1.57109 3.55518 -1.55172e-18)
(-1.57282 3.55751 2.98096e-18)
(-1.57447 3.55983 -1.4263e-18)
(-1.57606 3.56216 -1.35028e-18)
(-1.57759 3.56451 -2.50166e-20)
(-1.57906 3.56687 1.21159e-18)
(-1.58049 3.56922 1.86709e-20)
(-1.58186 3.57155 1.80463e-20)
(-1.58318 3.57384 0)
(-1.58445 3.57608 -1.69467e-20)
(-1.58566 3.57827 0)
(-1.58684 3.58042 -1.59175e-20)
(-1.58796 3.58252 1.01703e-18)
(-1.58905 3.58457 -1.91295e-18)
(-1.59009 3.58658 9.2083e-19)
(-1.5911 3.58854 8.95826e-19)
(-1.59207 3.59046 -8.73106e-19)
(-1.59299 3.59231 6.6555e-21)
(-1.59387 3.59409 -6.65194e-21)
(-1.57792 3.49784 1.11476e-18)
(-1.58177 3.50252 0)
(-1.58539 3.50687 -1.02195e-18)
(-1.5888 3.51094 9.01905e-19)
(-1.59201 3.51475 -1.10926e-18)
(-1.59504 3.51834 -3.59497e-20)
(-1.5979 3.52174 9.72307e-19)
(-1.60059 3.52496 -9.26986e-19)
(-1.60313 3.52801 8.27885e-19)
(-1.60552 3.53085 -1.01416e-18)
(-1.60774 3.53346 8.15376e-19)
(-1.60981 3.53587 -7.75381e-19)
(-1.61173 3.53812 9.00881e-19)
(-1.61354 3.54024 -5.23e-20)
(-1.61524 3.5423 7.94646e-19)
(-1.61686 3.54432 -7.47834e-19)
(-1.6184 3.54635 2.33576e-20)
(-1.61989 3.54841 0)
(-1.62132 3.5505 0)
(-1.62271 3.55261 0)
(-1.62406 3.55474 0)
(-1.62536 3.55686 1.2122e-18)
(-1.62661 3.55895 -1.13659e-18)
(-1.62781 3.561 0)
(-1.62897 3.56301 -1.08257e-18)
(-1.63008 3.56498 -3.07631e-20)
(-1.63115 3.5669 1.0255e-18)
(-1.63218 3.56879 7.74828e-21)
(-1.63317 3.57064 -7.49965e-21)
(-1.63412 3.57244 9.36906e-19)
(-1.63504 3.57419 -1.81944e-18)
(-1.6359 3.57587 9.16459e-19)
(-1.61868 3.48528 1.38205e-19)
(-1.62262 3.48985 -1.26527e-18)
(-1.62632 3.49407 1.13051e-18)
(-1.6298 3.49798 -1.09568e-18)
(-1.63306 3.50162 1.0982e-18)
(-1.63614 3.50503 0)
(-1.63903 3.50823 -1.26358e-19)
(-1.64175 3.51126 1.06586e-18)
(-1.64431 3.51412 -3.00342e-20)
(-1.64672 3.51681 -1.8473e-18)
(-1.64896 3.51929 -2.64104e-20)
(-1.65105 3.52154 9.25431e-19)
(-1.65297 3.5236 -5.79079e-20)
(-1.65476 3.52551 9.19373e-19)
(-1.65644 3.52731 -8.74765e-19)
(-1.65801 3.52906 0)
(-1.65951 3.5308 -8.55506e-19)
(-1.66094 3.53257 -3.97299e-20)