/*--------------------------------*- C++ -*----------------------------------*\
  =========                 |
  \\      /  F ield         | OpenFOAM: The Open Source CFD Toolbox
   \\    /   O peration     | Website:  https://openfoam.org
    \\  /    A nd           | Version:  10
     \\/     M anipulation  |
\*---------------------------------------------------------------------------*/
FoamFile
{
    format      ascii;
    class       surfaceScalarField;
    location    "26000";
    object      phi;
}
// * * * * * * * * * * * * * * * * * * * * * * * * * * * * * * * * * * * * * //

dimensions      [0 3 -1 0 0 0 0];

internalField   nonuniform List<scalar> 
35539
(
-9.96179e-10
2.9361e-05
-2.9361e-05
-9.93724e-10
2.96344e-05
-2.96344e-05
-9.80116e-10
2.9907e-05
-2.99071e-05
-9.49709e-10
3.01788e-05
-3.01789e-05
-9.02899e-10
3.04496e-05
-3.04496e-05
-8.43583e-10
3.0719e-05
-3.0719e-05
-7.66105e-10
3.09869e-05
-3.09869e-05
-6.71026e-10
3.1253e-05
-3.12531e-05
-5.62158e-10
3.15172e-05
-3.15173e-05
-4.37101e-10
3.17791e-05
-3.17792e-05
-2.93256e-10
3.20385e-05
-3.20387e-05
-1.31567e-10
3.22951e-05
-3.22953e-05
4.89022e-11
3.25487e-05
-3.25489e-05
2.44369e-10
3.27989e-05
-3.27991e-05
4.60057e-10
3.30453e-05
-3.30455e-05
6.9359e-10
3.32877e-05
-3.32879e-05
9.47195e-10
3.35257e-05
-3.35259e-05
1.21835e-09
3.37589e-05
-3.37591e-05
1.50902e-09
3.39868e-05
-3.39871e-05
1.81822e-09
3.42092e-05
-3.42095e-05
2.14624e-09
3.44254e-05
-3.44258e-05
2.49427e-09
3.46352e-05
-3.46355e-05
2.85841e-09
3.48378e-05
-3.48382e-05
3.24101e-09
3.50329e-05
-3.50333e-05
3.64043e-09
3.52199e-05
-3.52203e-05
4.05847e-09
3.53981e-05
-3.53986e-05
4.48899e-09
3.5567e-05
-3.55675e-05
4.93331e-09
3.57259e-05
-3.57263e-05
5.3829e-09
3.52567e-05
-3.52572e-05
5.82488e-09
3.41917e-05
-3.41922e-05
6.26103e-09
3.31633e-05
-3.31637e-05
6.68473e-09
3.21699e-05
-3.21703e-05
7.09686e-09
3.12101e-05
-3.12105e-05
7.49515e-09
3.02826e-05
-3.0283e-05
7.87976e-09
2.93862e-05
-2.93865e-05
8.24888e-09
2.85195e-05
-2.85198e-05
8.6034e-09
2.76814e-05
-2.76817e-05
8.94083e-09
2.68708e-05
-2.68712e-05
9.26163e-09
2.60868e-05
-2.60871e-05
9.56754e-09
2.53282e-05
-2.53285e-05
9.85717e-09
2.45941e-05
-2.45943e-05
1.01329e-08
2.38835e-05
-2.38838e-05
1.03939e-08
2.31957e-05
-2.3196e-05
1.06437e-08
2.25298e-05
-2.253e-05
1.08839e-08
2.18849e-05
-2.18852e-05
1.11128e-08
2.12603e-05
-2.12605e-05
1.13307e-08
2.06553e-05
-2.06555e-05
1.15423e-08
2.00691e-05
-2.00693e-05
1.17442e-08
1.9501e-05
-1.95012e-05
1.19392e-08
1.89504e-05
-1.89506e-05
1.21225e-08
1.84168e-05
-1.84169e-05
1.2295e-08
1.78994e-05
-1.78995e-05
1.24536e-08
1.73977e-05
-1.73978e-05
1.25951e-08
1.69112e-05
-1.69113e-05
1.27231e-08
1.64393e-05
-1.64394e-05
1.28315e-08
1.59816e-05
-1.59817e-05
1.29215e-08
1.55376e-05
-1.55377e-05
1.29897e-08
1.51069e-05
-1.51069e-05
1.3035e-08
1.46888e-05
-1.46888e-05
1.30678e-08
1.4283e-05
-1.4283e-05
1.30947e-08
1.38889e-05
-1.3889e-05
1.31196e-08
1.35064e-05
-1.35064e-05
1.31476e-08
1.31349e-05
-1.3135e-05
1.31774e-08
1.27743e-05
-1.27743e-05
1.32149e-08
1.2424e-05
-1.2424e-05
1.32587e-08
1.20838e-05
-1.20838e-05
1.33144e-08
1.17533e-05
-1.17534e-05
1.33825e-08
1.14323e-05
-1.14324e-05
1.34606e-08
1.11204e-05
-1.11205e-05
1.35506e-08
1.08175e-05
-1.08176e-05
1.36451e-08
1.05233e-05
-1.05234e-05
1.37399e-08
1.02378e-05
-1.02379e-05
1.38223e-08
9.96083e-06
-9.96091e-06
1.38887e-08
9.69232e-06
-9.69239e-06
1.39317e-08
9.43197e-06
-9.43201e-06
1.3946e-08
9.17929e-06
-9.1793e-06
1.39381e-08
8.9339e-06
-8.93389e-06
1.39089e-08
8.69559e-06
-8.69556e-06
1.38594e-08
8.46415e-06
-8.4641e-06
1.37924e-08
8.23937e-06
-8.2393e-06
1.37101e-08
8.02104e-06
-8.02096e-06
1.36146e-08
7.80898e-06
-7.80888e-06
1.35067e-08
7.60299e-06
-7.60288e-06
1.33911e-08
7.40289e-06
-7.40277e-06
1.32667e-08
7.20849e-06
-7.20837e-06
1.31366e-08
7.01963e-06
-7.0195e-06
1.30036e-08
6.83613e-06
-6.836e-06
1.28678e-08
6.65783e-06
-6.65769e-06
1.27314e-08
6.48456e-06
-6.48442e-06
1.25966e-08
6.31617e-06
-6.31603e-06
1.24627e-08
6.1525e-06
-6.15237e-06
1.23322e-08
5.99341e-06
-5.99328e-06
5.83875e-06
-5.83862e-06
-9.77485e-10
2.9361e-05
-9.78608e-10
2.96344e-05
-9.65278e-10
2.9907e-05
-9.37506e-10
3.01788e-05
-8.93033e-10
3.04495e-05
-8.32436e-10
3.07189e-05
-7.54896e-10
3.09868e-05
-6.6428e-10
3.12529e-05
-5.53432e-10
3.15171e-05
-4.26078e-10
3.1779e-05
-2.8024e-10
3.20384e-05
-1.18073e-10
3.2295e-05
6.12252e-11
3.25485e-05
2.58279e-10
3.27987e-05
4.76773e-10
3.30451e-05
7.12715e-10
3.32875e-05
9.68161e-10
3.35254e-05
1.24355e-09
3.37586e-05
1.53639e-09
3.39865e-05
1.8484e-09
3.42089e-05
2.18097e-09
3.44251e-05
2.5302e-09
3.46348e-05
2.90116e-09
3.48375e-05
3.28955e-09
3.50325e-05
3.69334e-09
3.52195e-05
4.11457e-09
3.53977e-05
4.55086e-09
3.55666e-05
5.00201e-09
3.57254e-05
5.45585e-09
3.52563e-05
5.90251e-09
3.41913e-05
6.34239e-09
3.31628e-05
6.77244e-09
3.21695e-05
7.19112e-09
3.12097e-05
7.59704e-09
3.02822e-05
7.98701e-09
2.93858e-05
8.36267e-09
2.85191e-05
8.72018e-09
2.7681e-05
9.06306e-09
2.68705e-05
9.3915e-09
2.60864e-05
9.70391e-09
2.53278e-05
1.00012e-08
2.45938e-05
1.02858e-08
2.38833e-05
1.05556e-08
2.31955e-05
1.08155e-08
2.25295e-05
1.10637e-08
2.18847e-05
1.13047e-08
2.12601e-05
1.15367e-08
2.0655e-05
1.17605e-08
2.00688e-05
1.19785e-08
1.95008e-05
1.21862e-08
1.89502e-05
1.23843e-08
1.84166e-05
1.25715e-08
1.78992e-05
1.27466e-08
1.73975e-05
1.291e-08
1.6911e-05
1.30558e-08
1.64392e-05
1.31849e-08
1.59815e-05
1.32949e-08
1.55375e-05
1.3383e-08
1.51068e-05
1.34508e-08
1.46887e-05
1.35066e-08
1.42829e-05
1.35568e-08
1.38889e-05
1.36081e-08
1.35063e-05
1.36597e-08
1.31349e-05
1.37178e-08
1.27742e-05
1.37825e-08
1.24239e-05
1.38565e-08
1.20837e-05
1.39429e-08
1.17532e-05
1.40407e-08
1.14322e-05
1.41527e-08
1.11203e-05
1.42758e-08
1.08174e-05
1.44053e-08
1.05232e-05
1.45308e-08
1.02377e-05
1.46496e-08
9.96071e-06
1.47525e-08
9.69222e-06
1.48309e-08
9.43189e-06
1.4883e-08
9.17923e-06
1.49092e-08
8.93387e-06
1.49124e-08
8.69559e-06
1.48951e-08
8.46417e-06
1.48599e-08
8.2394e-06
1.48077e-08
8.0211e-06
1.47418e-08
7.80905e-06
1.46637e-08
7.60307e-06
1.45744e-08
7.40298e-06
1.44768e-08
7.20859e-06
1.43717e-08
7.01974e-06
1.42619e-08
6.83624e-06
1.41473e-08
6.65794e-06
1.40311e-08
6.48468e-06
1.39128e-08
6.31629e-06
1.37946e-08
6.15262e-06
1.36772e-08
5.99353e-06
5.83887e-06
-9.58668e-10
2.9361e-05
-9.6056e-10
2.96344e-05
-9.46955e-10
2.9907e-05
-9.19235e-10
3.01788e-05
-8.778e-10
3.04495e-05
-8.15376e-10
3.07188e-05
-7.39195e-10
3.09867e-05
-6.46917e-10
3.12528e-05
-5.3612e-10
3.15169e-05
-4.12452e-10
3.17788e-05
-2.65686e-10
3.20382e-05
-1.01481e-10
3.22948e-05
7.77227e-11
3.25483e-05
2.78672e-10
3.27985e-05
4.98836e-10
3.30449e-05
7.35616e-10
3.32872e-05
9.94081e-10
3.35252e-05
1.27004e-09
3.37583e-05
1.56683e-09
3.39862e-05
1.88425e-09
3.42085e-05
2.21844e-09
3.44248e-05
2.57326e-09
3.46345e-05
2.94583e-09
3.48371e-05
3.33704e-09
3.50322e-05
3.74612e-09
3.52191e-05
4.17222e-09
3.53973e-05
4.614e-09
3.55662e-05
5.07023e-09
3.5725e-05
5.52804e-09
3.52558e-05
5.98305e-09
3.41908e-05
6.42825e-09
3.31624e-05
6.86293e-09
3.2169e-05
7.28432e-09
3.12093e-05
7.69356e-09
3.02818e-05
8.08951e-09
2.93854e-05
8.46928e-09
2.85187e-05
8.83578e-09
2.76807e-05
9.18688e-09
2.68701e-05
9.51946e-09
2.60861e-05
9.83973e-09
2.53275e-05
1.01453e-08
2.45935e-05
1.04373e-08
2.3883e-05
1.07183e-08
2.31952e-05
1.09874e-08
2.25293e-05
1.12476e-08
2.18844e-05
1.15008e-08
2.12598e-05
1.17452e-08
2.06548e-05
1.19828e-08
2.00686e-05
1.22134e-08
1.95005e-05
1.24363e-08
1.895e-05
1.26534e-08
1.84163e-05
1.28588e-08
1.7899e-05
1.30529e-08
1.73973e-05
1.32336e-08
1.69108e-05
1.34001e-08
1.6439e-05
1.35489e-08
1.59814e-05
1.36814e-08
1.55374e-05
1.37914e-08
1.51067e-05
1.3883e-08
1.46886e-05
1.39642e-08
1.42828e-05
1.40414e-08
1.38888e-05
1.41178e-08
1.35063e-05
1.41985e-08
1.31348e-05
1.42848e-08
1.27741e-05
1.43785e-08
1.24238e-05
1.44846e-08
1.20836e-05
1.46016e-08
1.17531e-05
1.47345e-08
1.14321e-05
1.48812e-08
1.11202e-05
1.50382e-08
1.08172e-05
1.5202e-08
1.0523e-05
1.53652e-08
1.02375e-05
1.55186e-08
9.96056e-06
1.56578e-08
9.69208e-06
1.57744e-08
9.43177e-06
1.58612e-08
9.17915e-06
1.59233e-08
8.93381e-06
1.59604e-08
8.69555e-06
1.59773e-08
8.46415e-06
1.59744e-08
8.23941e-06
1.5954e-08
8.02112e-06
1.59172e-08
7.80908e-06
1.58668e-08
7.60312e-06
1.58058e-08
7.40304e-06
1.57334e-08
7.20866e-06
1.56524e-08
7.01982e-06
1.55638e-08
6.83633e-06
1.54703e-08
6.65804e-06
1.53713e-08
6.48478e-06
1.52684e-08
6.31639e-06
1.51628e-08
6.15273e-06
1.50557e-08
5.99363e-06
5.83898e-06
-9.28964e-10
2.9361e-05
-9.33558e-10
2.96344e-05
-9.2309e-10
2.9907e-05
-8.96749e-10
3.01788e-05
-8.538e-10
3.04494e-05
-7.96556e-10
3.07188e-05
-7.22886e-10
3.09866e-05
-6.28733e-10
3.12527e-05
-5.19731e-10
3.15168e-05
-3.90714e-10
3.17787e-05
-2.45584e-10
3.20381e-05
-8.37807e-11
3.22947e-05
1.01261e-10
3.25482e-05
3.0392e-10
3.27983e-05
5.21726e-10
3.30447e-05
7.62749e-10
3.3287e-05
1.02238e-09
3.35249e-05
1.30127e-09
3.3758e-05
1.60058e-09
3.39859e-05
1.91942e-09
3.42082e-05
2.25743e-09
3.44244e-05
2.61574e-09
3.46341e-05
2.99283e-09
3.48367e-05
3.38779e-09
3.50318e-05
3.80148e-09
3.52187e-05
4.2313e-09
3.53969e-05
4.67736e-09
3.55657e-05
5.13556e-09
3.57245e-05
5.59922e-09
3.52554e-05
6.05758e-09
3.41904e-05
6.50716e-09
3.31619e-05
6.94603e-09
3.21686e-05
7.37492e-09
3.12088e-05
7.79012e-09
3.02814e-05
8.19277e-09
2.9385e-05
8.57757e-09
2.85183e-05
8.94892e-09
2.76803e-05
9.30546e-09
2.68698e-05
9.64644e-09
2.60858e-05
9.97365e-09
2.53272e-05
1.0287e-08
2.45931e-05
1.05888e-08
2.38827e-05
1.08789e-08
2.31949e-05
1.11594e-08
2.2529e-05
1.14332e-08
2.18841e-05
1.16967e-08
2.12596e-05
1.19563e-08
2.06545e-05
1.22082e-08
2.00683e-05
1.2455e-08
1.95003e-05
1.26951e-08
1.89498e-05
1.2927e-08
1.84161e-05
1.31513e-08
1.78987e-05
1.33658e-08
1.73971e-05
1.35659e-08
1.69106e-05
1.37531e-08
1.64388e-05
1.39253e-08
1.59812e-05
1.408e-08
1.55373e-05
1.42166e-08
1.51065e-05
1.43341e-08
1.46885e-05
1.44404e-08
1.42827e-05
1.45451e-08
1.38887e-05
1.46499e-08
1.35062e-05
1.47591e-08
1.31347e-05
1.48764e-08
1.2774e-05
1.50037e-08
1.24237e-05
1.51419e-08
1.20835e-05
1.52943e-08
1.1753e-05
1.54609e-08
1.14319e-05
1.56434e-08
1.112e-05
1.58385e-08
1.0817e-05
1.60392e-08
1.05228e-05
1.62388e-08
1.02373e-05
1.64289e-08
9.96037e-06
1.66066e-08
9.6919e-06
1.67608e-08
9.43162e-06
1.68862e-08
9.17902e-06
1.69834e-08
8.93371e-06
1.70574e-08
8.69548e-06
1.71071e-08
8.4641e-06
1.7135e-08
8.23938e-06
1.71455e-08
8.02111e-06
1.71388e-08
7.80909e-06
1.71178e-08
7.60314e-06
1.70808e-08
7.40307e-06
1.70335e-08
7.20871e-06
1.69755e-08
7.01988e-06
1.69077e-08
6.8364e-06
1.68318e-08
6.65811e-06
1.67487e-08
6.48486e-06
1.66602e-08
6.31648e-06
1.65655e-08
6.15282e-06
1.64656e-08
5.99373e-06
5.83908e-06
-8.95885e-10
2.9361e-05
-9.02252e-10
2.96344e-05
-8.93783e-10
2.9907e-05
-8.66797e-10
3.01787e-05
-8.25449e-10
3.04494e-05
-7.69169e-10
3.07187e-05
-6.93687e-10
3.09866e-05
-6.03554e-10
3.12526e-05
-4.94905e-10
3.15167e-05
-3.65485e-10
3.17786e-05
-2.21219e-10
3.20379e-05
-5.53155e-11
3.22945e-05
1.2638e-10
3.2548e-05
3.27509e-10
3.27981e-05
5.51405e-10
3.30444e-05
7.91988e-10
3.32868e-05
1.0527e-09
3.35247e-05
1.33514e-09
3.37577e-05
1.63512e-09
3.39856e-05
1.95646e-09
3.42079e-05
2.29784e-09
3.44241e-05
2.65895e-09
3.46337e-05
3.04037e-09
3.48363e-05
3.43755e-09
3.50314e-05
3.85621e-09
3.52183e-05
4.28989e-09
3.53964e-05
4.7373e-09
3.55653e-05
5.20172e-09
3.57241e-05
5.67181e-09
3.52549e-05
6.13316e-09
3.41899e-05
6.58726e-09
3.31615e-05
7.0321e-09
3.21681e-05
7.46581e-09
3.12084e-05
7.88461e-09
3.0281e-05
8.28993e-09
2.93846e-05
8.68436e-09
2.85179e-05
9.06067e-09
2.76799e-05
9.42347e-09
2.68694e-05
9.77294e-09
2.60854e-05
1.01065e-08
2.53269e-05
1.04294e-08
2.45928e-05
1.07407e-08
2.38824e-05
1.10418e-08
2.31946e-05
1.13339e-08
2.25287e-05
1.16165e-08
2.18838e-05
1.18961e-08
2.12593e-05
1.21682e-08
2.06543e-05
1.24367e-08
2.00681e-05
1.26998e-08
1.95e-05
1.2957e-08
1.89495e-05
1.32093e-08
1.84159e-05
1.34519e-08
1.78985e-05
1.36852e-08
1.73969e-05
1.39093e-08
1.69104e-05
1.41181e-08
1.64386e-05
1.43139e-08
1.5981e-05
1.44944e-08
1.55371e-05
1.46558e-08
1.51064e-05
1.47997e-08
1.46884e-05
1.49351e-08
1.42826e-05
1.50667e-08
1.38886e-05
1.52037e-08
1.3506e-05
1.53452e-08
1.31346e-05
1.5495e-08
1.27738e-05
1.56551e-08
1.24235e-05
1.5828e-08
1.20833e-05
1.60169e-08
1.17528e-05
1.62217e-08
1.14317e-05
1.64429e-08
1.11198e-05
1.66751e-08
1.08168e-05
1.6914e-08
1.05226e-05
1.7152e-08
1.02371e-05
1.73811e-08
9.96014e-06
1.75968e-08
9.69169e-06
1.77898e-08
9.43142e-06
1.79537e-08
9.17886e-06
1.8089e-08
8.93358e-06
1.81958e-08
8.69537e-06
1.82799e-08
8.46402e-06
1.83422e-08
8.23932e-06
1.83821e-08
8.02107e-06
1.84047e-08
7.80907e-06
1.84097e-08
7.60314e-06
1.83999e-08
7.40308e-06
1.83756e-08
7.20874e-06
1.8339e-08
7.01991e-06
1.82904e-08
6.83645e-06
1.82312e-08
6.65817e-06
1.81619e-08
6.48493e-06
1.80837e-08
6.31656e-06
1.79969e-08
6.15291e-06
1.79031e-08
5.99383e-06
5.83918e-06
-8.58692e-10
2.93611e-05
-8.649e-10
2.96344e-05
-8.59191e-10
2.9907e-05
-8.35746e-10
3.01787e-05
-7.95683e-10
3.04493e-05
-7.38541e-10
3.07187e-05
-6.65182e-10
3.09865e-05
-5.71979e-10
3.12525e-05
-4.64815e-10
3.15166e-05
-3.36796e-10
3.17785e-05
-1.92287e-10
3.20378e-05
-2.94207e-11
3.22943e-05
1.55367e-10
3.25478e-05
3.59014e-10
3.27979e-05
5.81683e-10
3.30442e-05
8.25383e-10
3.32865e-05
1.08862e-09
3.35244e-05
1.36959e-09
3.37575e-05
1.67431e-09
3.39853e-05
1.99841e-09
3.42076e-05
2.34253e-09
3.44237e-05
2.70646e-09
3.46334e-05
3.08687e-09
3.48359e-05
3.48966e-09
3.5031e-05
3.90967e-09
3.52178e-05
4.34575e-09
3.5396e-05
4.80015e-09
3.55648e-05
5.26857e-09
3.57236e-05
5.74015e-09
3.52544e-05
6.20647e-09
3.41894e-05
6.66495e-09
3.3161e-05
7.1136e-09
3.21677e-05
7.54942e-09
3.1208e-05
7.97561e-09
3.02806e-05
8.38756e-09
2.93841e-05
8.78346e-09
2.85175e-05
9.16964e-09
2.76795e-05
9.53703e-09
2.68691e-05
9.89387e-09
2.60851e-05
1.02374e-08
2.53265e-05
1.05685e-08
2.45925e-05
1.08896e-08
2.3882e-05
1.12019e-08
2.31943e-05
1.15068e-08
2.25284e-05
1.18046e-08
2.18836e-05
1.20963e-08
2.1259e-05
1.23862e-08
2.0654e-05
1.26694e-08
2.00678e-05
1.29493e-08
1.94998e-05
1.32272e-08
1.89492e-05
1.34964e-08
1.84156e-05
1.37615e-08
1.78982e-05
1.4017e-08
1.73966e-05
1.42613e-08
1.69102e-05
1.44957e-08
1.64384e-05
1.47157e-08
1.59808e-05
1.49207e-08
1.55369e-05
1.51085e-08
1.51062e-05
1.52817e-08
1.46882e-05
1.54476e-08
1.42824e-05
1.56124e-08
1.38884e-05
1.57787e-08
1.35058e-05
1.59541e-08
1.31344e-05
1.61374e-08
1.27737e-05
1.6333e-08
1.24233e-05
1.65445e-08
1.20831e-05
1.67714e-08
1.17526e-05
1.70151e-08
1.14315e-05
1.7275e-08
1.11195e-05
1.75492e-08
1.08165e-05
1.78288e-08
1.05223e-05
1.81056e-08
1.02368e-05
1.83735e-08
9.95987e-06
1.86283e-08
9.69143e-06
1.88625e-08
9.43119e-06
1.90663e-08
9.17865e-06
1.92377e-08
8.93341e-06
1.93815e-08
8.69523e-06
1.94981e-08
8.4639e-06
1.95921e-08
8.23922e-06
1.96636e-08
8.02099e-06
1.97146e-08
7.80902e-06
1.97463e-08
7.6031e-06
1.97604e-08
7.40307e-06
1.97585e-08
7.20874e-06
1.97407e-08
7.01993e-06
1.97084e-08
6.83648e-06
1.9664e-08
6.65822e-06
1.96068e-08
6.48499e-06
1.95371e-08
6.31663e-06
1.94568e-08
6.15299e-06
1.93637e-08
5.99392e-06
5.83929e-06
-8.13204e-10
2.93611e-05
-8.24216e-10
2.96344e-05
-8.17855e-10
2.9907e-05
-7.96888e-10
3.01787e-05
-7.57629e-10
3.04493e-05
-7.01023e-10
3.07186e-05
-6.2855e-10
3.09864e-05
-5.40887e-10
3.12525e-05
-4.3006e-10
3.15165e-05
-3.05148e-10
3.17783e-05
-1.57936e-10
3.20376e-05
8.56819e-12
3.22942e-05
1.91643e-10
3.25476e-05
3.95838e-10
3.27977e-05
6.18412e-10
3.3044e-05
8.60813e-10
3.32863e-05
1.1244e-09
3.35241e-05
1.41061e-09
3.37572e-05
1.71623e-09
3.3985e-05
2.03946e-09
3.42073e-05
2.38559e-09
3.44234e-05
2.74994e-09
3.4633e-05
3.13692e-09
3.48356e-05
3.54304e-09
3.50306e-05
3.96301e-09
3.52174e-05
4.40478e-09
3.53956e-05
4.86139e-09
3.55643e-05
5.33221e-09
3.57231e-05
5.80772e-09
3.52539e-05
6.278e-09
3.4189e-05
6.74059e-09
3.31606e-05
7.19317e-09
3.21672e-05
7.63513e-09
3.12075e-05
8.06394e-09
3.02801e-05
8.48058e-09
2.93837e-05
8.88536e-09
2.85171e-05
9.27358e-09
2.76791e-05
9.65056e-09
2.68687e-05
1.00146e-08
2.60847e-05
1.03663e-08
2.53262e-05
1.07087e-08
2.45921e-05
1.10396e-08
2.38817e-05
1.13637e-08
2.3194e-05
1.16801e-08
2.25281e-05
1.19932e-08
2.18832e-05
1.23e-08
2.12587e-05
1.26033e-08
2.06537e-05
1.29057e-08
2.00675e-05
1.32059e-08
1.94995e-05
1.35006e-08
1.89489e-05
1.37917e-08
1.84153e-05
1.40779e-08
1.78979e-05
1.43565e-08
1.73963e-05
1.4626e-08
1.69099e-05
1.48843e-08
1.64381e-05
1.51284e-08
1.59805e-05
1.53613e-08
1.55366e-05
1.55781e-08
1.5106e-05
1.57808e-08
1.4688e-05
1.59789e-08
1.42822e-05
1.61751e-08
1.38882e-05
1.63783e-08
1.35056e-05
1.6587e-08
1.31342e-05
1.68075e-08
1.27734e-05
1.70418e-08
1.24231e-05
1.72906e-08
1.20828e-05
1.75565e-08
1.17523e-05
1.78426e-08
1.14312e-05
1.81447e-08
1.11192e-05
1.84604e-08
1.08162e-05
1.87815e-08
1.0522e-05
1.90999e-08
1.02365e-05
1.9409e-08
9.95956e-06
1.97057e-08
9.69113e-06
1.99795e-08
9.43092e-06
2.02212e-08
9.17841e-06
2.04308e-08
8.9332e-06
2.06111e-08
8.69505e-06
2.07621e-08
8.46375e-06
2.08858e-08
8.2391e-06
2.09876e-08
8.02089e-06
2.10649e-08
7.80894e-06
2.11217e-08
7.60305e-06
2.11588e-08
7.40303e-06
2.11775e-08
7.20872e-06
2.11773e-08
7.01993e-06
2.11618e-08
6.83649e-06
2.11276e-08
6.65825e-06
2.10794e-08
6.48503e-06
2.10156e-08
6.31669e-06
2.09375e-08
6.15306e-06
2.08451e-08
5.99401e-06
5.83939e-06
-7.66139e-10
2.93611e-05
-7.77854e-10
2.96344e-05
-7.70706e-10
2.9907e-05
-7.51172e-10
3.01787e-05
-7.15128e-10
3.04493e-05
-6.60691e-10
3.07186e-05
-5.89034e-10
3.09863e-05
-4.98339e-10
3.12524e-05
-3.9126e-10
3.15164e-05
-2.6476e-10
3.17782e-05
-1.20029e-10
3.20375e-05
4.30003e-11
3.2294e-05
2.27406e-10
3.25474e-05
4.30352e-10
3.27975e-05
6.56204e-10
3.30438e-05
9.01539e-10
3.3286e-05
1.16666e-09
3.35239e-05
1.45109e-09
3.37569e-05
1.75599e-09
3.39847e-05
2.08501e-09
3.42069e-05
2.43064e-09
3.44231e-05
2.80037e-09
3.46326e-05
3.18642e-09
3.48352e-05
3.59311e-09
3.50301e-05
4.01941e-09
3.5217e-05
4.4619e-09
3.53951e-05
4.92181e-09
3.55639e-05
5.39312e-09
3.57227e-05
5.87321e-09
3.52535e-05
6.34737e-09
3.41885e-05
6.81184e-09
3.31601e-05
7.26932e-09
3.21668e-05
7.71657e-09
3.12071e-05
8.15075e-09
3.02797e-05
8.57099e-09
2.93833e-05
8.98091e-09
2.85167e-05
9.37765e-09
2.76787e-05
9.7615e-09
2.68683e-05
1.01325e-08
2.60843e-05
1.04947e-08
2.53258e-05
1.08444e-08
2.45918e-05
1.11874e-08
2.38814e-05
1.15228e-08
2.31936e-05
1.18547e-08
2.25277e-05
1.21803e-08
2.18829e-05
1.25048e-08
2.12584e-05
1.28267e-08
2.06533e-05
1.31474e-08
2.00672e-05
1.34647e-08
1.94991e-05
1.37811e-08
1.89486e-05
1.40954e-08
1.8415e-05
1.44024e-08
1.78976e-05
1.47051e-08
1.7396e-05
1.49999e-08
1.69096e-05
1.5284e-08
1.64378e-05
1.55571e-08
1.59803e-05
1.58161e-08
1.55364e-05
1.60616e-08
1.51057e-05
1.6297e-08
1.46878e-05
1.65269e-08
1.4282e-05
1.67612e-08
1.3888e-05
1.69983e-08
1.35054e-05
1.72456e-08
1.31339e-05
1.75048e-08
1.27732e-05
1.77775e-08
1.24228e-05
1.80666e-08
1.20825e-05
1.83765e-08
1.1752e-05
1.87045e-08
1.14309e-05
1.90502e-08
1.11189e-05
1.94075e-08
1.08159e-05
1.97722e-08
1.05216e-05
2.01338e-08
1.02361e-05
2.04863e-08
9.95921e-06
2.08231e-08
9.6908e-06
2.11382e-08
9.4306e-06
2.14213e-08
9.17813e-06
2.16681e-08
8.93295e-06
2.18811e-08
8.69483e-06
2.20652e-08
8.46357e-06
2.22221e-08
8.23894e-06
2.23501e-08
8.02076e-06
2.24553e-08
7.80883e-06
2.25357e-08
7.60297e-06
2.25941e-08
7.40298e-06
2.26305e-08
7.20868e-06
2.26466e-08
7.01991e-06
2.26419e-08
6.8365e-06
2.2619e-08
6.65827e-06
2.25771e-08
6.48508e-06
2.25164e-08
6.31675e-06
2.24374e-08
6.15314e-06
2.234e-08
5.99411e-06
5.83951e-06
-7.13807e-10
2.93612e-05
-7.25766e-10
2.96344e-05
-7.2132e-10
2.9907e-05
-7.01657e-10
3.01787e-05
-6.66598e-10
3.04492e-05
-6.13849e-10
3.07185e-05
-5.43334e-10
3.09863e-05
-4.55e-10
3.12523e-05
-3.48393e-10
3.15163e-05
-2.22059e-10
3.17781e-05
-7.74635e-11
3.20374e-05
8.70051e-11
3.22938e-05
2.7129e-10
3.25472e-05
4.74924e-10
3.27973e-05
6.98033e-10
3.30435e-05
9.43429e-10
3.32858e-05
1.20917e-09
3.35236e-05
1.49617e-09
3.37566e-05
1.80264e-09
3.39844e-05
2.13068e-09
3.42066e-05
2.47979e-09
3.44227e-05
2.84866e-09
3.46323e-05
3.23803e-09
3.48348e-05
3.64507e-09
3.50297e-05
4.07354e-09
3.52166e-05
4.51672e-09
3.53947e-05
4.97792e-09
3.55634e-05
5.45729e-09
3.57222e-05
5.93802e-09
3.5253e-05
6.41532e-09
3.4188e-05
6.884e-09
3.31596e-05
7.34318e-09
3.21663e-05
7.79193e-09
3.12066e-05
8.23214e-09
3.02793e-05
8.66019e-09
2.93829e-05
9.07416e-09
2.85163e-05
9.47591e-09
2.76783e-05
9.86756e-09
2.68679e-05
1.02473e-08
2.60839e-05
1.06189e-08
2.53254e-05
1.09802e-08
2.45914e-05
1.1334e-08
2.3881e-05
1.1684e-08
2.31933e-05
1.2029e-08
2.25274e-05
1.23714e-08
2.18826e-05
1.2712e-08
2.1258e-05
1.30514e-08
2.0653e-05
1.33907e-08
2.00668e-05
1.37297e-08
1.94988e-05
1.40679e-08
1.89483e-05
1.44039e-08
1.84146e-05
1.47372e-08
1.78973e-05
1.5064e-08
1.73957e-05
1.53854e-08
1.69093e-05
1.56974e-08
1.64375e-05
1.59988e-08
1.598e-05
1.62857e-08
1.55361e-05
1.6561e-08
1.51055e-05
1.68304e-08
1.46875e-05
1.7097e-08
1.42817e-05
1.73651e-08
1.38877e-05
1.76411e-08
1.35051e-05
1.79277e-08
1.31336e-05
1.82262e-08
1.27729e-05
1.85401e-08
1.24225e-05
1.88746e-08
1.20822e-05
1.92264e-08
1.17516e-05
1.95988e-08
1.14305e-05
1.99903e-08
1.11185e-05
2.03945e-08
1.08155e-05
2.08029e-08
1.05212e-05
2.12092e-08
1.02357e-05
2.16033e-08
9.95881e-06
2.19819e-08
9.69042e-06
2.23392e-08
9.43024e-06
2.26602e-08
9.17781e-06
2.29458e-08
8.93267e-06
2.31944e-08
8.69459e-06
2.34109e-08
8.46335e-06
2.35955e-08
8.23876e-06
2.37528e-08
8.02061e-06
2.38817e-08
7.8087e-06
2.39851e-08
7.60286e-06
2.40627e-08
7.4029e-06
2.4115e-08
7.20863e-06
2.41449e-08
7.01988e-06
2.415e-08
6.83649e-06
2.41337e-08
6.65829e-06
2.40941e-08
6.48512e-06
2.40336e-08
6.31681e-06
2.39503e-08
6.15323e-06
2.38464e-08
5.99421e-06
5.83963e-06
-6.52995e-10
2.93612e-05
-6.66101e-10
2.96344e-05
-6.67467e-10
2.9907e-05
-6.48318e-10
3.01786e-05
-6.13364e-10
3.04492e-05
-5.62504e-10
3.07185e-05
-4.93539e-10
3.09862e-05
-4.05038e-10
3.12522e-05
-2.98752e-10
3.15162e-05
-1.74317e-10
3.1778e-05
-3.22297e-11
3.20372e-05
1.33727e-10
3.22937e-05
3.16868e-10
3.25471e-05
5.20714e-10
3.2797e-05
7.4563e-10
3.30433e-05
9.90028e-10
3.32855e-05
1.25504e-09
3.35233e-05
1.54283e-09
3.37563e-05
1.85127e-09
3.39841e-05
2.17842e-09
3.42063e-05
2.52858e-09
3.44224e-05
2.89701e-09
3.46319e-05
3.28765e-09
3.48344e-05
3.69789e-09
3.50293e-05
4.12587e-09
3.52161e-05
4.57398e-09
3.53942e-05
5.036e-09
3.5563e-05
5.51387e-09
3.57217e-05
5.99964e-09
3.52525e-05
6.47628e-09
3.41875e-05
6.94988e-09
3.31592e-05
7.4129e-09
3.21659e-05
7.86828e-09
3.12062e-05
8.31077e-09
3.02788e-05
8.7425e-09
2.93825e-05
9.16263e-09
2.85159e-05
9.57193e-09
2.76779e-05
9.97027e-09
2.68675e-05
1.03611e-08
2.60836e-05
1.07398e-08
2.53251e-05
1.11134e-08
2.45911e-05
1.14812e-08
2.38806e-05
1.18439e-08
2.31929e-05
1.22027e-08
2.2527e-05
1.25629e-08
2.18822e-05
1.292e-08
2.12577e-05
1.32797e-08
2.06526e-05
1.36399e-08
2.00665e-05
1.40014e-08
1.94984e-05
1.43621e-08
1.89479e-05
1.47219e-08
1.84143e-05
1.50802e-08
1.78969e-05
1.54341e-08
1.73953e-05
1.57813e-08
1.69089e-05
1.61218e-08
1.64372e-05
1.64513e-08
1.59796e-05
1.6769e-08
1.55358e-05
1.70773e-08
1.51051e-05
1.73797e-08
1.46872e-05
1.7684e-08
1.42814e-05
1.79919e-08
1.38874e-05
1.83075e-08
1.35048e-05
1.86339e-08
1.31333e-05
1.89749e-08
1.27725e-05
1.93334e-08
1.24222e-05
1.97094e-08
1.20818e-05
2.01072e-08
1.17512e-05
2.05266e-08
1.14301e-05
2.0964e-08
1.11181e-05
2.14144e-08
1.0815e-05
2.18704e-08
1.05208e-05
2.23205e-08
1.02353e-05
2.27589e-08
9.95838e-06
2.31812e-08
9.69e-06
2.35777e-08
9.42985e-06
2.39406e-08
9.17745e-06
2.42608e-08
8.93235e-06
2.45436e-08
8.6943e-06
2.47917e-08
8.4631e-06
2.50066e-08
8.23854e-06
2.51895e-08
8.02042e-06
2.53417e-08
7.80855e-06
2.54645e-08
7.60274e-06
2.55583e-08
7.4028e-06
2.56264e-08
7.20856e-06
2.56658e-08
7.01984e-06
2.56796e-08
6.83648e-06
2.56669e-08
6.6583e-06
2.56275e-08
6.48515e-06
2.55628e-08
6.31688e-06
2.54731e-08
6.15332e-06
2.53582e-08
5.99433e-06
5.83977e-06
-5.90946e-10
2.93612e-05
-6.04613e-10
2.96344e-05
-6.03562e-10
2.9907e-05
-5.8881e-10
3.01786e-05
-5.55189e-10
3.04492e-05
-5.05701e-10
3.07184e-05
-4.37416e-10
3.09861e-05
-3.50017e-10
3.12521e-05
-2.45571e-10
3.15161e-05
-1.22549e-10
3.17778e-05
2.19435e-11
3.20371e-05
1.84386e-10
3.22935e-05
3.67617e-10
3.25469e-05
5.7095e-10
3.27968e-05
7.94122e-10
3.30431e-05
1.03957e-09
3.32853e-05
1.30474e-09
3.35231e-05
1.5897e-09
3.3756e-05
1.89867e-09
3.39838e-05
2.22673e-09
3.42059e-05
2.57845e-09
3.4422e-05
2.94822e-09
3.46315e-05
3.33902e-09
3.4834e-05
3.75028e-09
3.50289e-05
4.17938e-09
3.52157e-05
4.62549e-09
3.53938e-05
5.09168e-09
3.55625e-05
5.57131e-09
3.57212e-05
6.05662e-09
3.5252e-05
6.54049e-09
3.41871e-05
7.01373e-09
3.31587e-05
7.4811e-09
3.21654e-05
7.93699e-09
3.12057e-05
8.38445e-09
3.02784e-05
8.82191e-09
2.9382e-05
9.24767e-09
2.85155e-05
9.66554e-09
2.76775e-05
1.00721e-08
2.68671e-05
1.04686e-08
2.60832e-05
1.08601e-08
2.53247e-05
1.12453e-08
2.45907e-05
1.16249e-08
2.38803e-05
1.20023e-08
2.31925e-05
1.23784e-08
2.25267e-05
1.27541e-08
2.18818e-05
1.31321e-08
2.12573e-05
1.35107e-08
2.06523e-05
1.38918e-08
2.00661e-05
1.42761e-08
1.94981e-05
1.46612e-08
1.89475e-05
1.50462e-08
1.84139e-05
1.54301e-08
1.78966e-05
1.58125e-08
1.7395e-05
1.61888e-08
1.69085e-05
1.65591e-08
1.64368e-05
1.69189e-08
1.59793e-05
1.72665e-08
1.55354e-05
1.76067e-08
1.51048e-05
1.7947e-08
1.46869e-05
1.82901e-08
1.42811e-05
1.86381e-08
1.38871e-05
1.89952e-08
1.35045e-05
1.93645e-08
1.31329e-05
1.9749e-08
1.27722e-05
2.01515e-08
1.24218e-05
2.05744e-08
1.20814e-05
2.10201e-08
1.17508e-05
2.14867e-08
1.14296e-05
2.19731e-08
1.11176e-05
2.24721e-08
1.08145e-05
2.2974e-08
1.05203e-05
2.34704e-08
1.02348e-05
2.39537e-08
9.95789e-06
2.44155e-08
9.68954e-06
2.48553e-08
9.42941e-06
2.52567e-08
9.17704e-06
2.56131e-08
8.93199e-06
2.593e-08
8.69399e-06
2.62074e-08
8.46282e-06
2.64489e-08
8.2383e-06
2.66567e-08
8.02022e-06
2.68302e-08
7.80838e-06
2.69713e-08
7.6026e-06
2.70815e-08
7.40269e-06
2.71589e-08
7.20848e-06
2.72069e-08
7.0198e-06
2.72248e-08
6.83646e-06
2.72125e-08
6.65832e-06
2.71704e-08
6.4852e-06
2.70997e-08
6.31695e-06
2.69987e-08
6.15342e-06
2.68691e-08
5.99446e-06
5.83993e-06
-5.20602e-10
2.93612e-05
-5.39952e-10
2.96345e-05
-5.40197e-10
2.9907e-05
-5.24092e-10
3.01786e-05
-4.94772e-10
3.04491e-05
-4.44053e-10
3.07184e-05
-3.77094e-10
3.09861e-05
-2.94073e-10
3.1252e-05
-1.88694e-10
3.1516e-05
-6.63185e-11
3.17777e-05
7.73071e-11
3.20369e-05
2.3857e-10
3.22933e-05
4.21622e-10
3.25467e-05
6.24263e-10
3.27966e-05
8.45939e-10
3.30429e-05
1.09037e-09
3.3285e-05
1.3553e-09
3.35228e-05
1.64382e-09
3.37557e-05
1.94966e-09
3.39835e-05
2.28008e-09
3.42056e-05
2.62812e-09
3.44217e-05
2.99939e-09
3.46312e-05
3.39082e-09
3.48336e-05
3.79969e-09
3.50285e-05
4.23036e-09
3.52153e-05
4.67834e-09
3.53933e-05
5.1437e-09
3.5562e-05
5.62665e-09
3.57207e-05
6.1142e-09
3.52515e-05
6.59599e-09
3.41866e-05
7.07382e-09
3.31582e-05
7.54279e-09
3.21649e-05
8.00435e-09
3.12053e-05
8.45512e-09
3.02779e-05
8.89794e-09
2.93816e-05
9.33005e-09
2.8515e-05
9.75247e-09
2.76771e-05
1.01671e-08
2.68667e-05
1.05764e-08
2.60827e-05
1.09765e-08
2.53243e-05
1.13737e-08
2.45903e-05
1.17686e-08
2.38799e-05
1.21602e-08
2.31921e-05
1.25535e-08
2.25263e-05
1.29472e-08
2.18814e-05
1.33439e-08
2.12569e-05
1.37448e-08
2.06519e-05
1.41489e-08
2.00657e-05
1.4555e-08
1.94976e-05
1.49653e-08
1.89471e-05
1.53782e-08
1.84135e-05
1.57897e-08
1.78961e-05
1.61998e-08
1.73945e-05
1.66067e-08
1.69081e-05
1.70051e-08
1.64364e-05
1.73975e-08
1.59789e-05
1.77777e-08
1.5535e-05
1.81523e-08
1.51044e-05
1.85306e-08
1.46865e-05
1.89123e-08
1.42807e-05
1.93021e-08
1.38867e-05
1.97036e-08
1.35041e-05
2.01173e-08
1.31325e-05
2.05477e-08
1.27717e-05
2.09968e-08
1.24213e-05
2.14679e-08
1.20809e-05
2.19613e-08
1.17503e-05
2.24782e-08
1.14291e-05
2.30128e-08
1.1117e-05
2.35612e-08
1.0814e-05
2.41118e-08
1.05197e-05
2.46557e-08
1.02342e-05
2.51832e-08
9.95737e-06
2.56889e-08
9.68903e-06
2.61663e-08
9.42893e-06
2.66058e-08
9.1766e-06
2.69987e-08
8.9316e-06
2.73467e-08
8.69364e-06
2.76533e-08
8.46252e-06
2.79209e-08
8.23803e-06
2.81506e-08
8.01999e-06
2.83436e-08
7.80819e-06
2.85001e-08
7.60244e-06
2.86225e-08
7.40257e-06
2.87097e-08
7.2084e-06
2.87622e-08
7.01974e-06
2.87808e-08
6.83644e-06
2.87659e-08
6.65833e-06
2.87182e-08
6.48524e-06
2.86358e-08
6.31703e-06
2.85219e-08
6.15353e-06
2.83741e-08
5.99461e-06
5.84011e-06
-4.48574e-10
2.93613e-05
-4.65674e-10
2.96345e-05
-4.69608e-10
2.9907e-05
-4.56855e-10
3.01786e-05
-4.25391e-10
3.04491e-05
-3.80654e-10
3.07183e-05
-3.13052e-10
3.0986e-05
-2.29611e-10
3.12519e-05
-1.29195e-10
3.15159e-05
-6.19468e-12
3.17776e-05
1.35849e-10
3.20368e-05
2.96075e-10
3.22932e-05
4.77138e-10
3.25465e-05
6.79264e-10
3.27964e-05
9.03595e-10
3.30427e-05
1.14443e-09
3.32848e-05
1.40983e-09
3.35225e-05
1.6943e-09
3.37555e-05
2.00225e-09
3.39832e-05
2.32971e-09
3.42053e-05
2.67954e-09
3.44213e-05
3.04973e-09
3.46308e-05
3.43909e-09
3.48332e-05
3.85101e-09
3.50281e-05
4.28044e-09
3.52148e-05
4.7292e-09
3.53929e-05
5.19602e-09
3.55616e-05
5.67716e-09
3.57203e-05
6.16603e-09
3.5251e-05
6.65036e-09
3.41861e-05
7.12852e-09
3.31577e-05
7.60124e-09
3.21644e-05
8.06403e-09
3.12048e-05
8.52103e-09
3.02775e-05
8.96711e-09
2.93811e-05
9.40617e-09
2.85146e-05
9.83725e-09
2.76767e-05
1.02605e-08
2.68663e-05
1.06771e-08
2.60823e-05
1.10907e-08
2.53239e-05
1.14998e-08
2.45899e-05
1.19084e-08
2.38795e-05
1.23174e-08
2.31917e-05
1.27265e-08
2.25259e-05
1.31405e-08
2.1881e-05
1.35587e-08
2.12565e-05
1.3981e-08
2.06514e-05
1.4409e-08
2.00653e-05
1.48421e-08
1.94972e-05
1.52779e-08
1.89467e-05
1.57166e-08
1.8413e-05
1.61569e-08
1.78957e-05
1.65966e-08
1.73941e-05
1.70338e-08
1.69077e-05
1.74657e-08
1.6436e-05
1.78882e-08
1.59784e-05
1.83007e-08
1.55346e-05
1.87103e-08
1.5104e-05
1.91284e-08
1.46861e-05
1.95537e-08
1.42803e-05
1.99878e-08
1.38862e-05
2.04331e-08
1.35036e-05
2.08922e-08
1.31321e-05
2.13694e-08
1.27712e-05
2.18662e-08
1.24208e-05
2.23865e-08
1.20804e-05
2.29315e-08