/*--------------------------------*- C++ -*----------------------------------*\
  =========                 |
  \\      /  F ield         | OpenFOAM: The Open Source CFD Toolbox
   \\    /   O peration     | Website:  https://openfoam.org
    \\  /    A nd           | Version:  10
     \\/     M anipulation  |
\*---------------------------------------------------------------------------*/
FoamFile
{
    format      ascii;
    class       volScalarField;
    location    "25000";
    object      k;
}
// * * * * * * * * * * * * * * * * * * * * * * * * * * * * * * * * * * * * * //

dimensions      [0 2 -2 0 0 0 0];

internalField   nonuniform List<scalar> 
17981
(
0.0274318
0.0281583
0.0289222
0.0297194
0.0305456
0.031396
0.0322659
0.0331505
0.0340452
0.0349456
0.0358476
0.0367474
0.0376417
0.0385273
0.0394019
0.040263
0.0411088
0.041938
0.0427492
0.0435417
0.0443149
0.0450684
0.0458024
0.0465169
0.0472123
0.0478893
0.0485472
0.0491847
0.049802
0.0503996
0.050978
0.0515376
0.0520791
0.0526031
0.05311
0.0536007
0.0540755
0.0545352
0.0549802
0.0554112
0.0558288
0.0562333
0.0566255
0.0570057
0.0573745
0.0577324
0.0580798
0.0584172
0.0266932
0.0274299
0.0282082
0.0290242
0.0298731
0.03075
0.0316499
0.0325674
0.0334976
0.0344355
0.0353767
0.0363168
0.0372521
0.0381791
0.0390949
0.039997
0.0408831
0.0417516
0.0426011
0.0434306
0.0442393
0.0450268
0.045793
0.0465379
0.047262
0.0479657
0.0486495
0.0493125
0.0499538
0.050574
0.0511736
0.0517532
0.0523135
0.052855
0.0533785
0.0538844
0.0543736
0.0548466
0.0553041
0.0557467
0.056175
0.0565896
0.056991
0.0573799
0.0577567
0.0581219
0.0584761
0.0588198
0.0259792
0.0267254
0.0275176
0.0283517
0.0292229
0.0301261
0.0310557
0.0320061
0.0329719
0.0339476
0.0349281
0.0359089
0.0368855
0.0378543
0.0388118
0.0397552
0.040682
0.0415903
0.0424785
0.0433453
0.0441899
0.0450117
0.0458105
0.0465862
0.0473392
0.04807
0.0487793
0.0494669
0.0501318
0.0507743
0.0513948
0.0519939
0.0525724
0.053131
0.0536703
0.0541911
0.054694
0.0551798
0.0556492
0.0561027
0.0565412
0.0569652
0.0573753
0.0577722
0.0581564
0.0585285
0.058889
0.0592385
0.028599
0.0295285
0.030488
0.0314715
0.032473
0.0334866
0.0345069
0.0355285
0.0365469
0.0375577
0.0385572
0.0395422
0.0405099
0.0414581
0.0423851
0.0432893
0.0441698
0.0450259
0.0458572
0.0466637
0.0474456
0.0482033
0.0489375
0.0496489
0.0503368
0.0510007
0.0516412
0.052259
0.0528549
0.0534296
0.0539838
0.0545183
0.055034
0.0555315
0.0560116
0.0564751
0.0569227
0.057355
0.0577727
0.0581766
0.0585671
0.058945
0.0593108
0.0596651
0.028005
0.0289609
0.0299504
0.0309672
0.0320047
0.0330566
0.0341168
0.0351797
0.03624
0.0372931
0.0383347
0.0393614
0.04037
0.0413582
0.0423238
0.0432653
0.0441815
0.0450716
0.0459353
0.0467722
0.0475826
0.0483669
0.0491257
0.04986
0.0505697
0.0512542
0.0519137
0.0525492
0.0531613
0.0537509
0.0543189
0.054866
0.0553931
0.0559011
0.0563907
0.0568628
0.057318
0.0577573
0.0581813
0.0585906
0.058986
0.0593682
0.0597378
0.0600954
0.0274421
0.0284248
0.0294448
0.0304952
0.0315691
0.0326596
0.0337602
0.0348645
0.0359669
0.0370623
0.0381461
0.0392144
0.0402639
0.0412917
0.0422957
0.0432741
0.0442256
0.0451492
0.0460445
0.0469113
0.0477496
0.0485599
0.0493428
0.0500993
0.0508298
0.0515338
0.0522114
0.0528635
0.0534909
0.0540944
0.054675
0.0552335
0.055771
0.0562882
0.0567861
0.0572655
0.0577272
0.0581722
0.0586011
0.0590148
0.059414
0.0597994
0.0601716
0.0605313
0.0279216
0.0289726
0.0300572
0.031168
0.0322975
0.0334386
0.0345846
0.0357293
0.036867
0.0379928
0.0391025
0.0401923
0.0412594
0.0423012
0.0433157
0.0443017
0.0452581
0.0461844
0.0470802
0.0479458
0.0487814
0.0495878
0.050366
0.0511167
0.0518395
0.0525343
0.053202
0.0538436
0.05446
0.0550521
0.055621
0.0561677
0.0566931
0.0571982
0.0576839
0.0581511
0.0586008
0.0590337
0.0594507
0.0598525
0.0602401
0.0606139
0.0609749
0.0296545
0.0308026
0.0319715
0.0331534
0.0343411
0.0355279
0.0367078
0.0378754
0.0390261
0.0401559
0.0412616
0.0423406
0.0433907
0.0444104
0.0453987
0.046355
0.0472789
0.0481707
0.0490307
0.0498596
0.0506586
0.0514284
0.0521688
0.0528796
0.0535618
0.0542164
0.0548445
0.055447
0.0560252
0.0565799
0.0571124
0.0576235
0.0581144
0.058586
0.0590393
0.0594751
0.0598944
0.060298
0.0606866
0.0610612
0.0614224
0.0304735
0.0316819
0.0329046
0.034134
0.0353628
0.0365846
0.0377935
0.0389846
0.0401538
0.0412974
0.0424126
0.0434973
0.0445498
0.045569
0.0465541
0.0475051
0.0484219
0.049305
0.0501553
0.0509738
0.0517615
0.0525181
0.0532436
0.053939
0.0546053
0.0552437
0.0558553
0.0564414
0.0570029
0.0575412
0.0580572
0.058552
0.0590268
0.0594825
0.05992
0.0603405
0.0607446
0.0611334
0.0615077
0.0618681
0.0326904
0.0339613
0.0352317
0.0364947
0.0377444
0.0389753
0.0401829
0.0413634
0.042514
0.0436322
0.0447163
0.0457651
0.046778
0.0477546
0.0486951
0.0496
0.0504702
0.0513068
0.052111
0.0528824
0.0536211
0.0543281
0.0550046
0.0556519
0.0562712
0.0568637
0.0574306
0.0579732
0.0584926
0.0589901
0.0594666
0.0599234
0.0603614
0.0607817
0.0611853
0.0615729
0.0619456
0.0623042
0.0377236
0.0389935
0.0402388
0.0414553
0.0426401
0.0437905
0.0449049
0.0459819
0.047021
0.0480218
0.0489846
0.0499098
0.0507983
0.0516516
0.0524706
0.0532552
0.0540055
0.0547225
0.0554077
0.0560623
0.0566877
0.0572851
0.0578559
0.0584014
0.0589228
0.0594214
0.0598983
0.0603548
0.060792
0.0612108
0.0616124
0.0619977
0.0623676
0.062723
0.0377282
0.0390356
0.0403169
0.0415678
0.0427851
0.0439661
0.0451092
0.0462128
0.0472765
0.0482998
0.0492831
0.050227
0.0511323
0.0520006
0.0528329
0.053629
0.0543893
0.0551148
0.0558071
0.0564675
0.0570973
0.0576981
0.0582713
0.0588182
0.0593402
0.0598386
0.0603147
0.0607696
0.0612047
0.0616209
0.0620194
0.0624013
0.0627674
0.0631187
0.0377502
0.0390936
0.0404094
0.0416931
0.0429412
0.0441513
0.0453212
0.0464498
0.0475363
0.0485804
0.0495825
0.0505432
0.0514637
0.0523452
0.0531892
0.0539952
0.0547638
0.0554963
0.0561941
0.0568588
0.0574919
0.0580948
0.0586691
0.0592162
0.0597376
0.0602346
0.0607086
0.0611609
0.0615928
0.0620054
0.0623999
0.0627773
0.0631387
0.063485
0.0377818
0.0391595
0.0405079
0.0418225
0.0430998
0.0443369
0.0455319
0.0466835
0.047791
0.0488542
0.0498735
0.0508495
0.0517835
0.0526771
0.0535312
0.0543457
0.0551212
0.0558591
0.0565611
0.0572287
0.0578635
0.0584672
0.0590412
0.0595872
0.0601068
0.0606012
0.0610721
0.0615206
0.0619483
0.0623562
0.0627457
0.0631178
0.0634736
0.0638142
0.0392237
0.0406029
0.0419466
0.043251
0.0445134
0.0457316
0.0469045
0.0480313
0.0491118
0.0501466
0.0511363
0.0520823
0.0529864
0.0538493
0.0546707
0.0554517
0.0561937
0.0568984
0.0575676
0.0582029
0.058806
0.0593786
0.0599224
0.0604389
0.0609297
0.0613964
0.0618402
0.0622627
0.0626652
0.0630488
0.0634148
0.0637643
0.0640984
0.0392769
0.0406845
0.0420549
0.0433843
0.0446697
0.0459092
0.0471014
0.0482457
0.0493419
0.0503905
0.0513924
0.052349
0.0532622
0.0541325
0.0549596
0.0557447
0.0564895
0.0571958
0.0578654
0.0585001
0.0591016
0.0596718
0.0602124
0.060725
0.0612113
0.0616729
0.0621113
0.0625279
0.0629241
0.0633013
0.0636606
0.0640032
0.0643303
0.0393068
0.0407402
0.042135
0.0434871
0.0447936
0.0460524
0.0472621
0.0484221
0.0495324
0.0505933
0.051606
0.0525719
0.0534931
0.0543696
0.0552012
0.0559895
0.0567361
0.0574431
0.0581123
0.0587455
0.0593448
0.0599118
0.0604485
0.0609566
0.0614378
0.0618938
0.0623262
0.0627365
0.0631261
0.0634963
0.0638486
0.0641841
0.0645044
0.0407569
0.0421736
0.0435461
0.0448716
0.0461478
0.0473733
0.0485475
0.0496704
0.0507425
0.0517648
0.052739
0.053667
0.0545488
0.0553841
0.0561748
0.0569227
0.0576298
0.058298
0.0589294
0.0595259
0.0600894
0.0606219
0.0611252
0.0616011
0.0620513
0.0624775
0.0628813
0.0632641
0.0636275
0.0639732
0.064304
0.0646217
0.0407222
0.0421577
0.0435481
0.0448902
0.0461818
0.0474214
0.0486084
0.0497427
0.0508249
0.051856
0.0528378
0.053772
0.0546584
0.0554971
0.0562898
0.0570387
0.0577457
0.0584128
0.0590422
0.0596359
0.0601959
0.0607242
0.0612228
0.0616934
0.0621378
0.062558
0.0629562
0.0633345
0.0636946
0.0640378
0.0643657
0.0646798
0.0406213
0.0420726
0.0434782
0.0448347
0.0461399
0.0473922
0.0485908
0.0497357
0.0508274
0.051867
0.0528561
0.0537964
0.0546874
0.0555294
0.0563243
0.0570741
0.0577808
0.0584467
0.0590739
0.0596648
0.060222
0.0607477
0.0612437
0.0617119
0.0621539
0.0625717
0.0629671
0.0633419
0.0636978
0.0640366
0.0643598
0.064669
0.0404407
0.041904
0.0433216
0.0446899
0.0460065
0.0472696
0.048478
0.0496319
0.0507326
0.0517814
0.0527793
0.0537271
0.0546244
0.0554714
0.0562701
0.0570228
0.0577317
0.0583992
0.0590275
0.0596188
0.0601755
0.0606997
0.0611936
0.0616591
0.0620982
0.0625129
0.0629048
0.0632759
0.0636278
0.0639622
0.0642805
0.0645843
0.0401654
0.041634
0.0430576
0.0444347
0.0457631
0.04704
0.0482635
0.0494324
0.0505466
0.051607
0.0526148
0.0535713
0.0544759
0.0553288
0.0561323
0.0568886
0.0576002
0.0582695
0.0588988
0.0594906
0.0600471
0.0605705
0.061063
0.0615266
0.0619634
0.0623752
0.0627639
0.0631314
0.0634792
0.0638091
0.0641225
0.0644207
0.0397902
0.041267
0.0427015
0.0440899
0.0454297
0.0467185
0.0479544
0.0491362
0.0502631
0.0513354
0.0523541
0.0533203
0.0542332
0.0550931
0.0559022
0.0566631
0.0573782
0.0580502
0.0586814
0.0592743
0.0598313
0.0603546
0.0608463
0.0613088
0.0617438
0.0621535
0.0625396
0.062904
0.0632483
0.0635742
0.0638831
0.0641763
0.0393293
0.0408091
0.0422492
0.0436458
0.0449954
0.0462953
0.0475431
0.0487372
0.0498766
0.0509609
0.0519909
0.0529677
0.0538901
0.0547583
0.0555745
0.0563412
0.0570613
0.0577372
0.0583716
0.0589669
0.0595256
0.06005
0.0605424
0.0610048
0.0614394
0.061848
0.0622326
0.0625949
0.0629367
0.0632595
0.0635648
0.0638538
0.0387753
0.0402546
0.041697
0.0430986
0.0444558
0.0457653
0.0470244
0.0482308
0.049383
0.0504802
0.0515227
0.0525114
0.0534453
0.0543236
0.0551487
0.0559233
0.05665
0.0573317
0.057971
0.0585704
0.0591325
0.0596596
0.060154
0.0606179
0.0610534
0.0614624
0.0618468
0.0622084
0.0625488
0.0628697
0.0631723
0.0634581
0.0381266
0.0396024
0.0410444
0.0424487
0.0438117
0.0451297
0.0463996
0.0476183
0.048784
0.0498951
0.0509513
0.0519535
0.0529005
0.0537911
0.0546273
0.0554118
0.0561473
0.0568367
0.0574827
0.0580881
0.0586554
0.0591871
0.0596853
0.0601523
0.0605902
0.061001
0.0613866
0.0617489
0.0620893
0.0624096
0.0627111
0.062995
0.0373877
0.0388575
0.0402964
0.0417009
0.0430676
0.0443926
0.0456723
0.0469033
0.0480828
0.0492087
0.0502799
0.0512968
0.0522585
0.0531636
0.0540131
0.0548097
0.0555561
0.0562554
0.0569103
0.0575238
0.0580981
0.058636
0.0591397
0.0596115
0.0600537
0.0604682
0.0608568
0.0612214
0.0615637
0.0618851
0.0621869
0.0624705
0.0365669
0.0380272
0.0394596
0.0408612
0.0422287
0.0435585
0.0448464
0.0460887
0.0472818
0.048423
0.0495103
0.0505432
0.0515215
0.0524432
0.0533082
0.0541192
0.0548789
0.0555903
0.0562563
0.0568797
0.0574631
0.0580093
0.0585207
0.0589996
0.0594481
0.0598683
0.060262
0.060631
0.0609769
0.0613012
0.0616053
0.0618903
0.0356728
0.0371195
0.0385411
0.0399354
0.0412999
0.0426311
0.0439248
0.0451767
0.0463827
0.0475391
0.0486433
0.0496935
0.0506901
0.0516307
0.0525137
0.0533416
0.0541171
0.054843
0.0555223
0.0561581
0.0567532
0.0573102
0.0578318
0.0583201
0.0587774
0.0592056
0.0596067
0.0599823
0.0603341
0.0606634
0.0609718
0.0612602
0.0361396
0.0375454
0.0389278
0.0402848
0.0416133
0.0429095
0.0441688
0.0453864
0.0465579
0.0476794
0.0487486
0.0497645
0.0507256
0.0516296
0.0524775
0.0532715
0.0540148
0.0547104
0.0553616
0.0559712
0.056542
0.0570765
0.057577
0.0580457
0.0584846
0.0588956
0.0592803
0.0596403
0.0599771
0.060292
0.0605861
0.0350979
0.0364809
0.0378446
0.0391879
0.0405087
0.0418032
0.0430668
0.0442942
0.04548
0.0466193
0.0477086
0.0487457
0.0497296
0.0506576
0.0515285
0.0523444
0.0531084
0.0538237
0.0544935
0.0551208
0.0557085
0.056259
0.0567747
0.0572578
0.0577102
0.0581339
0.0585304
0.0589014
0.0592481
0.059572
0.0598743
0.0339903
0.0353543
0.0366963
0.0380192
0.0393253
0.0406125
0.0418761
0.0431103
0.0443089
0.0454659
0.0465762
0.0476364
0.0486451
0.0495997
0.0504972
0.0513387
0.0521271
0.0528658
0.0535579
0.0542064
0.0548143
0.0553841
0.0559182
0.0564189
0.0568879
0.0573273
0.0577385
0.0581231
0.0584826
0.0588181
0.0591309
0.0328119
0.0341576
0.0354839
0.0367885
0.0380749
0.039348
0.0406056
0.0418422
0.0430508
0.0442243
0.0453561
0.046441
0.047476
0.0484594
0.0493873
0.0502583
0.0510753
0.0518412
0.0525594
0.0532329
0.0538646
0.0544572
0.0550131
0.0555345
0.0560233
0.0564814
0.0569103
0.0573116
0.0576865
0.0580363
0.0583623
0.0354936
0.0367661
0.038022
0.0392674
0.0405003
0.0417145
0.0429018
0.0440541
0.0451645
0.0462279
0.0472419
0.0482029
0.0491077
0.0499573
0.0507546
0.0515028
0.052205
0.0528643
0.0534833
0.0540644
0.05461
0.0551219
0.0556019
0.0560515
0.0564723
0.0568655
0.0572324
0.0575741
0.0341338
0.0353972
0.0366427
0.037874
0.0390974
0.0403111
0.0415077
0.042678
0.0438134
0.0449064
0.0459523
0.0469488
0.0478911
0.0487775
0.0496104
0.0503928
0.0511278
0.0518184
0.0524674
0.0530773
0.0536504
0.0541886
0.0546937
0.0551672
0.0556105
0.0560248
0.0564114
0.0567713
0.0327159
0.0339672
0.0352067
0.0364312
0.0376442
0.0388522
0.0400526
0.0412369
0.042395
0.0435175
0.0445973
0.0456303
0.0466123
0.0475398
0.0484126
0.0492334
0.0500053
0.0507312
0.051414
0.0520563
0.0526604
0.0532282
0.0537615
0.0542619
0.0547306
0.0551688
0.0555778
0.0559586
0.0312495
0.0324849
0.0337152
0.0349368
0.0361466
0.037348
0.0385472
0.0397403
0.0409176
0.042068
0.0431819
0.0442526
0.0452763
0.0462482
0.0471652
0.0480287
0.0488415
0.0496067
0.050327
0.0510053
0.0516438
0.0522445
0.0528092
0.0533395
0.0538364
0.0543014
0.0547353
0.0551394
0.0297452
0.0309601
0.032177
0.0333926
0.0346031
0.0358047
0.0370013
0.0381985
0.0393902
0.0405653
0.0417124
0.042822
0.0438878
0.0449056
0.0458708
0.0467813
0.0476394
0.048448
0.0492098
0.0499277
0.050604
0.0512409
0.0518401
0.0524031
0.0529313
0.0534256
0.0538871
0.0543169
0.0282146
0.0294033
0.0306018
0.0318068
0.0330144
0.0342204
0.0354213
0.0366206
0.0378219
0.0390174
0.0401949
0.0413429
0.042452
0.0435168
0.0445321
0.0454939
0.0464016
0.0472576
0.0480648
0.048826
0.0495436
0.0502199
0.0508567
0.0514554
0.0520174
0.0525438
0.0530353
0.0534931
0.0266712
0.027827
0.0290008
0.0301896
0.0313894
0.032596
0.0338046
0.0350119
0.0362208
0.037432
0.0386361
0.0398202
0.0409727
0.0420849
0.043152
0.0441682
0.0451296
0.0460374
0.046894
0.0477022
0.0484646
0.0491835
0.0498608
0.0504981
0.0510967
0.0516576
0.0521816
0.0526697
0.0251274
0.0262434
0.0273857
0.0285516
0.0297377
0.0309396
0.0321524
0.0333708
0.0345914
0.035816
0.0370424
0.0382595
0.039454
0.0406145
0.041733
0.042805
0.0438243
0.044788
0.0456981
0.0465573
0.047368
0.0481328
0.0488537
0.0495324
0.0501703
0.0507682
0.051327
0.0518475
0.0235999
0.0246674
0.0257697
0.0269049
0.0280697
0.0292601
0.0304714
0.0316978
0.0329328
0.0341733
0.0354193
0.0366655
0.0378993
0.0391074
0.0402787
0.0414066
0.0424855
0.0435096
0.0444776
0.0453917
0.0462545
0.0470686
0.0478361
0.048559
0.0492386
0.0498759
0.0504718
0.0510269
0.0221
0.0231118
0.024166
0.0252617
0.0263966
0.0275674
0.0287697
0.0299977
0.0312448
0.0325035
0.0337699
0.0350422
0.036312
0.0375657
0.0387899
0.0399745
0.0411142
0.0422018
0.043232
0.0442053
0.0451241
0.0459909
0.0468081
0.0475779
0.0483018
0.048981
0.0496161
0.0502079
0.0206481
0.0215941
0.0225903
0.0236364
0.0247314
0.0258728
0.0270568
0.0282781
0.0295301
0.0308051
0.0320942
0.0333922
0.0346949
0.0359915
0.0372675
0.0385102
0.0397103
0.0408628
0.0419596
0.0429967
0.0439757
0.0448991
0.0457693
0.0465889
0.0473597
0.0480829
0.0487595
0.04939
0.0192552
0.0201259
0.0210561
0.0220433
0.0230878
0.0241888
0.0253436
0.0265479
0.0277956
0.0290789
0.0303887
0.0317146
0.0330493
0.0343858
0.0357115
0.037012
0.0382748
0.0394924
0.0406583
0.0417641
0.042808
0.0437921
0.0447189
0.0455913
0.0464114
0.0471811
0.0479012
0.0485724
0.0179367
0.0187271
0.0195815
0.0204991
0.0214819
0.0225304
0.0236436
0.0248185
0.0260502
0.0273313
0.0286529
0.0300042
0.0313729
0.0327488
0.0341217
0.0354785
0.0368049
0.0380893
0.0393255
0.0405047
0.0416186
0.0426682
0.0436557
0.0445841
0.0454563
0.0462746
0.0470404
0.0477544
0.0167022
0.0174074
0.0181774
0.0190179
0.0199289
0.0209132
0.0219719
0.0231038
0.0243057
0.0255716
0.0268932
0.0282597
0.0296585
0.0310756
0.0324965
0.0339082
0.0352979
0.0366516
0.0379592
0.0392133
0.0404037
0.0415247
0.0425778
0.043566
0.0444933
0.0453627
0.0461762
0.0469349
0.0155605
0.0161791
0.0168618
0.0176168
0.0184463
0.019355
0.0203459
0.0214205
0.0225776
0.023813
0.0251199
0.0264882
0.0279053
0.0293564
0.0308251
0.0322947
0.033749
0.035173
0.0365544
0.0378861
0.0391582
0.0403585
0.0414836
0.042536
0.0435213
0.0444442
0.0453076
0.0461128
0.0145154
0.015048
0.0156416
0.0163053
0.0170473
0.0178713
0.0187831
0.0197866
0.0208835
0.0220724
0.0233484
0.0247031
0.0261246
0.0275977
0.0291052
0.0306283
0.032148
0.0336463
0.0351074
0.0365199
0.037875
0.0391608
0.0403667
0.0414914
0.0425392
0.043518
0.0444333
0.045287
0.0135679
0.0140178
0.014524
0.0150964
0.0157457
0.0164776
0.0173001
0.01822
0.019242
0.0203679
0.0215959
0.0229201
0.0243303
0.0258121
0.0273476
0.0289166
0.0304976
0.0320693
0.0336122
0.0351098
0.0365524
0.0379272
0.03922
0.0404255
0.0415442
0.0425831
0.0435525
0.0444566
0.0127148
0.0130877
0.0135104
0.0139933
0.0145477
0.0151843
0.0159109
0.0167371
0.017671
0.0187181
0.0198805
0.0211559
0.022537
0.0240111
0.025561
0.0271656
0.028801
0.030443
0.0320677
0.033654
0.0351863
0.0366526
0.0380386
0.0393315
0.0405299
0.0416376
0.0426647
0.043621
0.0119501
0.0122536
0.0125994
0.0129979
0.0134607
0.0140009
0.0146277
0.0153529
0.0161878
0.0171418
0.0182215
0.019429
0.0207611
0.0222085
0.0237557
0.0253818
0.0270615
0.0287673
0.0304713
0.0321474
0.0337737
0.0353368
0.0368201
0.038207
0.0394919
0.040676
0.0417677
0.0427793
0.0112653
0.0115083
0.0117855
0.0121069
0.0124841
0.0129301
0.0134575
0.0140787
0.0148075
0.015657
0.0166383
0.017759
0.0190212
0.0204204
0.0219446
0.0235744
0.0252843
0.0270444
0.0288227
0.030588
0.0323123
0.0339747
0.0355589
0.037047
0.0384258
0.0396945
0.0408582
0.0419296
0.0108425
0.0110606
0.0113141
0.0116138
0.0119723
0.0124042
0.0129221
0.0135417
0.0142791
0.0151496
0.0161664
0.0173379
0.0186658
0.0201435
0.0217554
0.0234773
0.0252779
0.0271219
0.0289727
0.0307957
0.0325622
0.034253
0.0358476
0.0373278
0.0386879
0.0399318
0.0410703
0.0102471
0.0104148
0.0106105
0.0108428
0.0111234
0.0114665
0.0118858
0.0123976
0.01302
0.0137717
0.0146709
0.0157325
0.0169659
0.0183719
0.0199407
0.0216519
0.0234749
0.0253719
0.0273013
0.0292216
0.0310959
0.0328977
0.0346041
0.0361935
0.0376533
0.0389851
0.0401977
0.00998471
0.0101602
0.0103736
0.0106374
0.0109667
0.0113768
0.0118865
0.0125168
0.0132896
0.0142261
0.0153437
0.016652
0.01815
0.0198238
0.0216461
0.0235785
0.0255753
0.0275885
0.0295721
0.031489
0.033313
0.0350184
0.0365863
0.0380135
0.039308
0.00942689
0.00955506
0.00971267
0.00990957
0.0101593
0.0104768
0.0108805
0.011392
0.0120356
0.0128373
0.0138216
0.0150081
0.0164065
0.0180126
0.0198059
0.0217507
0.0237989
0.025896
0.027987
0.0300232
0.0319713
0.0337998
0.0354842
0.0370147
0.0383986
0.0090159
0.00912752
0.00926945
0.00945215
0.00968902
0.0099974
0.0103982
0.0109163
0.01158
0.0124199
0.0134645
0.0147356
0.0162419
0.0179738
0.0199021
0.0219798
0.0241474
0.0263408
0.0284992
0.0305756
0.0325333
0.0343421
0.0359849
0.0374651
0.00853578
0.00860677
0.0087036
0.00883162
0.00900165
0.00922805
0.0095302
0.00993191
0.010462
0.0111539
0.0120434
0.0131638
0.0145385
0.0161732
0.0180505
0.0201288
0.0223471
0.0246328
0.0269125
0.0291225
0.0312176
0.0331596
0.0349236
0.0365073
0.00810987
0.00814408
0.00820073
0.00828456
0.00840078
0.00855977
0.00877783
0.00907665
0.00948351
0.0100321
0.010762
0.0117155
0.0129307
0.0144317
0.0162184
0.0182615
0.0205031
0.0228648
0.0252604
0.0276084
0.0298497
0.0319347
0.0338301
0.035526
0.00773352
0.00775481
0.00779891
0.00787139
0.00797707
0.00812695
0.00833904
0.00863786
0.00905495
0.00963004
0.0104104
0.011446
0.0127798
0.0144342
0.0163994
0.0186284
0.0210423
0.0235432
0.0260313
0.0284252
0.0306628
0.0327003
0.034519
0.00736472
0.00735879
0.00736894
0.00740206
0.00746425
0.00756107
0.00770372
0.0079124
0.00821505
0.00864857
0.0092604
0.0101073
0.0112482
0.0127299
0.0145697
0.0167413
0.0191732
0.0217606
0.0243849
0.0269378
0.0293396
0.0315315
0.0334841
0.00700128
0.00698621
0.00698692
0.00701037
0.0070636
0.00715311
0.00729048
0.00749855
0.00780962
0.00826741
0.00892924
0.00986373
0.0111397
0.0128058
0.014867
0.0172717
0.0199159
0.0226647
0.0253811
0.0279593
0.0303189
0.0324175
0.00667289
0.00663916
0.00661632
0.00660898
0.00662404
0.00666958
0.00675326
0.0068874
0.00709813
0.00742331
0.00791557
0.00864511
0.00969519
0.0111447
0.0130386
0.0153596
0.0180184
0.0208703
0.0237491
0.0265142
0.0290563
0.0313131
0.00636625
0.00631858
0.00627854
0.00624922
0.00623503
0.00624289
0.00628201
0.00636135
0.00649453
0.00671187
0.0070585
0.00759897
0.00842034
0.00962351
0.0112954
0.0134674
0.0160842
0.019005
0.0220384
0.0249957
0.0277337
0.0301648
0.00601753
0.00596478
0.00591956
0.00588475
0.00586472
0.00586653
0.00590047
0.00597705
0.00611188
0.00634082
0.00671875
0.00732642
0.00827302
0.00967948
0.011634
0.014137
0.017074
0.0202386
0.0233939
0.0263459
0.028968
0.0057307
0.0056684
0.00561151
0.00556192
0.00552245
0.0054975
0.0054943
0.00552432
0.00559986
0.00573954
0.00598667
0.0064096
0.00711147
0.00823016
0.00990613
0.0122136
0.0150945
0.0183497
0.0216985
0.0248812
0.0277135
0.00545338
0.00538397
0.00531847
0.00525817
0.00520493
0.00516156
0.00513251
0.00512531
0.0051527
0.00522924
0.00537785
0.00565227
0.00614
0.00697548
0.00833209
0.010362
0.0130959
0.0163784
0.0199011
0.0233265
0.0263903
0.00510676
0.00503499
0.00496694
0.00490386
0.0048476
0.00480097
0.00476857
0.00475834
0.00478453
0.00486457
0.0050277
0.00534264
0.00592486
0.00695241
0.00863802
0.0111221
0.0143419
0.0179981
0.0216678
0.0249845
0.00483247
0.00475618
0.00468259
0.00461252
0.0045472
0.00448847
0.00443918
0.00440413
0.00439188
0.00441852
0.00450537
0.00469111
0.00506671
0.00578943
0.00709601
0.00923064
0.01227
0.0159845
0.0198901
0.0234853
0.00455643
0.00447708
0.00439969
0.00432481
0.00425326
0.00418622
0.00412555
0.00407421
0.00403726
0.00402413
0.0040533
0.00415156
0.00437238
0.00484082
0.00577706
0.00748928
0.0102156
0.013874
0.0179783
0.0218722
0.00427339
0.00419219
0.00411244
0.0040345
0.0039589
0.00388642
0.00381824
0.00375625
0.00370353
0.00366557
0.00365304
0.00368762
0.00380419
0.00408046
0.00469555
0.0059618
0.00825241
0.0117031
0.0159261
0.0201235
0.00397689
0.00389491
0.00381403
0.0037345
0.00365665
0.00358098
0.00350826
0.00343967
0.00337714
0.00332396
0.00328621
0.00327646
0.00332088
0.00346712
0.00383411
0.0046887
0.00646511
0.00953684
0.0137437
0.0182202
0.00365842
0.0035766
0.00349567
0.00341582
0.00333728
0.00326036
0.00318557
0.00311364
0.00304575
0.00298391
0.00293169
0.00289604
0.00289253
0.00295398
0.00315044
0.0036725
0.00492762
0.00746814
0.0114725
0.0161559
0.00330582
0.00322504
0.00314508
0.0030661
0.00298829
0.00291191
0.0028373
0.00276493
0.00269553
0.00263029
0.00257127
0.00252239
0.0024919
0.00249991
0.00259054
0.00287678
0.00367663
0.00559899
0.00918596
0.0139532
0.00290011
0.00282136
0.00274347
0.00266665
0.00259113
0.00251716
0.00244507
0.00237521
0.00230808
0.00224437
0.00218524
0.00213277
0.00209129
0.00207071
0.00209799
0.00223976
0.00269641
0.00401039
0.00699216
0.0116794
0.00240849
0.00233333
0.00225927
0.00218662
0.00211568
0.0020468
0.00198035
0.00191671
0.00185632
0.00179965
0.0017473
0.0017002
0.00166016
0.00163168
0.00162714
0.00168451
0.00192184
0.00272617
0.0049926
0.00941755
0.00176877
0.00170106
0.00163506
0.00157118
0.00150981
0.00145135
0.00139622
0.00134487
0.00129773
0.00125521
0.00121753
0.00118468
0.00115578
0.00113034
0.00111459
0.00112859
0.00123479
0.00166701
0.00319753
0.0071117
0.000885551
0.000838694
0.000794166
0.000752245
0.000713193
0.000677267
0.00064474
0.000615937
0.000591219
0.000570719
0.000552314
0.00053542
0.000521969
0.000515964
0.000518228
0.00053454
0.000592589
0.000807596
0.00170641
0.00503749
6.35038e-05
5.84315e-05
5.38078e-05
4.96349e-05
4.59104e-05
4.26294e-05
3.97888e-05
3.73915e-05
3.54511e-05
3.40399e-05
3.46178e-05
3.68534e-05
4.05111e-05
4.61503e-05
5.45678e-05
6.70504e-05
8.99529e-05
0.000153237
0.000545611
0.00371438
0.0834564
0.0833417
0.0832279
0.0831147
0.0830015
0.0828878
0.0827731
0.0826568
0.0825381
0.0824164
0.0822909
0.0821606
0.0820248
0.0818822
0.0817319
0.0815726
0.0814029
0.0812215
0.0810268
0.0808171
0.0805905
0.080345
0.0800783
0.0797881
0.0794715
0.0791258
0.0787476
0.0783335
0.0778794
0.0773811
0.0768338
0.0762323
0.0755707
0.0748428
0.0740413
0.0731585
0.0721857
0.0711134
0.0699307
0.0686258
0.0671856
0.0655952
0.0638378
0.0618937
0.0597401
0.0573494
0.0546874
0.0517093
0.0483536
0.0445304
0.0400976
0.0348111
0.0282229
0.0197521
0.00991417
0.0834269
0.0833083
0.0831902
0.0830723
0.0829542
0.0828352
0.0827147
0.0825923
0.0824671
0.0823385
0.0822056
0.0820675
0.0819234
0.0817721
0.0816125
0.0814434
0.0812635
0.0810713
0.0808652
0.0806436
0.0804045
0.080146
0.0798657
0.0795612
0.0792298
0.0788687
0.0784745
0.0780437
0.0775725
0.0770564
0.0764909
0.0758707
0.0751901
0.0744427
0.0736215
0.0727189
0.0717262
0.070634
0.0694317
0.0681076
0.0666488
0.0650406
0.0632661
0.0613059
0.0591371
0.0567318
0.0540549
0.0510605
0.0476849
0.0438343
0.0393611
0.0340195
0.0274118
0.0192449
0.0100006
0.083396
0.0832732
0.0831507
0.083028
0.0829047
0.0827801
0.0826538
0.082525
0.0823931
0.0822573
0.0821168
0.0819707
0.081818
0.0816577
0.0814886
0.0813095
0.0811191
0.0809158
0.0806981
0.0804643
0.0802125
0.0799407
0.0796465
0.0793275
0.0789811
0.0786043
0.0781939
0.0777463
0.0772578
0.0767239
0.07614
0.075501
0.0748012
0.0740343
0.0731935
0.072271
0.0712585
0.0701466
0.068925
0.067582
0.066105
0.0644795
0.0626887
0.0607133
0.0585304
0.056112
0.0534229
0.0504166
0.0470288
0.0431664
0.0386866
0.0333678
0.0269029
0.0194159
0.0114483
0.0833636
0.0832364
0.0831093
0.0829816
0.0828528
0.0827225
0.08259
0.0824547
0.0823158
0.0821726
0.0820243
0.0818698
0.0817084
0.0815388
0.0813599
0.0811706
0.0809693
0.0807548
0.0805252
0.080279
0.0800142
0.0797288
0.0794205
0.0790869
0.0787252
0.0783325
0.0779057
0.0774412
0.0769352
0.0763833
0.0757811
0.0751232
0.0744043
0.073618
0.0727575
0.0718154
0.0707833
0.0696521
0.0684115
0.0670503
0.0655559
0.0639139
0.062108
0.060119
0.0579243
0.055496
0.0527993
0.0497883
0.0464008
0.0425487
0.0381047
0.0328917
0.0267411
0.0201332
0.0136022
0.0833293
0.0831977
0.0830657
0.0829327
0.0827984
0.0826621
0.0825232
0.0823811
0.082235
0.0820842
0.0819278
0.0817648
0.0815943
0.0814152
0.0812263
0.0810264
0.0808142
0.080588
0.0803464
0.0800875
0.0798095
0.0795103
0.0791877
0.0788391
0.078462
0.0780533
0.0776099
0.0771283
0.0766047
0.0760348
0.0754141
0.0747375
0.0739994
0.0731938
0.072314
0.0713526
0.0703013
0.0691513
0.0678924
0.0665138
0.065003
0.063346
0.0615267
0.0595263
0.0573227
0.0548887
0.0521905
0.0491843
0.0458123
0.0419961
0.0376314
0.0325932
0.0269174
0.0212594
0.0159659
0.0832932
0.0831569
0.0830197
0.0828814
0.0827413
0.0825988
0.0824533
0.0823042
0.0821506
0.0819919
0.0818271
0.0816553
0.0814755
0.0812867
0.0810875
0.0808769
0.0806533
0.0804153
0.0801613
0.0798896
0.0795981
0.0792849
0.0789478
0.0785841
0.0781913
0.0777665
0.0773065
0.0768077
0.0762664
0.0756785
0.0750394
0.074344
0.073587
0.0727624
0.0718635
0.0708831
0.0698132
0.0686451
0.0673688
0.0659738
0.0644479
0.0627776
0.060947
0.0589381
0.0567293
0.0542949
0.0516027
0.0486128
0.0452738
0.0415212
0.0372785
0.0324893
0.0273881
0.0226067
0.0182363
0.083255
0.0831137
0.0829714
0.0828274
0.0826812
0.0825323
0.08238
0.0822236
0.0820623
0.0818955
0.0817221
0.0815413
0.0813519
0.0811531
0.0809434
0.0807217
0.0804866
0.0802366
0.07997
0.0796851
0.07938
0.0790526
0.0787007
0.0783218
0.0779132
0.0774721
0.0769953
0.0764793
0.0759204
0.0753145
0.074657
0.0739431
0.0731674
0.072324
0.0714065
0.0704077
0.0693199
0.0681344
0.0668418
0.0654317
0.0638925
0.0622108
0.0603716
0.0583575
0.0561482
0.0537196
0.0510425
0.0480818
0.0447951
0.0411338
0.0370505
0.032588
0.0280949
0.0240324
0.0202793
0.0832146
0.0830682
0.0829203
0.0827705
0.082618
0.0824625
0.0823031
0.0821392
0.08197
0.0817948
0.0816125
0.0814224
0.0812233
0.0810141
0.0807937
0.0805608
0.0803139
0.0800516
0.0797722
0.0794739
0.079155
0.0788132
0.0784464
0.0780521
0.0776276
0.0771702
0.0766765
0.0761433
0.0755668
0.0749429
0.0742673
0.073535
0.0727409
0.0718792
0.0709436
0.069927
0.0688221
0.0676203
0.0663127
0.0648891
0.0633384
0.0616478
0.0598031
0.057788
0.0555836
0.0531683
0.0505166
0.0475993
0.0443842
0.0408394
0.036955
0.0328747
0.0289526
0.025446
0.0220965
0.0831718
0.0830201
0.0828665
0.0827105
0.0825516
0.0823891
0.0822224
0.0820508
0.0818734
0.0816895
0.0814982
0.0812985
0.0810894
0.0808697
0.0806383
0.0803938
0.0801349
0.0798601
0.0795677
0.079256
0.078923
0.0785667
0.0781848
0.077775
0.0773345
0.0768606
0.0763502
0.0757997
0.0752057
0.0745641
0.0738705
0.0731202
0.0723082
0.0714286
0.0704755
0.069442
0.0683209
0.0671041
0.0657829
0.0643478
0.0627878
0.0610913
0.0592448
0.0572334
0.0550403
0.0526465
0.0500311
0.0471716
0.0440463
0.0406402
0.0369961
0.0333195
0.0298861
0.0267945
0.0237269
0.0831264
0.0829691
0.0828096
0.0826473
0.0824816
0.082312
0.0821378
0.0819581
0.0817723
0.0815796
0.0813789
0.0811694
0.08095
0.0807196
0.0804769
0.0802208
0.0799497
0.0796621
0.0793565
0.079031
0.0786838
0.0783129
0.0779159
0.0774904
0.077034
0.0765436
0.0760164
0.0754488
0.0748374
0.0741783
0.073467
0.0726992
0.0718696
0.0709729
0.0700031
0.0689536
0.0678176
0.0665872
0.0652543
0.0638096
0.0622433
0.0605442
0.0587002
0.056698
0.054523
0.0521596
0.0495916
0.0468035
0.0437834
0.0405389
0.0371674
0.0338778
0.0308455
0.0280607
0.0252112
0.0830783
0.0829152
0.0827495
0.0825806
0.082408
0.082231
0.0820489
0.0818611
0.0816666
0.0814647
0.0812545
0.0810349
0.080805
0.0805636
0.0803095
0.0800414
0.0797579
0.0794574
0.0791384
0.0787991
0.0784376
0.0780518
0.0776396
0.0771985
0.076726
0.0762193
0.0756753
0.0750908
0.0744623
0.0737859
0.0730574
0.0722724
0.0714259
0.0705128
0.0695273
0.0684631
0.0673134
0.0660712
0.0647286
0.0632771
0.0617074
0.0600096
0.0581729
0.0561857
0.0540362