/*--------------------------------*- C++ -*----------------------------------*\
  =========                 |
  \\      /  F ield         | OpenFOAM: The Open Source CFD Toolbox
   \\    /   O peration     | Website:  https://openfoam.org
    \\  /    A nd           | Version:  10
     \\/     M anipulation  |
\*---------------------------------------------------------------------------*/
FoamFile
{
    format      ascii;
    class       volScalarField;
    location    "3000";
    object      k;
}
// * * * * * * * * * * * * * * * * * * * * * * * * * * * * * * * * * * * * * //

dimensions      [0 2 -2 0 0 0 0];

internalField   nonuniform List<scalar> 
420
(
2.22045e-16
2.22045e-16
2.22045e-16
2.22045e-16
2.22045e-16
2.22045e-16
2.22045e-16
2.22045e-16
2.22045e-16
2.22045e-16
2.22045e-16
2.22045e-16
2.22045e-16
2.22045e-16
2.22045e-16
2.22045e-16
2.22045e-16
2.22045e-16
2.22045e-16
2.22045e-16
2.22045e-16
2.22045e-16
2.22045e-16
2.22045e-16
2.22045e-16
2.22045e-16
2.22045e-16
2.22045e-16
2.22045e-16
2.22045e-16
2.22045e-16
2.22045e-16
2.22045e-16
2.22045e-16
2.22045e-16
2.22045e-16
2.22045e-16
2.22045e-16
2.22045e-16
2.22045e-16
2.22045e-16
2.22045e-16
2.22045e-16
2.22045e-16
2.22045e-16
2.22045e-16
2.22045e-16
2.22045e-16
2.22045e-16
2.22045e-16
2.22045e-16
2.22045e-16
2.22045e-16
2.22045e-16
2.22045e-16
2.22045e-16
2.22045e-16
2.22045e-16
2.22045e-16
2.22045e-16
2.22045e-16
2.22045e-16
2.22045e-16
2.22045e-16
2.22045e-16
2.22045e-16
2.22045e-16
2.22045e-16
2.22045e-16
2.22045e-16
2.22045e-16
2.22045e-16
2.22045e-16
2.22045e-16
2.22045e-16
2.22045e-16
2.22045e-16
2.22045e-16
2.22045e-16
2.22045e-16
2.22045e-16
2.22045e-16
2.22045e-16
2.22045e-16
2.22045e-16
2.22045e-16
2.22045e-16
2.22045e-16
2.22045e-16
2.22045e-16
2.22045e-16
2.22045e-16
2.22045e-16
2.22045e-16
2.22045e-16
2.22045e-16
2.22045e-16
2.22045e-16
2.22045e-16
2.22045e-16
2.22045e-16
2.22045e-16
2.33987e-16
2.81114e-16
2.98576e-16
2.65454e-16
2.22045e-16
2.22045e-16
2.22045e-16
3.21223e-16
2.22045e-16
2.22045e-16
2.26908e-16
2.78911e-16
2.97353e-16
2.65022e-16
2.22045e-16
2.22045e-16
2.22045e-16
3.24086e-16
2.22045e-16
2.22045e-16
2.22045e-16
2.76287e-16
2.9623e-16
2.65711e-16
2.22045e-16
2.22045e-16
2.22045e-16
3.2817e-16
2.22045e-16
2.22045e-16
2.22045e-16
2.74183e-16
2.95536e-16
2.67235e-16
2.22045e-16
2.22045e-16
2.22045e-16
3.31532e-16
2.22045e-16
2.22045e-16
2.22045e-16
2.72767e-16
2.95388e-16
2.6948e-16
2.23942e-16
2.22045e-16
2.22045e-16
3.34947e-16
2.22045e-16
2.22045e-16
2.22045e-16
2.7191e-16
2.96096e-16
2.72201e-16
2.27381e-16
2.22045e-16
2.2599e-16
3.37826e-16
2.22045e-16
2.22045e-16
2.22045e-16
2.71929e-16
2.97306e-16
2.75212e-16
2.31477e-16
2.22045e-16
2.31646e-16
3.39625e-16
2.22045e-16
2.22045e-16
2.22045e-16
2.72572e-16
2.98521e-16
2.78641e-16
2.36102e-16
2.22045e-16
2.36635e-16
3.40157e-16
2.22045e-16
2.22045e-16
2.22045e-16
2.74169e-16
2.99758e-16
2.82327e-16
2.41072e-16
2.22045e-16
2.40892e-16
3.39366e-16
2.22045e-16
2.22045e-16
2.22045e-16
2.77256e-16
3.00721e-16
2.85815e-16
2.45952e-16
2.22045e-16
2.4474e-16
3.37393e-16
2.22045e-16
2.22045e-16
2.22149e-16
2.80753e-16
3.00998e-16
2.89384e-16
2.51505e-16
2.22045e-16
2.46304e-16
3.3381e-16
2.22045e-16
2.22045e-16
2.34269e-16
2.79963e-16
2.99883e-16
2.9149e-16
2.55641e-16
2.22045e-16
2.44956e-16
3.31418e-16
2.22045e-16
2.22045e-16
2.43532e-16
2.78355e-16
2.99003e-16
2.93135e-16
2.58112e-16
2.22045e-16
2.44032e-16
3.28434e-16
2.22045e-16
2.22045e-16
2.48586e-16
2.7705e-16
2.99476e-16
2.9456e-16
2.59856e-16
2.22045e-16
2.39934e-16
3.22557e-16
2.22045e-16
2.30488e-16
2.4823e-16
2.76921e-16
3.01324e-16
2.96007e-16
2.61667e-16
2.22045e-16
2.34389e-16
3.15381e-16
2.23523e-16
2.29953e-16
2.46541e-16
2.77487e-16
3.03762e-16
2.96664e-16
2.61591e-16
2.22045e-16
2.29035e-16
3.0841e-16
2.23959e-16
2.29237e-16
2.46218e-16
2.79887e-16
3.07629e-16
2.97043e-16
2.59619e-16
2.22045e-16
2.23541e-16
3.01633e-16
2.24826e-16
2.30462e-16
2.47745e-16
2.84191e-16
3.12627e-16
2.97378e-16
2.56209e-16
2.22045e-16
2.22045e-16
2.95781e-16
2.26499e-16
2.32933e-16
2.50649e-16
2.90148e-16
3.18723e-16
2.97707e-16
2.52419e-16
2.22045e-16
2.22045e-16
2.9194e-16
2.2844e-16
2.35278e-16
2.53083e-16
2.95969e-16
3.24441e-16
2.97262e-16
2.47452e-16
2.22045e-16
2.22045e-16
2.90626e-16
2.29865e-16
2.35192e-16
2.52241e-16
2.97586e-16
3.24393e-16
2.9272e-16
2.39312e-16
2.22045e-16
2.22045e-16
2.91709e-16
2.26227e-16
2.29087e-16
2.44329e-16
2.89997e-16
3.13995e-16
2.84139e-16
2.29632e-16
2.22045e-16
2.22045e-16
2.9902e-16
2.22045e-16
2.22045e-16
2.22045e-16
2.22045e-16
2.22045e-16
2.22045e-16
2.2257e-16
2.24712e-16
2.2747e-16
2.26127e-16
2.22045e-16
2.22045e-16
2.22045e-16
2.22045e-16
2.22045e-16
2.22045e-16
2.22045e-16
2.22045e-16
2.24427e-16
2.25717e-16
2.22045e-16
2.22045e-16
2.22045e-16
2.22045e-16
2.22045e-16
2.22045e-16
2.22045e-16
2.22045e-16
2.22045e-16
2.22045e-16
2.22045e-16
2.22045e-16
2.22045e-16
2.22045e-16
2.22045e-16
2.22045e-16
2.22045e-16
2.22045e-16
2.22045e-16
2.22045e-16
2.22045e-16
2.22045e-16
2.22045e-16
2.22045e-16
2.22045e-16
2.22045e-16
2.22045e-16
2.22045e-16
2.22045e-16
2.22045e-16
2.22045e-16
2.22045e-16
2.22045e-16
2.22045e-16
2.22045e-16
2.22045e-16
2.22045e-16
2.22045e-16
2.22045e-16
2.22045e-16
2.22045e-16
2.22045e-16
2.22045e-16
2.22045e-16
2.22045e-16
2.22045e-16
2.22045e-16
2.22045e-16
2.22045e-16
2.22045e-16
2.22045e-16
2.22045e-16
2.22045e-16
2.22045e-16
2.22045e-16
2.22045e-16
2.22045e-16
2.22045e-16
2.22045e-16
2.22045e-16
2.22045e-16
2.22045e-16
2.22045e-16
2.22045e-16
2.22045e-16
2.22045e-16
2.22045e-16
2.22045e-16
2.22045e-16
2.22045e-16
2.22045e-16
2.22045e-16
2.22045e-16
2.22045e-16
2.22045e-16
2.22045e-16
2.22045e-16
2.22045e-16
2.22045e-16
2.22045e-16
)
;

boundaryField
{
    right
    {
        type            cyclic;
    }
    left
    {
        type            cyclic;
    }
    outerWall
    {
        type            kqRWallFunction;
        value           nonuniform List<scalar> 
22
(
3.21223e-16
3.24086e-16
3.2817e-16
3.31532e-16
3.34947e-16
3.37826e-16
3.39625e-16
3.40157e-16
3.39366e-16
3.37393e-16
3.3381e-16
3.31418e-16
3.28434e-16
3.22557e-16
3.15381e-16
3.0841e-16
3.01633e-16
2.95781e-16
2.9194e-16
2.90626e-16
2.91709e-16
2.9902e-16
)
;
    }
    stirrerWall
    {
        type            kqRWallFunction;
        value           uniform 2.22045e-16;
    }
    top
    {
        type            empty;
    }
    bottom
    {
        type            empty;
    }
}


// ************************************************************************* //
