/*--------------------------------*- C++ -*----------------------------------*\
  =========                 |
  \\      /  F ield         | OpenFOAM: The Open Source CFD Toolbox
   \\    /   O peration     | Website:  https://openfoam.org
    \\  /    A nd           | Version:  10
     \\/     M anipulation  |
\*---------------------------------------------------------------------------*/
FoamFile
{
    format      ascii;
    class       volScalarField;
    location    "3000";
    object      nut;
}
// * * * * * * * * * * * * * * * * * * * * * * * * * * * * * * * * * * * * * //

dimensions      [0 2 -1 0 0 0 0];

internalField   nonuniform List<scalar> 
420
(
1.04478e-20
6.45628e-20
1.82646e-19
3.33751e-19
4.95775e-19
6.43128e-19
7.12878e-19
6.76536e-19
5.91994e-19
5.14393e-19
1.04473e-20
6.51058e-20
1.88942e-19
3.55472e-19
5.34487e-19
6.83396e-19
7.23871e-19
6.59527e-19
5.60543e-19
4.76391e-19
1.04471e-20
6.52161e-20
1.93202e-19
3.75939e-19
5.69082e-19
7.11901e-19
7.32658e-19
6.46751e-19
5.31942e-19
4.36931e-19
1.04472e-20
6.49833e-20
1.93951e-19
3.82116e-19
5.79318e-19
7.19355e-19
7.33345e-19
6.35679e-19
5.04596e-19
3.95364e-19
1.04476e-20
6.46624e-20
1.90098e-19
3.66217e-19
5.47517e-19
6.81365e-19
7.06863e-19
6.17117e-19
4.75255e-19
3.50363e-19
1.04483e-20
6.39169e-20
1.75987e-19
3.13161e-19
4.48744e-19
5.57262e-19
6.01395e-19
5.54365e-19
4.32338e-19
2.98923e-19
1.04493e-20
6.05748e-20
1.39916e-19
2.15323e-19
2.87099e-19
3.53033e-19
3.97924e-19
3.99021e-19
3.42179e-19
2.36152e-19
1.04506e-20
4.77618e-20
8.02612e-20
1.06555e-19
1.33462e-19
1.61453e-19
1.87253e-19
2.04381e-19
2.01552e-19
1.55236e-19
1.04522e-20
2.14804e-20
2.79897e-20
3.48133e-20
4.23067e-20
5.04877e-20
5.90926e-20
6.7612e-20
7.43405e-20
7.13109e-20
2.82342e-21
3.6643e-21
4.61494e-21
5.67535e-21
6.84552e-21
8.12545e-21
9.51514e-21
1.10146e-20
1.26238e-20
1.43428e-20
4.68336e-19
4.68161e-19
5.71891e-19
8.8511e-19
1.11567e-18
9.92738e-19
6.84052e-19
4.49974e-19
2.17094e-19
8.74184e-20
4.26866e-19
4.27453e-19
5.23094e-19
8.64588e-19
1.11078e-18
9.9407e-19
6.9002e-19
4.55061e-19
2.167e-19
8.89973e-20
3.8095e-19
3.81081e-19
4.75273e-19
8.38529e-19
1.10506e-18
9.99754e-19
6.96505e-19
4.60451e-19
2.16889e-19
8.89175e-20
3.31483e-19
3.31484e-19
4.34991e-19
8.11287e-19
1.09983e-18
1.00958e-18
7.04392e-19
4.69126e-19
2.17529e-19
8.92332e-20
2.79046e-19
2.80635e-19
3.93019e-19
7.84673e-19
1.07472e-18
1.02186e-18
7.18761e-19
4.80229e-19
2.18598e-19
8.92609e-20
2.24186e-19
2.30692e-19
3.51603e-19
7.60215e-19
1.03217e-18
1.03537e-18
7.37909e-19
4.93611e-19
2.24658e-19
8.90517e-20
1.68122e-19
1.83748e-19
3.13028e-19
7.41004e-19
1.02794e-18
1.04899e-18
7.58429e-19
5.08755e-19
2.33664e-19
8.87134e-20
1.13748e-19
1.41567e-19
2.79437e-19
7.28842e-19
1.0407e-18
1.05531e-18
7.79316e-19
5.24256e-19
2.43121e-19
8.82823e-20
6.57175e-20
1.05449e-19
2.53196e-19
7.27634e-19
1.06898e-18
1.07547e-18
7.54061e-19
5.38408e-19
2.52088e-19
8.78197e-20
2.99824e-20
7.68283e-20
2.43454e-19
7.49082e-19
1.08227e-18
1.08383e-18
7.66369e-19
5.49509e-19
2.56233e-19
8.70033e-20
1.03958e-20
6.11715e-20
2.75883e-19
8.11499e-19
9.99532e-19
1.04358e-18
6.97941e-19
5.53803e-19
2.57338e-19
8.66907e-20
1.03958e-20
7.43684e-20
3.6132e-19
7.48979e-19
9.01766e-19
8.90348e-19
5.9784e-19
5.60819e-19
2.75184e-19
8.69648e-20
5.09693e-20
1.91399e-19
5.55487e-19
7.73179e-19
9.39747e-19
8.99442e-19
6.20093e-19
5.63656e-19
2.6126e-19
8.63128e-20
2.39666e-19
4.73828e-19
6.86219e-19
8.08094e-19
9.95316e-19
9.6552e-19
6.43543e-19
5.59542e-19
2.49047e-19
8.47991e-20
5.60494e-19
6.75436e-19
6.79144e-19
7.85716e-19
9.77878e-19
9.45709e-19
6.24626e-19
5.53828e-19
2.5626e-19
8.37897e-20
7.06047e-19
7.08522e-19
6.81526e-19
7.85929e-19
9.89749e-19
9.5984e-19
6.19486e-19
5.45187e-19
2.56049e-19
8.24301e-20
7.10816e-19
6.8103e-19
6.76971e-19
7.88932e-19
1.01448e-18
9.99322e-19
6.24161e-19
5.33363e-19
2.5703e-19
8.10227e-20
6.77099e-19
6.46933e-19
6.70096e-19
8.2076e-19
1.09977e-18
1.02981e-18
6.36209e-19
5.1908e-19
2.61093e-19
8.01255e-20
6.35794e-19
6.14739e-19
6.79097e-19
8.90335e-19
1.12574e-18
1.05584e-18
6.43759e-19
5.0242e-19
2.55455e-19
8.02545e-20
5.94928e-19
5.85399e-19
6.66926e-19
9.10273e-19
1.15558e-18
9.72497e-19
6.10803e-19
4.83663e-19
2.46308e-19
8.11547e-20
5.56818e-19
5.55818e-19
6.5195e-19
9.25393e-19
1.08264e-18
8.04495e-19
5.07057e-19
4.63843e-19
2.33252e-19
8.14563e-20
5.14041e-19
5.18133e-19
6.25324e-19
9.19315e-19
1.15941e-18
9.21636e-19
6.23623e-19
4.47019e-19
2.20329e-19
8.34953e-20
1.43428e-20
1.13075e-19
4.0658e-19
6.74314e-19
7.48211e-19
7.33634e-19
6.92825e-19
6.48831e-19
6.05678e-19
5.60484e-19
1.26238e-20
8.57141e-20
2.99965e-19
5.87204e-19
7.41703e-19
7.77678e-19
7.61315e-19
7.23449e-19
6.8238e-19
6.32683e-19
1.10146e-20
6.98642e-20
2.21593e-19
4.53928e-19
6.50439e-19
7.45652e-19
7.7442e-19
7.68153e-19
7.40635e-19
6.86155e-19
9.51514e-21
5.41534e-20
1.55433e-19
3.20234e-19
5.05082e-19
6.35369e-19
7.03759e-19
7.29553e-19
7.2769e-19
7.13469e-19
8.12545e-21
4.55126e-20
1.22399e-19
2.34075e-19
3.64364e-19
4.90176e-19
5.78166e-19
6.22339e-19
6.33205e-19
6.2735e-19
6.84552e-21
3.89771e-20
1.03834e-19
1.91179e-19
2.87155e-19
3.76817e-19
4.44807e-19
4.80681e-19
4.89819e-19
4.84227e-19
5.67535e-21
3.29299e-20
8.88018e-20
1.60174e-19
2.29774e-19
2.84884e-19
3.1936e-19
3.33366e-19
3.33923e-19
3.28237e-19
4.61494e-21
2.68815e-20
7.12264e-20
1.19442e-19
1.54001e-19
1.7284e-19
1.80489e-19
1.82273e-19
1.81414e-19
1.79767e-19
3.6643e-21
2.07283e-20
4.34984e-20
5.56285e-20
6.07365e-20
6.28673e-20
6.37757e-20
6.43087e-20
6.4743e-20
6.47122e-20
2.82342e-21
1.04522e-20
1.04506e-20
1.04493e-20
1.04483e-20
1.04476e-20
1.04472e-20
1.04471e-20
1.04473e-20
1.04478e-20
)
;

boundaryField
{
    right
    {
        type            cyclic;
    }
    left
    {
        type            cyclic;
    }
    outerWall
    {
        type            nutkWallFunction;
        Cmu             0.09;
        kappa           0.41;
        E               9.8;
        value           uniform 0;
    }
    stirrerWall
    {
        type            nutkWallFunction;
        Cmu             0.09;
        kappa           0.41;
        E               9.8;
        value           uniform 0;
    }
    top
    {
        type            empty;
    }
    bottom
    {
        type            empty;
    }
}


// ************************************************************************* //
