/*--------------------------------*- C++ -*----------------------------------*\
  =========                 |
  \\      /  F ield         | OpenFOAM: The Open Source CFD Toolbox
   \\    /   O peration     | Website:  https://openfoam.org
    \\  /    A nd           | Version:  10
     \\/     M anipulation  |
\*---------------------------------------------------------------------------*/
FoamFile
{
    format      ascii;
    class       volScalarField;
    location    "3000";
    object      omega;
}
// * * * * * * * * * * * * * * * * * * * * * * * * * * * * * * * * * * * * * //

dimensions      [0 0 -1 0 0 0 0];

internalField   nonuniform List<scalar> 
420
(
21252.7
3439.2
1215.71
665.301
447.873
345.257
311.477
328.208
375.079
431.663
21253.7
3410.52
1175.2
624.647
415.435
324.913
306.746
336.672
396.124
466.097
21254.2
3404.75
1149.29
590.64
390.18
311.904
303.067
343.323
417.422
508.192
21254
3416.95
1144.85
581.091
383.286
308.672
302.783
349.303
440.044
561.62
21253.2
3433.91
1168.06
606.32
405.549
325.882
314.127
359.81
467.211
633.755
21251.7
3473.96
1261.71
709.042
494.814
398.457
369.216
400.539
513.59
742.814
21249.7
3665.63
1586.98
1031.22
773.407
628.962
558.007
556.473
648.913
940.263
21247.1
4649
2766.52
2083.85
1663.72
1375.29
1185.8
1086.42
1101.67
1430.37
21243.8
10337.1
7933.09
6378.16
5248.45
4397.99
3757.57
3284.1
2986.86
3113.76
78643.9
60596.7
48114.3
39124.4
32436.5
27327.1
23335.9
20159.1
17589.3
15481.3
474.114
474.291
409.146
317.603
267.621
267.396
324.602
493.461
1022.8
3581.27
520.175
519.46
433.78
322.594
267.698
266.603
321.794
487.945
1024.67
3581.17
582.87
582.671
467.193
329.49
268.067
265.776
318.798
482.232
1023.77
3581.13
669.852
669.85
510.458
337.96
268.71
264.7
315.229
473.316
1020.76
3581.18
795.726
791.223
564.972
347.619
269.743
263.715
311.567
462.373
1015.77
3581.3
990.446
962.516
631.52
357.675
271.048
262.902
308.142
449.837
1005.93
3581.49
1320.73
1208.42
709.343
366.973
272.519
262.359
305.206
436.447
991.365
3581.76
1952.08
1568.48
794.615
373.979
274.071
262.174
302.961
423.542
973.324
3582.1
3378.78
2105.7
876.968
376.796
275.737
262.514
301.625
412.41
955.584
3582.51
7405.83
2890.14
912.058
370.128
277.562
263.709
301.486
404.078
947.254
3582.99
21359.1
3629.87
805.227
345.968
278.267
265.929
303.179
400.945
948.072
3575.63
21359.1
2985.74
648.369
331.027
278.917
267.1
304.325
395.929
890.154
3575.63
4356.44
1160.12
438.412
314.643
278.593
267.362
304.739
393.936
844.676
3582.99
926.475
468.619
342.158
308.713
279.911
267.939
305.917
396.833
843.055
3582.51
396.159
337.421
326.876
311.375
281.993
269.212
308.547
400.927
835.544
3582.1
316.584
324.553
332.597
315.943
283.5
270.201
311.417
407.281
834.759
3581.76
315.073
336.603
343.853
320.554
284.339
270.996
314.617
416.31
839.707
3581.49
332.043
356.238
356.684
324.15
284.267
271.695
318.356
427.766
850.443
3581.3
356.246
378.913
369.091
325.886
283.123
272.429
322.859
441.95
869.212
3581.18
383.979
401.91
379.476
325.143
280.76
273.216
327.885
459.09
901.49
3581.13
412.819
423.146
386.901
321.578
276.337
273.23
332.066
478.707
951.95
3581.17
440.095
442.14
390.723
315.448
270.822
271.131
331.58
496.723
1007.79
3581.27
15481.3
1963.68
546.128
329.29
296.768
302.664
321.251
346.333
375.562
403.449
17589.3
2590.52
740.235
378.139
299.371
285.522
291.659
306.925
328.888
353.422
20159.1
3178.23
1002.04
489.162
341.376
297.786
286.724
289.063
299.803
315.473
23335.9
4100.29
1428.56
693.383
439.621
349.474
315.512
304.357
305.136
311.218
27327.1
4878.75
1814.11
948.606
609.403
452.99
384.05
356.79
350.668
353.941
32436.5
5696.79
2138.46
1161.45
773.258
589.264
499.193
461.937
453.32
458.555
39124.4
6742.94
2500.45
1386.27
966.36
779.422
695.279
666.068
664.958
676.477
48114.3
8260.13
3117.45
1859.01
1441.84
1284.68
1230.24
1218.2
1223.97
1235.18
60596.7
10712.2
5104.66
3991.56
3655.87
3531.96
3481.65
3452.79
3429.63
3431.26
78643.9
21243.8
21247.1
21249.7
21251.7
21253.2
21254
21254.2
21253.7
21252.7
)
;

boundaryField
{
    right
    {
        type            cyclic;
    }
    left
    {
        type            cyclic;
    }
    outerWall
    {
        beta1           0.075;
        blended         0;
        type            omegaWallFunction;
        value           nonuniform List<scalar> 
22
(
3581.27
3581.17
3581.13
3581.18
3581.3
3581.49
3581.76
3582.1
3582.51
3582.99
3575.63
3575.63
3582.99
3582.51
3582.1
3581.76
3581.49
3581.3
3581.18
3581.13
3581.17
3581.27
)
;
    }
    stirrerWall
    {
        beta1           0.075;
        blended         0;
        type            omegaWallFunction;
        value           nonuniform List<scalar> 
42
(
21252.7
21253.7
21254.2
21254
21253.2
21251.7
21249.7
21247.1
21243.8
78643.9
78643.9
60596.7
48114.3
39124.4
32436.5
27327.1
23335.9
20159.1
17589.3
15481.3
21359.1
21359.1
15481.3
17589.3
20159.1
23335.9
27327.1
32436.5
39124.4
48114.3
60596.7
78643.9
78643.9
21243.8
21247.1
21249.7
21251.7
21253.2
21254
21254.2
21253.7
21252.7
)
;
    }
    top
    {
        type            empty;
    }
    bottom
    {
        type            empty;
    }
}


// ************************************************************************* //
