/*--------------------------------*- C++ -*----------------------------------*\
  =========                 |
  \\      /  F ield         | OpenFOAM: The Open Source CFD Toolbox
   \\    /   O peration     | Website:  https://openfoam.org
    \\  /    A nd           | Version:  10
     \\/     M anipulation  |
\*---------------------------------------------------------------------------*/
FoamFile
{
    format      ascii;
    class       volScalarField;
    location    "3000";
    object      p;
}
// * * * * * * * * * * * * * * * * * * * * * * * * * * * * * * * * * * * * * //

dimensions      [0 2 -2 0 0 0 0];

internalField   nonuniform List<scalar> 
420
(
0.413486
14.5183
29.9261
47.6974
67.2204
87.8308
108.996
130.154
150.941
170.89
-0.771554
13.7248
29.0176
46.5982
65.9634
86.5363
107.823
129.243
150.326
170.556
-1.19649
13.2096
28.2704
45.6063
64.7737
85.2894
106.704
128.396
149.79
170.314
-1.18203
12.9616
27.7417
44.7825
63.7004
84.1052
105.608
127.566
149.288
170.129
-1.0875
12.9162
27.4442
44.1635
62.7753
82.9996
104.52
126.703
148.779
169.985
-1.00079
13.0299
27.3661
43.7612
62.0202
81.9772
103.404
125.75
148.21
169.856
-0.932182
13.2721
27.4869
43.5685
61.44
81.0359
102.225
124.624
147.469
169.71
-0.895383
13.615
27.7809
43.5654
61.033
80.1805
100.961
123.182
146.313
169.294
-0.935881
14.0455
28.1966
43.7065
60.7976
79.459
99.6633
121.336
144.22
167.499
-1.07733
14.547
28.5881
43.9149
60.7766
79.077
98.7267
119.61
141.443
163.786
189.577
207.408
224.377
240.053
254.529
268.32
280.734
298.694
295.263
347.914
189.44
207.336
224.257
239.893
254.465
268.445
281.346
299.422
295.641
342.084
189.392
207.342
224.211
239.837
254.509
268.667
281.916
300.018
296.493
339.535
189.412
207.399
224.192
239.816
254.576
268.87
282.355
300.421
297.604
338.625
189.507
207.51
224.212
239.842
254.646
269.008
282.636
300.639
298.04
337.372
189.681
207.667
224.28
239.947
254.751
269.09
282.775
300.715
297.831
335.633
189.993
207.833
224.317
240.091
254.897
269.174
282.843
300.738
297.178
333.577
190.391
207.951
224.206
240.201
255.11
269.352
282.987
300.986
296.849
331.308
190.164
208.205
224.216
240.377
255.44
269.672
283.308
301.883
298.167
329.15
188.633
209.116
224.904
240.793
255.836
270.014
283.728
303.486
298.644
327.624
187.986
209.674
225.644
241.259
255.997
269.837
283.07
305.674
290.772
327.267
188.944
209.747
226.065
241.372
255.765
269.227
282.04
303.864
285.883
325.46
194.141
210.531
226.6
241.754
255.867
268.954
281.506
298.786
287.935
323.241
193.877
210.382
226.516
241.768
255.84
268.732
280.811
296.808
288.347
319.367
192.757
209.745
226.135
241.561
255.709
268.546
280.458
296.203
287.68
317.66
191.869
209.054
225.696
241.343
255.643
268.535
280.416
295.842
287.429
318.287
191.263
208.538
225.38
241.251
255.763
268.892
281.011
296.463
288.651
320.829
190.829
208.198
225.202
241.258
255.995
269.55
282.216
298.103
292.019
328.089
190.475
207.958
225.08
241.241
256.133
270.088
283.16
299.45
297.856
344.658
190.162
207.754
224.922
241.073
255.954
269.938
282.639
298.707
302.763
367.693
189.893
207.572
224.705
240.711
255.353
268.988
280.792
296.381
301.166
375.245
189.732
207.481
224.503
240.244
254.648
268.254
280.042
297.038
298.016
356.382
178.075
175.799
174.473
173.79
173.343
172.951
172.531
172.078
171.626
171.254
152.864
153.438
153.88
154.105
154.131
153.936
153.515
152.921
152.228
151.563
126.383
129.342
131.692
133.07
133.758
133.905
133.596
132.939
132.039
131.076
102.459
105.804
109.069
111.273
112.545
113.056
112.931
112.313
111.334
110.179
81.3384
84.0063
87.0933
89.5135
91.0542
91.7969
91.8385
91.3063
90.3463
89.1317
62.5008
64.2722
66.5893
68.6269
70.0555
70.815
70.9401
70.507
69.6375
68.4885
45.6264
46.6093
47.9752
49.2945
50.2888
50.8276
50.8961
50.5277
49.794
48.8083
30.5534
30.9197
31.4234
31.9341
32.3362
32.5345
32.4779
32.1562
31.5902
30.8227
17.2673
17.046
16.873
16.7661
16.703
16.6223
16.4672
16.1972
15.7855
15.2214
4.99231
3.78489
2.77717
2.16499
1.79634
1.53444
1.29131
0.993127
0.591979
0.270275
)
;

boundaryField
{
    right
    {
        type            cyclic;
    }
    left
    {
        type            cyclic;
    }
    outerWall
    {
        type            zeroGradient;
    }
    stirrerWall
    {
        type            zeroGradient;
    }
    top
    {
        type            empty;
    }
    bottom
    {
        type            empty;
    }
}


// ************************************************************************* //
