/*--------------------------------*- C++ -*----------------------------------*\
  =========                 |
  \\      /  F ield         | OpenFOAM: The Open Source CFD Toolbox
   \\    /   O peration     | Website:  https://openfoam.org
    \\  /    A nd           | Version:  10
     \\/     M anipulation  |
\*---------------------------------------------------------------------------*/
FoamFile
{
    format      ascii;
    class       surfaceScalarField;
    location    "3000";
    object      phi;
}
// * * * * * * * * * * * * * * * * * * * * * * * * * * * * * * * * * * * * * //

dimensions      [0 3 -1 0 0 0 0];

internalField   nonuniform List<scalar> 
788
(
-2.22534e-06
-9.04805e-06
4.92509e-07
2.93723e-08
1.99767e-06
4.96939e-06
2.67618e-06
6.73251e-06
2.03459e-06
6.29218e-06
-4.52793e-07
4.21154e-06
-4.78159e-06
5.85182e-07
-9.61546e-06
-5.93865e-06
-1.34975e-05
-1.721e-05
-3.31037e-05
-1.58276e-05
-4.5861e-07
-8.59841e-06
2.28865e-07
-6.42883e-07
9.15405e-07
4.34817e-06
8.81559e-07
6.8213e-06
-5.86441e-07
7.84017e-06
-3.76088e-06
7.54875e-06
-7.87251e-06
4.94254e-06
-1.1688e-05
-1.87093e-06
-1.44546e-05
-1.42692e-05
-3.14169e-05
-1.60582e-05
-1.17021e-07
-8.47172e-06
-3.31156e-07
-3.95051e-07
-2.12835e-07
4.27514e-06
-6.09834e-07
7.27561e-06
-2.08654e-06
9.43005e-06
-4.75955e-06
1.04099e-05
-7.88481e-06
8.28728e-06
-1.06406e-05
1.05638e-06
-1.29464e-05
-1.18717e-05
-2.982e-05
-1.45181e-05
-2.29333e-07
-8.23275e-06
-7.04787e-07
1.0804e-07
-6.76162e-07
4.28878e-06
-9.31719e-07
7.60258e-06
-1.88084e-06
1.05003e-05
-3.55692e-06
1.22363e-05
-5.64933e-06
1.05114e-05
-7.66945e-06
3.14842e-06
-1.00149e-05
-9.51884e-06
-2.78612e-05
-1.19984e-05
-5.11177e-07
-7.71448e-06
-1.01767e-06
6.39469e-07
-8.2882e-07
4.15108e-06
-5.7829e-07
7.43175e-06
-5.88319e-07
1.06135e-05
-9.45448e-07
1.26823e-05
-1.87331e-06
1.14779e-05
-3.5264e-06
4.77187e-06
-6.17086e-06
-6.95677e-06
-2.52744e-05
-8.83319e-06
-8.2429e-07
-6.88333e-06
-1.25211e-06
1.09671e-06
-7.76728e-07
3.73695e-06
1.62389e-07
6.56947e-06
1.28774e-06
9.55681e-06
2.31143e-06
1.16773e-05
2.62773e-06
1.11029e-05
1.34078e-06
5.9217e-06
-1.54778e-06
-4.23944e-06
-2.17914e-05
-5.15867e-06
-1.16803e-06
-5.70691e-06
-1.48123e-06
1.44557e-06
-6.54972e-07
2.9744e-06
9.4943e-07
5.02637e-06
3.0982e-06
7.4314e-06
5.40941e-06
9.31075e-06
7.03888e-06
9.32151e-06
6.48671e-06
6.23876e-06
3.51521e-06
-1.52008e-06
-1.71633e-05
-1.2999e-06
-1.57053e-06
-4.12561e-06
-1.64887e-06
1.56431e-06
-4.75265e-07
1.86109e-06
1.59216e-06
3.00036e-06
4.44284e-06
4.56161e-06
7.68062e-06
5.95666e-06
1.03485e-05
6.43233e-06
1.10066e-05
5.27692e-06
8.31264e-06
8.5526e-07
-1.13016e-05
2.21675e-06
-2.02035e-06
-2.09173e-06
-1.44612e-06
1.03086e-06
-1.08158e-07
5.74464e-07
1.98102e-06
9.26301e-07
4.99142e-06
1.4893e-06
8.63691e-06
2.155e-06
1.20554e-05
2.77666e-06
1.40359e-05
3.00464e-06
1.24571e-05
2.14171e-06
-4.01272e-06
4.96574e-06
-2.07858e-06
-1.0258e-06
-4.42719e-07
4.61476e-07
1.88681e-06
3.94197e-06
6.599e-06
9.4778e-06
1.15099e-05
7.44149e-06
-1.6684e-05
-5.36812e-05
-1.63366e-05
-8.63437e-05
-1.53691e-05
-0.000129786
-1.46125e-05
-0.000183413
-1.41982e-05
-0.000250086
-1.34655e-05
-0.000330907
-1.32286e-05
-0.000426184
-2.33754e-05
-0.000581976
-1.20719e-05
-0.000584314
-0.00113698
-1.65151e-05
-5.32104e-05
-1.60504e-05
-8.68107e-05
-1.53814e-05
-0.000130409
-1.49662e-05
-0.00018374
-1.48277e-05
-0.000250237
-1.45163e-05
-0.000331253
-1.2981e-05
-0.000427428
-2.0753e-05
-0.00057398
-1.24684e-05
-0.000593097
-0.00114928
-1.51582e-05
-5.25818e-05
-1.5069e-05
-8.69063e-05
-1.4912e-05
-0.000130533
-1.50591e-05
-0.000183571
-1.55009e-05
-0.000250024
-1.57659e-05
-0.000331311
-1.41552e-05
-0.000428763
-2.12729e-05
-0.000566948
-1.20308e-05
-0.000602007
-0.00116131
-1.30985e-05
-5.15043e-05
-1.34116e-05
-8.65837e-05
-1.3682e-05
-0.000130212
-1.42399e-05
-0.000182982
-1.50084e-05
-0.000249445
-1.55396e-05
-0.000331038
-1.43263e-05
-0.000429659
-2.0337e-05
-0.000561165
-1.16479e-05
-0.000610517
-0.00117304
-1.04695e-05
-4.9902e-05
-1.11314e-05
-8.59016e-05
-1.17849e-05
-0.000129508
-1.27396e-05
-0.000182031
-1.3806e-05
-0.000248564
-1.45091e-05
-0.000330536
-1.36312e-05
-0.000430425
-1.8852e-05
-0.000556205
-1.16902e-05
-0.000617615
-0.00118483
-7.32718e-06
-4.77763e-05
-8.27502e-06
-8.49168e-05
-9.2755e-06
-0.00012844
-1.05959e-05
-0.000180713
-1.19397e-05
-0.000247354
-1.28328e-05
-0.000329711
-1.23845e-05
-0.00043087
-1.68379e-05
-0.00055201
-1.14005e-05
-0.000622977
-0.00119631
-3.8105e-06
-4.5326e-05
-4.991e-06
-8.36904e-05
-6.33989e-06
-0.000127013
-7.97311e-06
-0.000179069
-9.57343e-06
-0.000245817
-1.07401e-05
-0.000328463
-1.07561e-05
-0.00043084
-1.39019e-05
-0.000549093
-1.06308e-05
-0.000626105
-0.00120699
-1.28634e-07
-4.30631e-05
-1.38559e-06
-8.23861e-05
-2.96695e-06
-0.000125365
-4.75329e-06
-0.00017728
-6.55491e-06
-0.000244032
-8.05319e-06
-0.000326765
-8.6071e-06
-0.000430227
-1.02712e-05
-0.000547649
-8.8525e-06
-0.000627332
-0.0012158
3.90872e-06
-4.20677e-05
2.72962e-06
-8.11565e-05
1.13696e-06
-0.000123726
-5.59036e-07
-0.000175594
-2.3621e-06
-0.000242221
-4.1763e-06
-0.000324675
-5.32286e-06
-0.000428963
-6.21962e-06
-0.000546986
-5.11466e-06
-0.000628408
-0.00122064
9.08372e-06
-4.36898e-05
7.35743e-06
-7.93703e-05
5.29561e-06
-0.000121592
4.06169e-06
-0.000174338
3.07809e-06
-0.000241234
1.31516e-06
-0.000322732
-2.78974e-06
-0.000424751
-4.94155e-07
-0.000549157
-1.22252e-06
-0.000628037
-0.00122178
4.86695e-06
-4.85337e-05
4.71997e-06
-7.91572e-05
3.76946e-06
-0.000120586
2.95117e-06
-0.000173562
2.43995e-06
-0.000240727
3.05195e-06
-0.000323075
6.89073e-06
-0.000428581
3.38092e-06
-0.000545536
-1.35363e-05
-0.000611258
-0.00123531
6.83933e-06
-5.53307e-05
7.5051e-06
-7.97793e-05
6.7564e-06
-0.000119826
6.00861e-06
-0.000172918
5.30278e-06
-0.000240052
5.91709e-06
-0.000323342
1.06773e-05
-0.000433394
1.02396e-05
-0.000545164
-9.77528e-06
-0.000591311
-0.001245
9.87286e-06
-4.8261e-05
-1.69011e-05
8.53089e-06
-7.87068e-05
7.35027e-06
-0.000118625
6.21841e-06
-0.000171829
5.406e-06
-0.000239246
4.77878e-06
-0.000322448
2.90814e-06
-0.000431647
1.71538e-05
-0.000559278
1.05055e-05
-0.000584847
-0.00123459
1.05388e-05
-5.09118e-05
-8.05176e-06
1.06194e-05
-7.90869e-05
1.07061e-05
-0.000118642
1.05008e-05
-0.000171686
1.01798e-05
-0.000238919
9.23887e-06
-0.000321103
7.13794e-06
-0.000429714
1.17307e-05
-0.000564029
3.01684e-06
-0.000575975
-0.00123168
1.04645e-05
-5.40743e-05
-7.52985e-06
1.14722e-05
-8.03251e-05
1.20857e-05
-0.000119142
1.22673e-05
-0.000171909
1.22364e-05
-0.00023891
1.17935e-05
-0.000320215
1.02294e-05
-0.000428063
1.56344e-05
-0.000569728
4.60517e-06
-0.000564855
-0.00122717
1.08095e-05
-5.62282e-05
-8.84718e-06
1.19993e-05
-8.16605e-05
1.29596e-05
-0.000119936
1.35589e-05
-0.000172486
1.39325e-05
-0.000239285
1.40299e-05
-0.00031995
1.25268e-05
-0.000426546
1.78505e-05
-0.000575309
8.51309e-06
-0.00055532
-0.0012187
1.07247e-05
-5.7561e-05
-9.53001e-06
1.19941e-05
-8.29529e-05
1.33493e-05
-0.000121072
1.44851e-05
-0.000173542
1.53691e-05
-0.000240115
1.59578e-05
-0.000320118
1.44689e-05
-0.000424986
1.82227e-05
-0.000579255
1.25596e-05
-0.000549346
-0.00120616
9.43075e-06
-5.8254e-05
-8.80147e-06
1.08521e-05
-8.42663e-05
1.27482e-05
-0.000122705
1.46224e-05
-0.000175304
1.62508e-05
-0.000241667
1.74964e-05
-0.000320905
1.62806e-05
-0.000423616
1.78657e-05
-0.000580978
1.44048e-05
-0.00054552
-0.00119177
6.51562e-06
-5.84624e-05
-6.29136e-06
8.11344e-06
-8.56608e-05
1.07107e-05
-0.000125027
1.35707e-05
-0.000178053
1.62527e-05
-0.000244287
1.86468e-05
-0.000322854
1.87785e-05
-0.000423576
1.9202e-05
-0.000581533
1.74267e-05
-0.000543432
-0.0011744
1.98272e-06
-5.81549e-05
-2.21592e-06
3.42094e-06
-8.68573e-05
6.39294e-06
-0.000127753
1.00181e-05
-0.000181607
1.34876e-05
-0.000247742
1.67583e-05
-0.000325735
1.9297e-05
-0.00042599
2.36224e-05
-0.00058613
2.28579e-05
-0.000542536
-0.00115156
-4.04276e-06
-5.69864e-05
2.97081e-06
-3.5532e-06
-8.7112e-05
-1.85666e-06
-0.000129276
-2.82544e-07
-0.000183197
1.79965e-06
-0.000249887
5.52607e-06
-0.000329122
7.16724e-06
-0.000427519
1.50751e-05
-0.000594754
3.3961e-05
-0.000562078
-0.00111669
-1.43184e-05
1.2183e-05
-1.51841e-05
-1.54529e-05
-1.57396e-05
-1.58547e-05
-1.52335e-05
-1.81775e-05
-2.14128e-05
-7.76484e-06
-1.96668e-05
2.65519e-06
-2.95059e-05
1.50056e-06
-3.53448e-05
-2.1118e-06
-3.89743e-05
-5.50349e-06
-4.11741e-05
-7.4875e-06
-4.2362e-05
-7.62227e-06
-4.25912e-05
-5.95722e-06
-4.17608e-05
-2.89303e-06
-3.95776e-05
9.3369e-07
8.60643e-06
-6.40761e-06
8.93935e-06
-1.37592e-05
8.40305e-06
-2.00377e-05
3.62721e-06
-2.46111e-05
-1.35569e-06
-2.75333e-05
-4.87609e-06
-2.92496e-05
-6.08131e-06
-2.97406e-05
-5.5296e-06
-2.89099e-05
-3.7114e-06
-2.64243e-05
-1.46873e-06
4.15288e-06
-6.76939e-08
8.84628e-06
-3.12992e-06
1.10213e-05
-7.91375e-06
7.92806e-06
-1.24329e-05
2.78185e-06
-1.57337e-05
-1.84942e-06
-1.77964e-05
-4.17231e-06
-1.85681e-05
-4.80286e-06
-1.80175e-05
-4.21767e-06
-1.60112e-05
-3.34843e-06
-6.60422e-08
2.34803e-06
6.36772e-06
3.2935e-06
9.74686e-06
1.51313e-06
9.38166e-06
-1.51423e-06
5.5507e-06
-4.64356e-06
1.09266e-06
-6.93768e-06
-1.97619e-06
-8.19561e-06
-3.55941e-06
-8.31708e-06
-4.02717e-06
-7.41551e-06
-4.1192e-06
-2.86545e-06
2.51911e-06
3.76385e-06
5.52002e-06
6.55313e-06
6.83016e-06
7.9055e-06
6.1604e-06
6.09348e-06
4.31123e-06
2.85562e-06
2.49192e-06
-1.91201e-07
1.10239e-06
-2.15582e-06
3.80412e-07
-3.23542e-06
2.23438e-07
-3.86043e-06
-3.79503e-06
1.95733e-06
1.75882e-06
5.11981e-06
3.29925e-06
8.00711e-06
4.98486e-06
9.42492e-06
4.66366e-06
9.40168e-06
2.87922e-06
8.53506e-06
6.88576e-07
7.41847e-06
-1.01004e-06
6.42635e-06
-2.19108e-06
5.69405e-06
-3.05955e-06
-3.46192e-06
1.31108e-06
4.27889e-07
3.88702e-06
7.20008e-07
6.99931e-06
1.95837e-06
9.37902e-06
2.35863e-06
1.05696e-05
1.75156e-06
1.06962e-05
6.14814e-07
1.0172e-05
-4.37864e-07
9.29879e-06
-1.2703e-06
8.28513e-06
-1.9914e-06
-2.35595e-06
9.52688e-07
-5.23533e-07
2.81247e-06
-1.06545e-06
5.27458e-06
-3.17506e-07
7.46609e-06
3.07819e-07
8.90401e-06
4.24388e-07
9.46931e-06
1.37338e-07
9.3439e-06
-2.4026e-07
8.7149e-06
-5.81505e-07
7.67679e-06
-9.03005e-07
-9.409e-07
6.04592e-07
-1.11127e-06
1.62312e-06
-1.95336e-06
2.96643e-06
-1.46396e-06
4.21132e-06
-7.97173e-07
5.10095e-06
-3.58213e-07
5.47822e-06
-1.54046e-07
5.39971e-06
-8.887e-08
4.93516e-06
-5.66638e-08
4.05576e-06
1.19479e-08
4.65958e-07
-1.08888e-06
-2.94638e-06
-4.34466e-06
-5.0935e-06
-5.41477e-06
-5.53969e-06
-5.60707e-06
-5.65481e-06
-5.65628e-06
)
;

boundaryField
{
    right
    {
        type            cyclic;
        value           nonuniform List<scalar> 
20
(
0.00112478
0.000574734
0.000590137
0.000424524
0.000329695
0.000249665
0.00018282
0.000128916
8.60736e-05
5.46706e-05
3.56809e-05
2.15154e-05
1.12779e-05
4.18731e-06
-1.42903e-06
-5.50432e-06
-7.31095e-06
-6.40337e-06
-2.82823e-06
5.25532e-06
)
;
    }
    left
    {
        type            cyclic;
        value           nonuniform List<scalar> 
20
(
-0.00112478
-0.000574734
-0.000590137
-0.000424524
-0.000329695
-0.000249665
-0.00018282
-0.000128916
-8.60736e-05
-5.46706e-05
-3.56809e-05
-2.15154e-05
-1.12779e-05
-4.18731e-06
1.42903e-06
5.50432e-06
7.31095e-06
6.40337e-06
2.82823e-06
-5.25532e-06
)
;
    }
    outerWall
    {
        type            calculated;
        value           uniform 0;
    }
    stirrerWall
    {
        type            calculated;
        value           uniform 0;
    }
    top
    {
        type            empty;
        value           nonuniform List<scalar> 0();
    }
    bottom
    {
        type            empty;
        value           nonuniform List<scalar> 0();
    }
}


// ************************************************************************* //
