/*--------------------------------*- C++ -*----------------------------------*\
  =========                 |
  \\      /  F ield         | OpenFOAM: The Open Source CFD Toolbox
   \\    /   O peration     | Website:  https://openfoam.org
    \\  /    A nd           | Version:  10
     \\/     M anipulation  |
\*---------------------------------------------------------------------------*/
FoamFile
{
    format      ascii;
    class       volVectorField;
    location    "3000";
    object      U;
}
// * * * * * * * * * * * * * * * * * * * * * * * * * * * * * * * * * * * * * //

dimensions      [0 1 -1 0 0 0 0];

internalField   nonuniform List<vector> 
420
(
(0.443895 8.43666 9.03449e-18)
(-0.807381 10.3672 -6.96637e-17)
(-0.275872 11.9778 -2.78698e-16)
(-0.179349 13.3351 7.44342e-17)
(-0.248133 14.4825 -4.75911e-16)
(-0.445177 15.4671 0)
(-0.827414 16.3339 0)
(-1.19442 17.05 3.82101e-16)
(-1.47552 17.4328 -4.43758e-16)
(-1.6582 17.4361 0)
(-0.159332 8.31506 3.02321e-17)
(-1.34982 10.1528 -1.74834e-16)
(-1.24639 11.8341 9.00483e-16)
(-1.32633 13.2583 -1.14352e-15)
(-1.55942 14.5169 3.7161e-16)
(-1.91569 15.6538 1.90584e-18)
(-2.34862 16.6355 2.83223e-15)
(-2.68716 17.3329 -5.82616e-16)
(-2.90334 17.5787 9.35692e-16)
(-3.00191 17.4217 0)
(-0.814871 8.30367 1.39325e-16)
(-2.08016 10.0098 -8.84628e-16)
(-2.22312 11.6732 8.94594e-16)
(-2.47428 13.1367 1.31588e-15)
(-2.82409 14.4924 -8.97631e-16)
(-3.24923 15.7443 4.1531e-15)
(-3.65531 16.7632 1.77336e-15)
(-3.95093 17.3852 3.86875e-15)
(-4.13835 17.5247 -1.36771e-15)
(-4.21565 17.2796 -3.10866e-15)
(-1.46278 8.2091 -6.51221e-17)
(-2.85382 9.85022 7.58647e-16)
(-3.13999 11.4665 -1.15275e-15)
(-3.51412 12.9495 9.18126e-16)
(-3.94061 14.3708 -1.82706e-15)
(-4.3946 15.6903 1.82319e-15)
(-4.78547 16.7211 -9.60943e-15)
(-5.05937 17.2886 0)
(-5.26178 17.4018 -3.44239e-15)
(-5.34545 17.0966 3.05755e-15)
(-2.09923 8.09733 0)
(-3.63291 9.64113 4.8766e-16)
(-4.01978 11.188 -4.93195e-16)
(-4.47403 12.6661 0)
(-4.94367 14.1177 -3.06169e-16)
(-5.39746 15.468 -2.67332e-16)
(-5.77957 16.5324 3.22691e-15)
(-6.06329 17.1086 -4.15544e-15)
(-6.31568 17.245 0)
(-6.42853 16.9005 -1.30895e-14)
(-2.73022 7.96822 2.43592e-17)
(-4.39284 9.36771 0)
(-4.84949 10.8278 0)
(-5.35415 12.2686 1.66348e-15)
(-5.84341 13.7168 -2.42486e-15)
(-6.29277 15.0835 2.68188e-15)
(-6.68442 16.1943 6.54483e-16)
(-7.00872 16.8586 9.93306e-15)
(-7.31329 17.08 -1.19199e-14)
(-7.48864 16.7198 6.84486e-15)
(-3.36165 7.81375 0)
(-5.12927 9.02675 -5.10353e-16)
(-5.62762 10.3865 -2.71674e-15)
(-6.16072 11.7609 -9.51515e-16)
(-6.66397 13.1726 -4.45222e-15)
(-7.12506 14.5371 2.70328e-15)
(-7.54898 15.7016 -6.635e-15)
(-7.9366 16.5238 7.57925e-16)
(-8.28183 16.8986 -4.05936e-15)
(-8.56639 16.5844 -1.13376e-14)
(-4.01209 7.62873 -4.81043e-17)
(-5.82635 8.62222 5.13286e-16)
(-6.34216 9.87494 3.48464e-15)
(-6.89703 11.1631 5.09753e-16)
(-7.42406 12.5042 2.55181e-15)
(-7.91635 13.8334 0)
(-8.39874 15.0362 6.4993e-15)
(-8.89535 16.0179 8.05707e-15)
(-9.30275 16.6555 1.07316e-14)
(-9.71291 16.5035 9.03821e-15)
(-4.70129 7.39197 -4.68103e-17)
(-6.42979 8.16149 5.20906e-16)
(-6.95047 9.30013 -5.50925e-16)
(-7.53944 10.4724 -2.14057e-15)
(-8.11378 11.6989 7.04389e-15)
(-8.66358 12.9471 8.97249e-15)
(-9.21571 14.1511 -2.99201e-15)
(-9.79484 15.2291 0)
(-10.3345 16.1049 0)
(-10.922 16.2666 -9.46839e-15)
(-5.5158 7.03487 -1.48066e-17)
(-6.95561 7.72393 7.46366e-16)
(-7.59142 8.74835 0)
(-8.33362 9.78803 0)
(-9.06634 10.8308 -3.5122e-15)
(-9.76224 11.8856 -9.86193e-18)
(-10.4256 12.9567 6.31664e-15)
(-11.056 14.0378 -1.36418e-14)
(-11.6826 15.0522 1.57017e-14)
(-12.3553 15.4902 1.29923e-15)
(-1.69087 17.0843 0)
(-1.66485 16.4552 0)
(-1.50391 15.6514 0)
(-1.37361 14.867 -7.44391e-16)
(-1.28199 14.1007 0)
(-1.03853 13.4566 0)
(-1.68317 12.9732 8.01144e-16)
(0.0656133 10.8598 0)
(-1.27685 16.192 0)
(-2.65931 2.73325 0)
(-2.97985 16.9442 1.31555e-15)
(-2.8507 16.2363 2.24943e-15)
(-2.64227 15.4234 1.23382e-16)
(-2.47615 14.6716 8.13533e-16)
(-2.3401 13.9227 5.78311e-17)
(-2.13296 13.2719 1.03784e-15)
(-2.51714 12.7496 8.79347e-17)
(-0.800994 11.1233 1.1283e-16)
(-2.37066 15.5914 -2.95318e-15)
(-2.81203 2.27135 -5.63746e-16)
(-4.14817 16.7227 1.1774e-15)
(-3.97239 15.968 0)
(-3.72712 15.1706 -1.80285e-15)
(-3.54618 14.4496 -1.56019e-15)
(-3.3858 13.7142 4.70068e-15)
(-3.19736 13.0529 -9.85791e-16)
(-3.42935 12.4753 1.63276e-15)
(-1.66897 11.3834 0)
(-3.71295 15.031 3.20024e-15)
(-2.53815 1.69545 -6.14196e-18)
(-5.25806 16.4671 2.63898e-15)
(-5.04026 15.6659 6.55306e-15)
(-4.75726 14.8825 -6.94636e-15)
(-4.55932 14.1845 2.78218e-15)
(-4.36768 13.4564 3.49554e-17)
(-4.17967 12.7822 0)
(-4.27523 12.1582 -1.62082e-15)
(-2.48425 11.4682 -2.89547e-15)
(-4.87079 14.3384 -3.12834e-15)
(-2.43315 1.17332 2.49872e-15)
(-6.33257 16.1904 2.4432e-15)
(-6.06166 15.3332 -2.13312e-15)
(-5.73851 14.5641 7.15171e-15)
(-5.52686 13.8816 -2.85945e-15)
(-5.30032 13.1552 2.44839e-15)
(-5.1068 12.4589 -3.91615e-15)
(-5.07457 11.8002 3.56568e-15)
(-3.2707 11.5041 3.1539e-15)
(-5.94155 13.6273 0)
(-2.36602 0.634453 -4.97387e-15)
(-7.3918 15.8968 2.99126e-15)
(-7.04248 14.9713 -1.30857e-14)
(-6.67674 14.2205 -3.79817e-15)
(-6.45456 13.5478 8.98916e-15)
(-6.18858 12.8201 7.66534e-15)
(-5.98139 12.0956 2.44152e-16)
(-5.84958 11.3952 1.67663e-16)
(-3.99288 11.4889 -3.02816e-15)
(-6.99145 12.8768 -2.55154e-15)
(-2.19103 0.123295 5.31735e-15)
(-8.46526 15.5802 3.10822e-15)
(-7.99411 14.5747 4.66094e-15)
(-7.5807 13.8477 0)
(-7.35037 13.1805 -3.00179e-15)
(-7.04189 12.4506 -4.88387e-15)
(-6.81035 11.6994 2.66887e-16)
(-6.62111 10.9458 -1.05078e-14)
(-4.63449 11.4275 -3.1967e-15)
(-7.99079 12.0908 5.74084e-15)
(-1.9515 -0.333243 -2.8439e-15)
(-9.55889 15.2062 1.24328e-14)
(-8.92854 14.1243 -4.35892e-15)
(-8.45285 13.446 0)
(-8.20891 12.7853 -1.6084e-16)
(-7.85847 12.0601 2.06314e-14)
(-7.59801 11.2887 -8.54344e-15)
(-7.38075 10.4632 -7.99836e-15)
(-5.20079 11.3172 6.31015e-15)
(-8.94557 11.332 -6.7933e-15)
(-1.67788 -0.715947 0)
(-10.5129 14.754 3.27553e-16)
(-9.86524 13.6119 -4.53344e-15)
(-9.29349 13.0211 0)
(-9.01114 12.3664 6.77921e-15)
(-8.61627 11.6599 -1.58067e-14)
(-8.32903 10.8855 8.88248e-15)
(-8.11632 9.96347 3.7082e-15)
(-5.66266 11.176 0)
(-9.86774 10.6168 -2.71617e-16)
(-1.42324 -0.984751 2.49069e-15)
(-11.0147 14.3672 4.38764e-16)
(-10.7864 13.0425 2.41213e-17)
(-10.1426 12.5194 0)
(-9.75767 11.8699 -1.35808e-14)
(-9.28669 11.195 5.079e-15)
(-8.96313 10.4752 -4.87429e-15)
(-8.88489 9.48281 4.52166e-15)
(-6.08238 11.0747 8.10914e-16)
(-10.5418 9.5936 -3.82564e-17)
(-1.28305 -1.05033 -2.46476e-15)
(-10.7493 14.169 3.03647e-15)
(-11.4487 12.5183 -5.22716e-15)
(-10.8299 12.0945 0)
(-10.3632 11.4684 0)
(-9.84078 10.8149 0)
(-9.42476 10.1492 -2.45936e-15)
(-9.15385 9.19409 9.89045e-15)
(-6.30867 11.2484 0)
(-11.8089 8.87405 0)
(-1.01894 -1.34986 0)
(-11.2583 13.3787 -2.93024e-15)
(-11.9564 12.1572 -5.21315e-15)
(-11.4287 11.7117 0)
(-10.9105 11.0783 3.68548e-15)
(-10.3485 10.4214 -2.80735e-15)
(-9.89628 9.70741 2.48262e-15)
(-9.45071 8.66788 3.86962e-15)
(-6.60661 11.1417 -2.69188e-16)
(-12.3702 9.2848 1.7536e-15)
(-0.866238 -1.75897 0)
(-12.6725 11.7518 3.06129e-16)
(-12.5925 11.4636 -2.91369e-17)
(-12.1845 10.9389 0)
(-11.6083 10.348 2.68654e-16)
(-10.9734 9.7543 6.15288e-15)
(-10.4886 8.99679 -4.43185e-15)
(-10.0579 7.70841 -1.17462e-14)
(-7.19837 10.341 -8.37921e-15)
(-12.7244 9.66151 1.42127e-14)
(-0.820505 -2.03144 2.49275e-15)
(-13.7386 10.8316 -1.3804e-14)
(-13.3802 10.5851 5.18921e-15)
(-12.8948 10.1681 0)
(-12.2537 9.64878 -7.48172e-15)
(-11.5462 9.13384 -6.12952e-15)
(-11.0158 8.46076 9.68837e-15)
(-10.6351 7.07301 4.01045e-15)
(-7.56783 9.63552 0)
(-13.7012 8.30922 -6.14926e-15)
(-0.832054 -1.8679 4.98951e-16)
(-14.292 9.62214 -3.48886e-16)
(-14.0367 9.55155 5.11034e-15)
(-13.5541 9.22829 0)
(-12.8873 8.7807 1.47915e-14)
(-12.142 8.34945 3.02366e-17)
(-11.575 7.79576 -1.8323e-16)
(-11.2181 6.30553 8.75555e-15)
(-8.01826 9.08577 -7.29459e-15)
(-14.5355 7.72955 -7.08316e-15)
(-0.808814 -1.93141 0)
(-14.755 8.46184 -3.09298e-15)
(-14.5983 8.47181 1.02303e-14)
(-14.143 8.21289 8.90201e-15)
(-13.4562 7.83894 -1.02578e-14)
(-12.6818 7.49283 -1.77295e-14)
(-12.0722 7.06631 -2.6375e-16)
(-11.7145 5.49626 -4.02629e-15)
(-8.42941 8.36637 -3.86035e-15)
(-15.2617 7.101 -6.00941e-15)
(-0.851034 -1.91569 -1.99271e-15)
(-15.2059 7.29073 -8.76194e-15)
(-15.0942 7.32999 4.82055e-15)
(-14.651 7.12545 -3.70572e-15)
(-13.9453 6.82993 -1.02845e-14)
(-13.1515 6.57543 8.1142e-15)
(-12.511 6.2864 -2.36063e-16)
(-12.1446 4.67824 7.58814e-15)
(-8.89475 7.56533 4.04229e-15)
(-15.9128 6.28466 2.63053e-15)
(-0.946026 -1.68707 -4.05328e-16)
(-15.652 6.04548 2.41015e-15)
(-15.5303 6.08749 -2.29978e-15)
(-15.0709 5.93991 -1.23191e-16)
(-14.3409 5.73366 9.8363e-15)
(-13.5385 5.58095 -1.3685e-14)
(-12.8854 5.45773 4.37507e-15)
(-12.5128 3.83224 -3.91835e-15)
(-9.37705 6.74096 1.02824e-14)
(-16.4247 5.21612 0)
(-1.15648 -1.28255 -3.04732e-17)
(-16.0654 4.68754 2.55142e-15)
(-15.8846 4.71372 2.24139e-15)
(-15.3738 4.63393 3.90822e-15)
(-14.6128 4.5344 -6.22794e-15)
(-13.8107 4.49673 2.56639e-15)
(-13.1684 4.55787 0)
(-12.7854 3.00063 -1.69127e-15)
(-9.8136 5.78286 -6.75604e-15)
(-16.8497 4.37238 -9.6027e-17)
(-1.55353 -0.925532 2.4487e-15)
(-16.4276 3.21866 1.11307e-15)
(-16.1534 3.20835 0)
(-15.5578 3.18748 1.87324e-15)
(-14.7624 3.19429 1.64549e-15)
(-13.9813 3.26554 1.18385e-16)
(-13.3568 3.47484 -1.00941e-15)
(-12.9172 2.00671 1.65505e-15)
(-10.362 4.82968 0)
(-17.0284 3.68855 3.18355e-15)
(-2.23053 -0.629069 2.54783e-15)
(-16.7221 1.6461 1.25086e-15)
(-16.3449 1.57775 -2.229e-15)
(-15.6478 1.58149 -1.409e-16)
(-14.8241 1.58787 6.22197e-16)
(-14.0544 1.56301 -6.64783e-17)
(-13.4589 1.97766 9.67164e-16)
(-12.8164 0.565559 -1.58374e-15)
(-10.1234 3.09787 -1.5099e-16)
(-17.0924 3.08088 2.71661e-15)
(-2.45695 -0.881236 -1.94282e-15)
(-17.0025 -0.235652 1.94811e-29)
(-16.4883 -0.313459 0)
(-15.7156 -0.320701 0)
(-14.9161 -0.317936 -7.59478e-16)
(-14.1368 -0.321936 0)
(-13.4967 0.0190336 0)
(-13.1734 -1.14003 7.88799e-16)
(-10.5846 0.768861 0)
(-16.1547 1.02671 0)
(-4.17053 -4.17458 -8.21653e-30)
(-14.0891 12.8438 9.53544e-16)
(-14.4835 10.9413 -7.84118e-15)
(-14.7386 9.60503 7.76566e-15)
(-14.9767 8.42424 -1.04636e-14)
(-15.3023 7.27648 6.2367e-15)
(-15.6714 6.06047 -1.17546e-14)
(-16.0546 4.72759 2.72303e-15)
(-16.433 3.28395 -2.76543e-15)
(-16.7735 1.75805 0)
(-17.199 -0.063064 -3.41952e-16)
(-14.6921 12.1157 1.45548e-14)
(-14.8744 10.4455 0)
(-14.9937 9.28171 8.07777e-15)
(-15.0699 8.19257 -3.37727e-15)
(-15.2691 7.10997 -1.00761e-14)
(-15.5528 5.94464 0)
(-15.8863 4.67204 -2.83877e-15)
(-16.2365 3.30776 -1.16093e-15)
(-16.5593 1.89058 7.82218e-16)
(-17.0399 0.185048 -3.47146e-16)
(-14.362 11.2185 -1.206e-14)
(-14.7996 9.79514 0)
(-14.9804 8.78 7.4009e-15)
(-15.0074 7.80841 6.216e-16)
(-15.1167 6.82779 8.82203e-15)
(-15.3158 5.73059 -3.40735e-15)
(-15.5944 4.55574 0)
(-15.9008 3.29557 3.05742e-15)
(-16.1786 2.00418 -4.8829e-16)
(-16.5956 0.464785 3.94621e-16)
(-13.3018 10.3983 5.49106e-15)
(-14.2255 9.19135 -2.46711e-15)
(-14.6829 8.19505 5.63937e-15)
(-14.8285 7.34331 -6.38528e-15)
(-14.9086 6.50546 6.80369e-16)
(-15.0393 5.50756 3.65753e-15)
(-15.2499 4.42318 -9.43857e-15)
(-15.487 3.25992 1.52588e-15)
(-15.6976 2.0711 2.29125e-15)
(-15.9714 0.721278 6.03581e-17)
(-12.086 9.64399 -8.27653e-15)
(-13.1626 8.63711 7.12438e-15)
(-13.9284 7.6587 0)
(-14.3228 6.84029 2.33102e-15)
(-14.5183 6.05308 2.59936e-15)
(-14.6544 5.20177 -2.70586e-16)
(-14.8159 4.23925 1.77655e-15)
(-14.9909 3.19344 3.93848e-15)
(-15.1375 2.10509 -1.71783e-17)
(-15.2734 0.933009 3.59548e-16)
(-10.8972 8.90519 -3.32613e-15)
(-11.9158 8.08591 5.72072e-15)
(-12.7745 7.15834 2.0752e-15)
(-13.3784 6.35723 -3.60375e-15)
(-13.7454 5.60111 -2.15267e-15)
(-13.9771 4.81912 -2.68076e-16)
(-14.1499 3.93818 -3.68863e-15)
(-14.2895 2.98498 1.09932e-15)
(-14.3852 1.99016 3.51308e-16)
(-14.4395 0.942022 -3.76145e-16)
(-9.79327 8.17088 0)
(-10.6428 7.50677 -1.91117e-15)
(-11.4574 6.67331 4.49181e-16)
(-12.1436 5.90362 -8.35431e-16)
(-12.6241 5.16169 1.4481e-15)
(-12.9503 4.40643 0)
(-13.172 3.59093 8.46182e-16)
(-13.3145 2.7173 1.22544e-15)
(-13.3826 1.81368 -1.11371e-15)
(-13.384 0.867924 -2.71235e-17)
(-8.75355 7.44117 0)
(-9.42891 6.90459 -5.26165e-16)
(-10.126 6.18323 3.27389e-15)
(-10.7721 5.45908 -2.43357e-15)
(-11.2764 4.7325 0)
(-11.6414 3.99142 -4.40382e-16)
(-11.8938 3.20705 -1.04267e-15)
(-12.0489 2.38232 8.4037e-16)
(-12.1079 1.53862 8.65005e-16)
(-12.0799 0.655417 -3.31477e-16)
(-7.7337 6.66931 -8.77527e-16)
(-8.27678 6.23395 5.18573e-16)
(-8.85526 5.56507 5.0157e-16)
(-9.39751 4.85712 -4.83938e-16)
(-9.83965 4.13433 0)
(-10.1721 3.4013 4.67161e-16)
(-10.4017 2.65187 7.07823e-16)
(-10.5426 1.88184 -8.37751e-16)
(-10.5758 1.08932 -1.72904e-16)
(-10.5459 0.233519 1.44778e-17)
(-6.351 6.25097 -2.30385e-16)
(-6.51793 6.02707 9.41804e-17)
(-6.84401 5.47414 7.88454e-17)
(-7.19414 4.84197 0)
(-7.52338 4.21084 -3.2445e-17)
(-7.81593 3.58901 0)
(-8.06391 2.96891 -1.39531e-16)
(-8.26023 2.34486 1.8357e-16)
(-8.3849 1.72665 3.45454e-17)
(-8.53438 1.09564 -1.0263e-17)
)
;

boundaryField
{
    right
    {
        type            cyclic;
    }
    left
    {
        type            cyclic;
    }
    outerWall
    {
        type            calculated;
        value           nonuniform List<vector> 
22
(
(-1.55201 41.8305 0)
(-4.64749 41.6006 0)
(-7.71741 41.1419 0)
(-10.7449 40.4569 0)
(-13.7132 39.5492 0)
(-16.6061 38.424 0)
(-19.4075 37.0874 0)
(-22.1022 35.5467 0)
(-24.6752 33.8104 0)
(-27.1124 31.8882 0)
(-28.9573 30.2506 0)
(-30.2506 28.9573 0)
(-31.8882 27.1124 0)
(-33.8104 24.6752 0)
(-35.5467 22.1022 0)
(-37.0874 19.4075 0)
(-38.424 16.6061 0)
(-39.5492 13.7132 0)
(-40.4569 10.7449 0)
(-41.1419 7.71741 0)
(-41.6006 4.64749 0)
(-41.8305 1.55201 0)
)
;
    }
    stirrerWall
    {
        type            calculated;
        value           nonuniform List<vector> 
42
(
(-0.310178 8.3662 0)
(-0.928834 8.32046 0)
(-1.54239 8.22894 0)
(-2.14746 8.09214 0)
(-2.74072 7.91082 0)
(-3.31888 7.68598 0)
(-3.87877 7.41885 0)
(-4.41729 7.11092 0)
(-4.93148 6.76387 0)
(-5.4185 6.37963 0)
(-6.07951 6.64185 0)
(-6.92878 7.56862 0)
(-7.77806 8.49539 0)
(-8.62734 9.42216 0)
(-9.47661 10.3489 0)
(-10.3259 11.2757 0)
(-11.1752 12.2025 0)
(-12.0244 13.1292 0)
(-12.8737 14.056 0)
(-13.723 14.9828 0)
(-14.4723 15.1215 0)
(-15.1215 14.4723 0)
(-14.9828 13.723 0)
(-14.056 12.8737 0)
(-13.1292 12.0244 0)
(-12.2025 11.1752 0)
(-11.2757 10.3259 0)
(-10.3489 9.47661 0)
(-9.42216 8.62734 0)
(-8.49539 7.77806 0)
(-7.56862 6.92878 0)
(-6.64185 6.07951 0)
(-6.37963 5.4185 0)
(-6.76387 4.93148 0)
(-7.11092 4.41729 0)
(-7.41885 3.87877 0)
(-7.68598 3.31888 0)
(-7.91082 2.74072 0)
(-8.09214 2.14746 0)
(-8.22894 1.54239 0)
(-8.32046 0.928834 0)
(-8.3662 0.310178 0)
)
;
    }
    top
    {
        type            empty;
    }
    bottom
    {
        type            empty;
    }
}


// ************************************************************************* //
