/*--------------------------------*- C++ -*----------------------------------*\
  =========                 |
  \\      /  F ield         | OpenFOAM: The Open Source CFD Toolbox
   \\    /   O peration     | Website:  https://openfoam.org
    \\  /    A nd           | Version:  10
     \\/     M anipulation  |
\*---------------------------------------------------------------------------*/
FoamFile
{
    format      ascii;
    class       volVectorField;
    location    "3000";
    object      Urel;
}
// * * * * * * * * * * * * * * * * * * * * * * * * * * * * * * * * * * * * * //

dimensions      [0 1 -1 0 0 0 0];

internalField   nonuniform List<vector> 
420
(
(0.777895 -0.571593 9.03449e-18)
(-0.42688 0.105855 -6.96637e-17)
(0.151143 0.463003 -2.78698e-16)
(0.294192 0.56654 7.44342e-17)
(0.271941 0.459929 -4.75911e-16)
(0.121435 0.190439 0)
(-0.214259 -0.196978 0)
(-0.534716 -0.735266 3.82101e-16)
(-0.769275 -1.60682 -4.43758e-16)
(-0.9054 -2.85799 0)
(0.840845 -0.643904 3.02321e-17)
(-0.210399 -0.0523433 -1.74834e-16)
(0.0323166 0.382437 9.00483e-16)
(0.0917002 0.559718 -1.14352e-15)
(-0.00204408 0.571292 3.7161e-16)
(-0.218962 0.46102 1.90584e-18)
(-0.512518 0.19546 2.83223e-15)
(-0.711677 -0.354595 -5.82616e-16)
(-0.788461 -1.35624 9.35692e-16)
(-0.747634 -2.76073 0)
(0.84599 -0.556716 1.39325e-16)
(-0.188073 -0.0830194 -8.84628e-16)
(-0.0997368 0.347595 8.94594e-16)
(-0.119553 0.57806 1.31588e-15)
(-0.237974 0.700488 -8.97631e-16)
(-0.431701 0.718986 4.1531e-15)
(-0.606346 0.504302 1.77336e-15)
(-0.670514 -0.107358 3.86875e-15)
(-0.626471 -1.20154 -1.36771e-15)
(-0.472297 -2.68038 -3.10866e-15)
(0.84963 -0.503972 -6.51221e-17)
(-0.219474 -0.0747501 7.58647e-16)
(-0.183607 0.32928 -1.15275e-15)
(-0.23563 0.599697 9.18126e-16)
(-0.339966 0.808309 -1.82706e-15)
(-0.471751 0.914882 1.82319e-15)
(-0.5404 0.73275 -9.60943e-15)
(-0.492042 0.0870974 0)
(-0.372189 -1.01282 -3.44239e-15)
(-0.133573 -2.53123 3.05755e-15)
(0.852016 -0.420499 0)
(-0.270791 -0.0614196 4.8766e-16)
(-0.246651 0.300346 -4.93195e-16)
(-0.289799 0.59311 0)
(-0.348272 0.859197 -3.06169e-16)
(-0.390849 1.02374 -2.67332e-16)
(-0.361704 0.90234 3.22691e-15)
(-0.234143 0.292736 -4.15544e-15)
(-0.0752311 -0.756814 0)
(0.223252 -2.28738 -1.30895e-14)
(0.843607 -0.307517 2.43592e-17)
(-0.321444 -0.0590702 0)
(-0.280357 0.249642 0)
(-0.287185 0.538738 1.66348e-15)
(-0.278522 0.835089 -2.42486e-15)
(-0.229904 1.04982 2.68188e-15)
(-0.123528 1.00849 6.54483e-16)
(0.0502256 0.52067 9.93306e-15)
(0.243747 -0.410161 -1.19199e-14)
(0.566516 -1.9227 6.84486e-15)
(0.815086 -0.17437 0)
(-0.370993 -0.0724294 -5.10353e-16)
(-0.287626 0.175915 -2.71674e-15)
(-0.238874 0.438631 -9.51515e-16)
(-0.160182 0.738502 -4.45222e-15)
(-0.0392589 0.991066 2.70328e-15)
(0.118893 1.04354 -6.635e-15)
(0.313381 0.753552 7.57925e-16)
(0.550299 0.0161595 -4.05936e-15)
(0.847915 -1.41036 -1.13376e-14)
(0.74456 -0.0278464 -4.81043e-17)
(-0.407384 -0.0993295 5.13286e-16)
(-0.260662 0.0880915 3.48464e-15)
(-0.15286 0.310679 5.09753e-16)
(-0.0171053 0.586091 2.55181e-15)
(0.153464 0.849453 0)
(0.333997 0.986314 6.4993e-15)
(0.500358 0.902052 8.05707e-15)
(0.755962 0.473504 1.07316e-14)
(1.00884 -0.744647 9.03821e-15)
(0.60908 0.109052 -4.68103e-17)
(-0.379953 -0.134471 5.20906e-16)
(-0.160927 -0.00918773 -5.50925e-16)
(-0.0100224 0.149482 -2.14057e-15)
(0.155624 0.362229 7.04389e-15)
(0.345903 0.596583 8.97249e-15)
(0.53391 0.786641 -2.99201e-15)
(0.694982 0.850552 0)
(0.895522 0.712328 0)
(1.04839 -0.140133 -9.46839e-15)
(0.319042 0.165651 -1.48066e-17)
(-0.308193 -0.100841 7.46366e-16)
(-0.131169 -0.0322648 0)
(-0.0603589 0.0513558 0)
(0.0200581 0.137895 -3.5122e-15)
(0.137398 0.236396 -9.86193e-18)
(0.287343 0.351073 6.31664e-15)
(0.470286 0.475717 -1.36418e-14)
(0.657108 0.533562 1.57017e-14)
(0.797886 0.0149533 1.29923e-15)
(-0.891259 -4.47099 0)
(-0.815631 -6.43689 0)
(-0.599771 -8.72078 0)
(-0.408656 -11.1439 -7.44391e-16)
(-0.249701 -13.7247 0)
(0.0683089 -16.3776 0)
(-0.493798 -19.0852 8.01144e-16)
(1.34637 -23.6613 0)
(0.105088 -21.0556 0)
(-1.16534 -37.5331 0)
(-0.585431 -4.4925 1.31555e-15)
(-0.307733 -6.52983 2.24943e-15)
(0.0651717 -8.81472 1.23382e-16)
(0.413404 -11.1963 8.13533e-16)
(0.751072 -13.7496 5.78311e-17)
(1.18145 -16.3983 1.03784e-15)
(1.04443 -19.1326 8.79347e-17)
(3.03424 -23.208 1.1283e-16)
(1.76756 -21.4515 -2.95318e-15)
(1.66165 -37.7738 -5.63746e-16)
(-0.1721 -4.47767 1.1774e-15)
(0.250355 -6.54709 0)
(0.768743 -8.80032 -1.80285e-15)
(1.25209 -11.133 -1.56019e-15)
(1.74727 -13.653 4.70068e-15)
(2.3064 -16.2901 -9.85791e-16)
(2.48485 -19.0554 1.63276e-15)
(4.69965 -22.5694 0)
(3.15879 -21.6035 3.20024e-15)
(4.89065 -37.9082 -6.14196e-18)
(0.277821 -4.38042 2.63898e-15)
(0.839067 -6.47453 6.55306e-15)
(1.50233 -8.68939 -6.94636e-15)
(2.12129 -10.9724 2.78218e-15)
(2.77907 -13.4553 3.49554e-17)
(3.48319 -16.0724 0)
(3.95906 -18.8475 -1.62082e-15)
(6.38272 -21.9193 -2.89547e-15)
(4.69668 -21.6861 -3.12834e-15)
(7.90989 -37.7709 2.49872e-15)
(0.732716 -4.18983 2.4432e-15)
(1.44195 -6.31087 -2.13312e-15)
(2.25039 -8.47934 7.15171e-15)
(2.99937 -10.7112 -2.85945e-15)
(3.82082 -13.153 2.44839e-15)
(4.67303 -15.7485 -3.91615e-15)
(5.43454 -18.5102 3.56568e-15)
(8.04586 -21.1345 3.1539e-15)
(6.269 -21.5891 0)
(10.8343 -37.436 -4.97387e-15)
(1.1641 -3.90406 2.99126e-15)
(2.04418 -6.05744 -1.30857e-14)
(2.99759 -8.16781 -3.79817e-15)
(3.87044 -10.3457 8.98916e-15)
(4.85681 -12.7399 7.66534e-15)
(5.86162 -15.3096 2.44152e-16)
(6.87655 -18.053 1.67663e-16)
(9.71101 -20.2213 -3.02816e-15)
(7.79501 -21.3378 -2.55154e-15)
(13.794 -36.8641 5.31735e-15)
(1.53427 -3.53262 3.10822e-15)
(2.62571 -5.72325 4.66094e-15)
(3.72591 -7.76244 0)
(4.71665 -9.88245 -3.00179e-15)
(5.86704 -12.2208 -4.88387e-15)
(7.03074 -14.753 2.66887e-16)
(8.25204 -17.4784 -1.05078e-14)
(11.3813 -19.1799 -3.1967e-15)
(9.29022 -20.9337 5.74084e-15)
(16.7303 -36.034 -2.8439e-15)
(1.82935 -3.1136 1.24328e-14)
(3.1661 -5.33128 -4.35892e-15)
(4.42392 -7.2672 0)
(5.53382 -9.32027 -1.6084e-16)
(6.84303 -11.5871 2.06314e-14)
(8.16504 -14.0653 -8.54344e-15)
(9.55763 -16.7806 -7.99836e-15)
(13.0389 -18.019 6.31015e-15)
(10.7349 -20.3209 -6.7933e-15)
(19.5978 -34.9337 0)
(2.20156 -2.67204 3.27553e-16)
(3.63779 -4.89444 -4.53344e-15)
(5.08269 -6.68132 0)
(6.33177 -8.6603 6.77921e-15)
(7.79699 -10.833 -1.58067e-14)
(9.26931 -13.2308 8.88248e-15)
(10.7941 -15.9502 3.7082e-15)
(14.7005 -16.7278 0)
(12.1039 -19.4903 -2.71617e-16)
(22.3293 -33.5313 2.49069e-15)
(2.95615 -2.06946 4.38764e-16)
(4.05084 -4.41291 2.41213e-17)
(5.65405 -6.064 0)
(7.10111 -7.96237 -1.35808e-14)
(8.74811 -10.02 5.079e-15)
(10.3737 -12.2708 -4.87429e-15)
(11.8936 -14.9582 4.52166e-15)
(16.2923 -15.2431 8.10914e-16)
(13.6001 -18.8021 -3.82564e-17)
(24.8155 -31.7466 -2.46476e-15)
(4.16637 -1.41547 3.03647e-15)
(4.3928 -4.03312 -5.22716e-15)
(6.03662 -5.52756 0)
(7.63822 -7.33905 0)
(9.41726 -9.305 0)
(11.2245 -11.4238 -2.45936e-15)
(13.0358 -13.9878 9.89045e-15)
(17.5865 -13.7148 0)
(13.9745 -18.0613 0)
(26.8552 -30.4689 0)
(4.32615 -1.53703 -2.93024e-15)
(4.59505 -3.68431 -5.21315e-15)
(6.19334 -5.15487 0)
(7.89694 -6.92317 3.68548e-15)
(9.77133 -8.83668 -2.80735e-15)
(11.6767 -10.9419 2.48262e-15)
(13.7311 -13.5218 3.86962e-15)
(18.3565 -12.7535 -2.69188e-16)
(14.5652 -16.4986 1.7536e-15)
(28.2528 -29.6331 0)
(3.76415 -2.21904 3.06129e-16)
(4.86287 -3.37366 -2.91369e-17)
(6.3989 -4.85775 0)
(8.22394 -6.51079 2.68654e-16)
(10.2416 -8.2805 6.15288e-15)
(12.2574 -10.3401 -4.43185e-15)
(14.3832 -13.0701 -1.17462e-14)
(19.1194 -12.0336 -8.37921e-15)
(15.6712 -14.4804 1.42127e-14)
(29.8757 -28.13 2.49275e-15)
(3.68745 -1.88285 -1.3804e-14)
(5.12615 -2.91796 5.18921e-15)
(6.80763 -4.2081 0)
(8.77299 -5.69413 -7.48172e-15)
(10.9468 -7.27943 -6.12952e-15)
(13.1005 -9.13759 9.68837e-15)
(15.2785 -11.8374 4.01045e-15)
(20.3359 -10.7277 0)
(16.4059 -13.6624 -6.14926e-15)
(31.7145 -25.6204 4.98951e-16)
(4.02777 -1.7661 -3.48886e-16)
(5.41888 -2.5431 5.11034e-15)
(7.15904 -3.64848 0)
(9.21822 -4.96202 1.47915e-14)
(11.5052 -6.35205 3.02366e-17)
(13.779 -7.96729 -1.8323e-16)
(16.0258 -10.6329 8.75555e-15)
(21.3179 -9.15392 -7.29459e-15)
(17.1174 -11.9509 -7.08316e-15)
(33.409 -23.2071 0)
(4.35786 -1.53768 -3.09298e-15)
(5.6997 -2.14802 1.02303e-14)
(7.46713 -3.09372 8.90201e-15)
(9.60667 -4.22807 -1.02578e-14)
(11.9896 -5.41609 -1.77295e-14)
(14.3802 -6.77477 -2.6375e-16)
(16.7097 -9.37689 -4.02629e-15)
(22.1779 -7.64947 -3.86035e-15)
(17.7629 -10.18 -6.00941e-15)
(34.8497 -20.5975 -1.99271e-15)
(4.59506 -1.26517 -8.76194e-15)
(5.93456 -1.75668 4.82055e-15)
(7.73724 -2.54889 -3.70572e-15)
(9.94822 -3.49507 -1.02845e-14)
(12.4086 -4.46996 8.1142e-15)
(14.8943 -5.55661 -2.36063e-16)
(17.3037 -8.04788 7.58814e-15)
(22.8154 -6.13856 4.04229e-15)
(18.3017 -8.5018 2.63053e-15)
(36.0413 -17.6721 -4.05328e-16)
(4.72819 -1.01981 2.41015e-15)
(6.11377 -1.41612 -2.29978e-15)
(7.97254 -2.04899 -1.23191e-16)
(10.2518 -2.79256 9.8363e-15)
(12.7697 -3.54019 -1.3685e-14)
(15.3221 -4.3221 4.37507e-15)
(17.7975 -6.67687 -3.91835e-15)
(23.2615 -4.5756 1.02824e-14)
(18.7917 -6.99444 0)
(36.914 -14.4829 -3.04732e-17)
(4.78212 -0.848339 2.55142e-15)
(6.25582 -1.1656 2.24139e-15)
(8.19808 -1.62566 3.90822e-15)
(10.544 -2.1462 -6.22794e-15)
(13.101 -2.65002 2.56639e-15)
(15.6862 -3.10499 0)
(18.2203 -5.23367 -1.69127e-15)
(23.5739 -3.08412 -6.75604e-15)
(19.1749 -5.19509 -9.6027e-17)
(37.3906 -11.2686 2.4487e-15)
(4.77275 -0.757408 1.11307e-15)
(6.36171 -1.01439 0)
(8.41305 -1.30839 1.87324e-15)
(10.8203 -1.60398 1.64549e-15)
(13.386 -1.86753 1.18385e-16)
(15.9863 -2.02893 -1.00941e-15)
(18.6135 -3.90749 1.65505e-15)
(23.5908 -1.53894 0)
(19.6061 -3.1832 3.18355e-15)
(37.3731 -8.05787 2.54783e-15)
(4.71459 -0.748318 1.25086e-15)
(6.42125 -0.965215 -2.229e-15)
(8.59032 -1.12595 -1.409e-16)
(11.0438 -1.30168 6.22197e-16)
(13.6179 -1.52816 -6.64783e-17)
(16.2113 -1.33676 9.67164e-16)
(19.0658 -2.99602 -1.58374e-15)
(24.2079 -0.737363 -1.5099e-16)
(19.9505 -1.05734 2.71661e-15)
(37.5882 -5.35492 -1.94282e-15)
(4.55274 -1.03526 1.94811e-29)
(6.40379 -1.16267 0)
(8.6566 -1.22484 0)
(11.0948 -1.28289 -7.59478e-16)
(13.6885 -1.35422 0)
(16.3375 -1.0878 0)
(18.885 -2.3294 7.88799e-16)
(23.9364 -0.511901 0)
(21.0929 -0.35523 0)
(36.0959 -5.66855 -8.21653e-30)
(1.38618 -0.309424 9.53544e-16)
(1.92321 -1.029 -7.84118e-15)
(2.50951 -1.11673 7.76566e-15)
(3.01806 -0.990066 -1.04636e-14)
(3.34015 -0.778676 6.2367e-15)
(3.51643 -0.591307 -1.17546e-14)
(3.57321 -0.484288 2.72303e-15)
(3.52697 -0.45941 -2.76543e-15)
(3.409 -0.496219 0)
(3.09514 -0.815865 -3.41952e-16)
(-0.173486 -0.224027 1.45548e-14)
(0.518167 -0.784523 0)
(1.18826 -0.777006 8.07777e-15)
(1.81261 -0.639559 -3.37727e-15)
(2.22107 -0.447073 -1.00761e-14)
(2.44906 -0.295809 0)
(2.5283 -0.217552 -2.83877e-15)
(2.48974 -0.204125 -1.16093e-15)
(2.37566 -0.224292 7.82218e-16)
(1.99973 -0.521202 -3.47146e-16)
(-0.799886 -0.307841 -1.206e-14)
(-0.421074 -0.694688 0)
(0.135451 -0.615702 7.4009e-15)
(0.76287 -0.441572 6.216e-16)
(1.22125 -0.231156 8.82203e-15)
(1.50006 -0.0985594 -3.40735e-15)
(1.60705 -0.0115843 0)
(1.59172 0.0151541 3.05742e-15)
(1.50887 0.0286959 -4.8829e-16)
(1.18967 -0.194916 3.94621e-16)
(-0.696221 -0.314625 5.49106e-15)
(-0.861047 -0.558276 -2.46711e-15)
(-0.633008 -0.53768 5.63937e-15)
(-0.17042 -0.32456 -6.38528e-15)
(0.277214 -0.055429 6.80369e-16)
(0.590676 0.0896967 3.65753e-15)
(0.738461 0.178102 -9.43857e-15)
(0.771907 0.210959 1.52588e-15)
(0.742509 0.234994 2.29125e-15)
(0.559522 0.108123 6.03581e-17)
(-0.436825 -0.255654 -8.27653e-15)
(-0.812098 -0.372366 7.12438e-15)
(-0.944419 -0.411115 0)
(-0.776816 -0.245517 2.33102e-15)
(-0.484581 -0.00977943 2.59936e-15)
(-0.210192 0.195164 -2.70586e-16)
(-0.0404998 0.316402 1.77655e-15)
(0.0344517 0.37591 3.93848e-15)
(0.0552481 0.408363 -1.71783e-17)
(0.00330556 0.366397 3.59548e-16)
(-0.204316 -0.181208 -3.32613e-15)
(-0.579168 -0.183491 5.72072e-15)
(-0.856368 -0.248612 2.0752e-15)
(-0.944361 -0.146558 -3.60375e-15)
(-0.863661 0.0362209 -2.15267e-15)
(-0.718598 0.223726 -2.68076e-16)
(-0.587396 0.337531 -3.68863e-15)
(-0.497607 0.39886 1.09932e-15)
(-0.439638 0.432783 3.51308e-16)
(-0.416942 0.421948 -3.76145e-16)
(-0.0565986 -0.102385 0)
(-0.319861 -0.0226417 -1.91117e-15)
(-0.604987 -0.0708579 4.49181e-16)
(-0.821318 -0.0182234 -8.35431e-16)
(-0.894256 0.0947197 1.4481e-15)
(-0.877321 0.222197 0)
(-0.82225 0.312439 8.46182e-16)
(-0.755856 0.362569 1.22544e-15)
(-0.684107 0.395654 -1.11371e-15)
(-0.615357 0.394383 -2.71235e-17)
(0.0270678 -0.0190781 0)
(-0.119586 0.115046 -5.26165e-16)
(-0.339152 0.10173 3.27389e-15)
(-0.56151 0.119079 -2.43357e-15)
(-0.698226 0.163369 0)
(-0.753782 0.21829 -4.40382e-16)
(-0.756605 0.250669 -1.04267e-15)
(-0.72331 0.258939 8.4037e-16)
(-0.656168 0.25991 8.65005e-16)
(-0.565061 0.228402 -3.31477e-16)
(0.0910683 0.0218925 -8.77527e-16)
(0.019181 0.184109 5.18573e-16)
(-0.133717 0.146102 5.0157e-16)
(-0.298333 0.0988476 -4.83938e-16)
(-0.412863 0.0629288 0)
(-0.469544 0.0391799 4.67161e-16)
(-0.476689 0.0175215 7.07823e-16)
(-0.449803 -0.0102416 -8.37751e-16)
(-0.370637 -0.0501073 -1.72904e-16)
(-0.284578 -0.146982 1.44778e-17)
(0.518218 0.41613 -2.30385e-16)
(0.764991 0.716706 9.41804e-17)
(0.812568 0.717493 7.88454e-17)
(0.793982 0.665234 0)
(0.752357 0.637016 -3.2445e-17)
(0.701897 0.637771 0)
(0.649164 0.656492 -1.39531e-16)
(0.600153 0.684003 1.8357e-16)
(0.574057 0.726478 3.45454e-17)
(0.473871 0.761638 -1.0263e-17)
)
;

boundaryField
{
    right
    {
        type            cyclic;
    }
    left
    {
        type            cyclic;
    }
    outerWall
    {
        type            noSlip;
    }
    stirrerWall
    {
        type            noSlip;
    }
    top
    {
        type            empty;
    }
    bottom
    {
        type            empty;
    }
}


// ************************************************************************* //
