/*--------------------------------*- C++ -*----------------------------------*\
  =========                 |
  \\      /  F ield         | OpenFOAM: The Open Source CFD Toolbox
   \\    /   O peration     | Website:  https://openfoam.org
    \\  /    A nd           | Version:  10
     \\/     M anipulation  |
\*---------------------------------------------------------------------------*/
FoamFile
{
    format      ascii;
    class       volScalarField;
    location    "68000";
    object      Co;
}
// * * * * * * * * * * * * * * * * * * * * * * * * * * * * * * * * * * * * * //

dimensions      [0 0 0 0 0 0 0];

internalField   nonuniform List<scalar> 
17981
(
289.499
292.633
295.663
298.595
301.438
304.204
306.902
309.543
312.137
314.694
317.221
319.729
322.223
324.713
327.204
329.702
332.213
334.743
337.296
339.876
342.487
345.134
347.819
350.546
353.318
356.139
359.01
361.935
364.916
367.957
371.06
374.227
377.461
380.765
384.142
387.593
391.123
394.733
398.427
402.207
406.076
410.037
414.094
418.249
422.506
426.867
431.337
435.919
303.644
306.629
309.501
312.269
314.948
317.547
320.08
322.558
324.992
327.395
329.774
332.142
334.505
336.872
339.25
341.646
344.065
346.513
348.994
351.514
354.075
356.681
359.336
362.043
364.805
367.624
370.503
373.446
376.453
379.528
382.673
385.892
389.185
392.556
396.007
399.541
403.161
406.868
410.666
414.558
418.546
422.634
426.824
431.12
435.524
440.04
444.672
449.423
316.682
319.457
322.112
324.659
327.111
329.483
331.788
334.041
336.255
338.442
340.614
342.781
344.954
347.142
349.351
351.589
353.862
356.174
358.532
360.939
363.398
365.913
368.488
371.124
373.824
376.592
379.428
382.336
385.318
388.376
391.511
394.727
398.025
401.408
404.878
408.437
412.088
415.833
419.675
423.616
427.659
431.808
436.064
440.432
444.913
449.512
454.231
459.075
337.858
339.938
341.951
343.914
345.842
347.751
349.653
351.56
353.485
355.435
357.42
359.446
361.52
363.646
365.83
368.075
370.384
372.76
375.206
377.725
380.317
382.986
385.732
388.559
391.467
394.458
397.534
400.698
403.95
407.293
410.729
414.259
417.886
421.612
425.44
429.372
433.41
437.556
441.815
446.188
450.679
455.29
460.025
464.887
347.062
348.774
350.419
352.017
353.587
355.146
356.71
358.293
359.906
361.56
363.263
365.023
366.845
368.734
370.694
372.729
374.841
377.033
379.306
381.661
384.101
386.627
389.239
391.939
394.729
397.609
400.581
403.645
406.804
410.059
413.411
416.863
420.415
424.07
427.829
431.696
435.671
439.758
443.958
448.275
452.712
457.27
461.954
466.765
354.577
355.831
357.022
358.173
359.307
360.443
361.6
362.793
364.034
365.335
366.704
368.147
369.67
371.277
372.971
374.755
376.63
378.597
380.658
382.814
385.063
387.408
389.849
392.385
395.018
397.748
400.576
403.501
406.526
409.651
412.877
416.205
419.636
423.173
426.816
430.567
434.429
438.402
442.49
446.695
451.018
455.463
460.033
464.729
360.841
361.484
362.101
362.718
363.359
364.043
364.786
365.602
366.5
367.489
368.574
369.76
371.049
372.443
373.943
375.55
377.264
379.083
381.009
383.039
385.175
387.414
389.757
392.203
394.752
397.403
400.157
403.014
405.974
409.038
412.206
415.478
418.857
422.342
425.936
429.64
433.454
437.382
441.424
445.584
449.863
454.263
458.788
363.44
363.474
363.562
363.723
363.973
364.326
364.789
365.37
366.072
366.898
367.849
368.924
370.124
371.446
372.889
374.452
376.132
377.927
379.836
381.857
383.989
386.229
388.577
391.032
393.592
396.258
399.028
401.903
404.883
407.967
411.156
414.452
417.854
421.363
424.981
428.709
432.549
436.501
440.569
444.753
449.057
361.181
360.682
360.296
360.036
359.912
359.931
360.098
360.413
360.877
361.487
362.243
363.14
364.177
365.348
366.651
368.082
369.637
371.315
373.111
375.023
377.049
379.187
381.433
383.788
386.248
388.814
391.485
394.26
397.137
400.118
403.202
406.389
409.68
413.076
416.576
420.183
423.897
427.719
431.652
435.697
353.474
352.717
352.133
351.728
351.5
351.449
351.571
351.862
352.318
352.932
353.699
354.614
355.672
356.867
358.195
359.651
361.232
362.932
364.749
366.68
368.722
370.873
373.129
375.49
377.953
380.518
383.182
385.945
388.806
391.766
394.823
397.979
401.233
404.586
408.038
411.592
415.246
419.004
339.534
339.164
338.992
339.009
339.207
339.58
340.118
340.816
341.664
342.658
343.789
345.054
346.445
347.958
349.589
351.333
353.186
355.145
357.207
359.369
361.629
363.986
366.437
368.981
371.618
374.345
377.163
380.071
383.069
386.158
389.336
392.606
395.967
399.42
324.24
323.617
323.211
323.011
323.007
323.188
323.545
324.068
324.748
325.578
326.548
327.652
328.884
330.237
331.706
333.285
334.971
336.76
338.647
340.629
342.704
344.868
347.121
349.459
351.881
354.386
356.972
359.639
362.385
365.212
368.117
371.102
374.167
377.311
305.848
305.055
304.495
304.153
304.017
304.074
304.312
304.719
305.286
306.003
306.861
307.852
308.968
310.202
311.549
313.002
314.557
316.208
317.952
319.784
321.701
323.699
325.777
327.931
330.159
332.46
334.831
337.273
339.782
342.359
345.003
347.713
350.489
353.331
284.706
283.843
283.222
282.826
282.641
282.651
282.843
283.205
283.725
284.392
285.196
286.129
287.182
288.348
289.62
290.992
292.457
294.011
295.649
297.365
299.158
301.022
302.955
304.953
307.015
309.137
311.318
313.557
315.851
318.199
320.6
323.053
325.558
328.114
260.465
259.881
259.524
259.376
259.421
259.644
260.033
260.573
261.255
262.068
263.002
264.048
265.199
266.448
267.786
269.209
270.711
272.286
273.93
275.638
277.407
279.233
281.113
283.043
285.021
287.045
289.113
291.222
293.371
295.558
297.783
300.043
302.339
235.506
235.059
234.832
234.808
234.97
235.302
235.79
236.422
237.185
238.069
239.065
240.162
241.354
242.632
243.99
245.421
246.919
248.479
250.096
251.765
253.481
255.243
257.044
258.883
260.757
262.662
264.596
266.557
268.543
270.552
272.583
274.633
276.702
209.607
209.389
209.38
209.562
209.918
210.432
211.09
211.879
212.787
213.804
214.921
216.127
217.416
218.778
220.207
221.697
223.241
224.834
226.471
228.147
229.858
231.6
233.368
235.16
236.971
238.8
240.643
242.498
244.363
246.234
248.111
249.992
251.874
183.521
183.808
184.27
184.89
185.653
186.545
187.554
188.668
189.876
191.17
192.54
193.978
195.476
197.028
198.627
200.267
201.942
203.647
205.378
207.13
208.898
210.679
212.47
214.265
216.063
217.86
221.284
227.373
234.379
241.177
247.772
254.167
158.076
158.726
159.532
160.478
161.55
162.734
164.018
165.391
166.844
168.367
169.951
171.589
173.273
174.996
176.752
178.535
180.34
182.161
183.994
188.651
197.081
206.297
215.285
224.045
232.58
240.893
248.985
256.861
264.523
271.977
279.225
286.273
133.617
134.686
135.89
137.215
138.647
140.173
141.781
143.463
145.207
147.007
148.852
150.736
152.651
154.591
158.941
167.885
178.904
189.697
200.262
210.596
220.699
230.57
240.21
249.62
258.801
267.757
276.489
285.001
293.298
301.382
309.259
316.934
110.633
112.166
113.814
115.562
117.397
119.308
121.284
123.315
125.394
127.511
130.101
137.871
150.382
162.692
174.792
186.677
198.341
209.779
220.988
231.966
242.71
253.22
263.496
273.538
283.348
292.928
302.28
311.409
320.317
329.01
337.491
345.767
89.529
91.5626
93.6887
95.8942
98.1677
100.499
102.878
105.297
112.608
125.538
139.016
152.321
165.442
178.369
191.092
203.603
215.897
227.966
239.807
251.414
262.787
273.922
284.82
295.48
305.904
316.092
326.048
335.774
345.275
354.554
363.618
372.47
70.6198
73.1808
75.8123
78.5031
81.2439
84.6255
93.8102
108.247
122.568
136.76
150.805
164.691
178.405
191.933
205.265
218.392
231.304
243.994
256.456
268.685
280.677
292.429
303.939
315.206
326.231
337.016
347.561
357.87
367.947
377.796
387.422
396.83
54.1307
57.2383
60.3909
63.5795
71.9401
86.2742
101.273
116.191
131.014
145.73
160.321
174.77
189.061
203.179
217.11
230.844
244.368
257.673
270.751
283.596
296.202
308.564
320.681
332.549
344.169
355.541
366.666
377.547
388.188
398.592
408.764
418.71
40.1456
43.817
49.0136
60.0511
75.5105
90.9877
106.439
121.827
137.133
152.351
167.466
182.461
197.315
212.011
226.532
240.864
254.993
268.908
282.599
296.055
309.272
322.242
334.961
347.427
359.637
371.591
383.29
394.736
405.931
416.879
427.586
438.056
28.6695
34.5426
46.08
61.7498
77.5013
93.3241
109.183
125.025
140.81
156.52
172.148
187.676
203.082
218.346
233.449
248.374
263.104
277.626
291.927
305.996
319.824
333.403
346.727
359.791
372.593
385.129
397.401
409.409
421.156
432.644
443.878
454.864
19.7203
29.7286
45.3042
61.1965
77.1987
93.3006
109.486
125.717
141.945
158.133
174.263
190.315
206.267
222.095
237.778
253.296
268.631
283.766
298.685
313.375
327.823
342.021
355.96
369.632
383.034
396.161
409.014
421.59
433.892
445.922
457.685
469.184
14.5408
26.4115
42.2993
58.3706
74.5977
90.9576
107.432
123.995
140.609
157.233
173.839
190.398
206.884
223.271
239.535
255.651
271.599
287.357
302.907
318.232
333.317
348.15
362.72
377.017
391.035
404.769
418.215
431.373
444.241
456.822
469.119
481.136
9.71563
21.24
37.1934
53.3853
69.7884
86.375
103.117
119.988
136.953
153.977
171.028
188.072
205.079
222.019
238.861
255.579
272.146
288.538
304.732
320.708
336.447
351.934
367.154
382.096
396.75
411.108
425.167
438.921
452.371
465.516
478.358
490.902
16.1868
30.1769
46.4299
62.9504
79.7097
96.6781
113.824
131.115
148.516
165.99
183.503
201.018
218.502
235.921
253.242
270.435
287.471
304.323
320.967
337.379
353.541
369.433
385.043
400.355
415.362
430.054
444.427
458.478
472.204
485.608
498.691
13.8389
23.423
37.6855
54.265
71.1428
88.2881
105.668
123.25
140.996
158.869
176.831
194.841
212.862
230.856
248.784
266.613
284.307
301.834
319.166
336.275
353.137
369.729
386.033
402.033
417.715
433.069
448.087
462.763
477.094
491.08
504.722
15.7561
23.3175
31.3341
43.9338
60.8717
78.1411
95.7089
113.54
131.596
149.839
168.227
186.718
205.268
223.834
242.375
260.848
279.215
297.438
315.482
333.314
350.905
368.229
385.261
401.981
418.372
434.42
450.113
465.445
480.409
495.004
509.228
19.4949
27.0977
35.0436
42.8628
52.2268
66.4575
84.1609
102.196
120.524
139.103
157.891
176.841
195.908
215.042
234.197
253.325
272.38
291.319
310.1
328.685
347.039
365.128
382.924
400.402
417.539
434.319
450.726
466.748
482.379
497.613
512.449
48.6498
56.782
64.7752
74.5032
89.4407
107.995
126.874
146.031
165.418
184.984
204.678
224.446
244.235
263.993
283.668
303.213
322.582
341.733
360.626
379.226
397.503
415.429
432.982
450.143
466.897
483.233
499.142
514.623
55.2179
63.7668
72.1621
80.4102
88.5186
98.1374
113.368
132.859
152.655
172.701
192.942
213.319
233.773
254.245
274.676
295.011
315.195
335.179
354.916
374.363
393.484
412.246
430.618
448.579
466.109
483.192
499.818
515.981
62.3188
71.2603
80.0332
88.6459
97.1081
105.431
113.625
123.156
138.754
159.256
180.028
201.007
222.126
243.321
264.525
285.674
306.705
327.559
348.182
368.523
388.536
408.181
427.424
446.235
464.589
482.467
499.855
516.744
69.7201
79.0284
88.1534
97.105
105.895
114.538
123.048
131.439
139.727
149.643
166.119
187.687
209.47
231.394
253.385
275.371
297.279
319.042
340.594
361.875
382.831
403.413
423.58
443.295
462.527
481.252
499.452
517.112
77.2112
86.8601
96.3108
105.575
114.668
123.605
132.403
141.083
149.662
158.158
166.588
177.741
195.959
218.615
241.406
264.25
287.065
309.773
332.297
354.568
376.52
398.096
419.245
439.922
460.09
479.719
498.784
517.269
84.6073
94.5703
104.321
113.872
123.241
132.446
141.508
150.451
159.296
168.066
176.782
185.462
194.123
207.645
228.713
252.434
276.184
299.873
323.415
346.726
369.731
392.36
414.552
436.254
457.421
478.014
498.004
517.369
91.7516
102.003
112.027
121.84
131.459
140.907
150.208
159.389
168.476
177.497
186.478
195.441
204.407
213.394
222.832
240.022
264.733
289.44
314.043
338.446
362.561
386.306
409.608
432.402
454.634
476.258
497.237
517.544
98.5182
109.032
119.305
129.355
139.201
148.868
158.383
167.777
177.083
186.331
195.554
204.78
214.035
223.341
232.713
242.165
256.276
278.538
304.246
329.795
355.081
380.007
404.488
428.447
451.817
474.543
496.582
517.897
104.812
115.563
126.063
136.327
146.377
156.24
165.946
175.53
185.029
194.482
203.924
213.392
222.917
232.526
242.242
252.078
262.046
273.888
294.066
320.813
347.332
373.509
399.243
424.442
449.029
472.935
496.108
518.505
111.025
121.532
132.235
142.693
152.926
162.963
172.839
182.591
192.261
201.894
211.532
221.219
230.994
240.889
250.934
261.148
271.544
282.126
292.893
311.851
339.33
366.83
393.895
420.417
446.304
471.475
495.864
519.42
119.659
126.901
137.787
148.418
158.815
169.009
179.034
188.933
198.752
208.542
218.352
228.235
238.236
248.397
258.755
269.334
280.154
291.221
302.536
314.087
332.724
359.963
388.442
416.376
443.653
470.178
495.873
520.674
130.046
131.658
142.706
153.492
164.037
174.37
184.527
194.554
204.501
214.425
224.383
234.436
244.638
255.042
265.692
276.622
287.856
299.407
311.275
323.452
335.917
355.075
382.863
412.301
441.066
469.044
496.14
522.28
139.297
135.811
147.004
157.929
168.605
179.062
189.336
199.474
209.53
219.566
229.647
239.843
250.219
260.839
271.756
283.016
294.65
306.677
319.102
331.916
345.1
358.622
379.092
408.157
438.514
468.051
496.655
524.234
147.378
140.224
150.71
161.757
172.551
183.118
193.496
203.729
213.877
224.004
234.185
244.495
255.015
265.818
276.973
288.536
300.55
313.04
326.019
339.479
353.4
367.747
382.477
404.979
435.954
467.165
497.39
526.519
154.286
146.342
153.868
165.023
175.921
186.587
197.055
207.372
217.596
227.795
238.05
248.448
259.078
270.03
281.386
293.218
305.583
318.517
332.038
346.145
360.818
376.019
391.698
408.17
433.329
466.339
498.31
529.11
160.041
153.056
156.538
167.784
178.773
189.526
200.075
210.463
220.749
231.003
241.311
251.766
262.472
273.533
285.049
297.109
309.787
323.134
337.18
351.928
367.361
383.439
400.106
417.291
437.175
465.516
499.369
531.973
164.694
158.64
158.785
170.107
181.173
192.002
202.621
213.072
223.408
233.702
244.04
254.526
265.272
276.399
288.027
300.265
313.209
326.928
341.468
356.841
373.034
390.007
407.698
426.025
444.894
468.662
500.516
535.069
168.332
163.152
160.684
172.066
183.196
194.088
204.768
215.27
225.647
235.966
246.317
256.806
267.556
278.705
290.391
302.75
315.901
329.94
344.93
360.901
377.845
395.723
414.468
433.988
454.174
474.902
502.852
538.354
171.077
166.685
162.524
173.739
184.917
195.86
206.589
217.134
227.541
237.875
248.221
258.688
269.409
280.532
292.22
304.633
317.923
332.215
347.599
364.124
381.796
400.58
420.403
441.164
462.737
484.979
509.511
541.782
173.077
169.374
165.014
175.201
186.416
197.396
208.161
218.738
229.166
239.503
249.83
260.255
270.913
281.966
293.596
305.992
319.341
333.804
349.507
366.527
384.89
404.567
425.485
447.531
470.562
494.411
518.893
548.41
171.369
167.711
176.529
187.767
198.771
209.559
220.155
230.594
240.924
251.219
261.583
272.151
283.091
294.603
306.906
320.223
334.762
350.692
368.129
387.125
407.668
429.686
453.056
477.615
503.17
529.503
556.696
172.824
169.766
177.793
189.041
200.057
210.855
221.457
231.893
242.205
252.458
262.745
273.197
283.986
295.324
307.456
320.645
335.15
351.195
368.947
388.498
409.861
432.97
457.694
483.85
511.213
539.531
568.528
179.059
190.305
201.32
212.115
222.708
233.127
243.409
253.608
263.805
274.123
284.728
295.84
307.725
320.685
335.035
351.064
369.005
389.006
411.117
435.289
461.388
489.206
518.487
548.933
580.217
180.386
191.615
202.616
213.397
223.969
234.356
244.592
254.723
264.818
274.985
285.381
296.224
307.792
320.423
334.488
350.351
368.33
388.646
411.406
436.591
464.067
493.609
524.921
557.651
591.412
193.021
203.995
214.748
225.286
235.628
245.802
255.851
265.831
275.834
286.001
296.539
307.732
319.939
333.587
349.121
366.958
387.421
410.696
436.812
465.65
496.968
530.426
565.611
602.063
194.564
205.496
216.206
226.698
236.983
247.081
257.03
266.879
276.706
286.63
296.838
307.607
319.309
332.411
347.444
364.938
385.342
408.956
435.884
466.042
499.175
534.897
572.725
612.107
196.273
207.148
217.801
228.233
238.447
248.457
258.29
267.993
277.628
287.296
297.159
307.47
318.6
331.042
345.401
362.33
382.434
406.163
433.739
465.137
500.104
538.208
578.884
621.468
208.973
219.553
229.907
240.036
249.945
259.651
269.19
278.618
288.018
297.523
307.357
317.867
329.554
343.077
359.211
378.738
402.308
430.311
462.822
499.615
540.215
583.962
630.057
210.979
221.47
231.731
241.758
251.551
261.119
270.481
279.685
288.802
297.941
307.287
317.149
328.012
340.56
355.672
374.321
397.402
425.542
458.98
497.551
540.75
587.809
637.767
223.555
233.704
243.611
253.272
262.686
271.862
280.83
289.647
298.408
307.262
316.468
326.465
337.932
351.817
369.275
391.487
419.397
453.494
493.739
539.619
590.252
644.477
225.8
235.82
245.587
255.095
264.338
273.316
282.041
290.549
298.918
307.273
315.823
324.941
335.262
347.752
363.716
384.639
411.867
446.258
487.995
536.605
591.089
650.047
228.193
238.063
247.671
257.005
266.056
274.817
283.287
291.484
299.455
307.304
315.2
323.447
332.595
343.576
357.778
376.975
402.989
437.19
480.128
531.461
590.085
654.315
240.416
249.842
258.98
267.817
276.339
284.537
292.411
299.985
307.326
314.572
321.962
329.947
339.364
351.602
368.654
392.852
426.244
469.954
523.913
586.966
657.096
242.857
252.076
260.994
269.59
277.849
285.752
293.288
300.457
307.293
313.891
320.442
327.298
335.157
345.314
359.865
381.615
413.438
457.305
513.663
581.415
658.173
245.359
254.346
263.014
271.343
279.311
286.893
294.068
300.819
307.15
313.11
318.834
324.599
330.952
339.007
350.808
369.505
398.873
442.058
500.395
573.058
657.29
256.624
265.012
273.041
280.685
287.913
294.698
301.011
306.832
312.17
317.095
321.805
326.72
332.73
341.669
356.806
382.757
424.165
483.784
561.455
654.138
258.883
266.959
274.653
281.936
288.776
295.136
300.978
306.269
310.986
315.145
318.854
322.407
326.479
332.58
343.824
365.417
403.699
463.527
546.09
648.336
261.098
268.827
276.149
283.033
289.444
295.34
300.676
305.404
309.481
312.879
315.627
317.898
320.164
323.578
330.831
347.284
380.902
439.392
526.365
639.405
263.237
270.584
277.496
283.939
289.875
295.259
300.042
304.166
307.571
310.197
312.011
313.068
313.661
314.609
318.022
328.864
356.24
411.294
501.601
626.72
265.256
272.185
278.648
284.605
290.016
294.832
299.001
302.46
305.139
306.962
307.856
307.794
306.887
305.63
305.522
310.674
330.43
379.412
471.077
609.449
267.076
273.554
279.53
284.958
289.79
293.977
297.463
300.185
302.071
303.039
302.995
301.857
299.608
296.451
293.276
293.108
304.407
344.362
434.107
586.399
268.543
274.539
279.989
284.841
289.039
292.528
295.252
297.151
298.16
298.2
297.177
294.98
291.498
286.713
281.046
276.41
279.406
307.626
390.379
555.839
269.346
274.804
279.672
283.884
287.37
290.069
291.924
292.88
292.883
291.87
289.766
286.472
281.861
275.819
268.425
260.591
256.608
271.697
340.655
515.717
268.682
273.479
277.646
281.082
283.699
285.436
286.241
286.07
284.887
282.658
279.342
274.872
269.161
262.089
253.55
243.705
234.487
236.631
285.629
463.714
264.256
267.987
271.011
273.184
274.426
274.7
273.993
272.309
269.669
266.101
261.622
256.209
249.838
242.866
238.912
234.056
226.769
212.496
228.071
399.678
246.864
248.277
248.761
248.095
246.295
243.509
239.92
235.71
231.053
226.111
221.011
217.174
214.717
213.356
217.188
222.583
227.777
219.581
197.126
331.173
150.966
143.679
135.783
127.641
119.763
112.543
106.246
101.091
97.2814
95.0268
94.5545
97.498
104.242
114.583
129.701
151.066
180.435
213.979
224.008
230.199
3030.54
3014.26
2998.12
2982.12
2966.24
2950.47
2934.8
2919.22
2903.7
2888.24
2872.8
2857.37
2841.93
2826.45
2810.91
2795.27
2779.51
2763.6
2747.49
2731.15
2714.54
2697.61
2680.31
2662.58
2644.37
2625.59
2606.19
2586.07
2565.14
2543.29
2520.42
2496.38
2471.05
2444.26
2415.84
2385.61
2353.37
2318.9
2281.99
2242.43
2200.03
2154.61
2106.07
2054.34
1999.47
1941.61
1880.99
1817.92
1752.66
1685.25
1615.08
1539.87
1452.83
1328.46
1040.2
2943.53
2927.68
2911.96
2896.38
2880.9
2865.54
2850.27
2835.07
2819.95
2804.87
2789.81
2774.77
2759.71
2744.62
2729.47
2714.22
2698.86
2683.35
2667.66
2651.74
2635.56
2619.07
2602.23
2584.97
2567.24
2548.98
2530.1
2510.53
2490.18
2468.95
2446.73
2423.4
2398.82
2372.85
2345.32
2316.06
2284.89
2251.63
2216.06
2178.02
2137.33
2093.85
2047.49
1998.21
1946.07
1891.21
1833.82
1774.13
1712.28
1648.07
1580.44
1506.15
1415.69
1276.57
964.452
2858.99
2843.55
2828.24
2813.06
2797.98
2783.01
2768.13
2753.32
2738.58
2723.88
2709.21
2694.54
2679.87
2665.16
2650.39
2635.54
2620.57
2605.46
2590.18
2574.68
2558.92
2542.87
2526.48
2509.69
2492.44
2474.68
2456.32
2437.3
2417.53
2396.91
2375.34
2352.7
2328.86
2303.69
2277.04
2248.74
2218.64
2186.55
2152.3
2115.74
2076.71
2035.09
1990.82
1943.87
1894.3
1842.2
1787.74
1731.04
1672.03
1610.22
1543.91
1468.57
1371.72
1216.64
900.858
2776.82
2761.79
2746.89
2732.1
2717.41
2702.83
2688.33
2673.9
2659.53
2645.21
2630.91
2616.63
2602.33
2588
2573.61
2559.15
2544.57
2529.86
2514.98
2499.9
2484.57
2468.95
2453
2436.67
2419.9
2402.64
2384.8
2366.32
2347.12
2327.1
2306.17
2284.21
2261.1
2236.73
2210.94
2183.59
2154.53
2123.6
2090.64
2055.52
2018.1
1978.29
1936.03
1891.3
1844.15
1794.66
1742.9
1688.88
1632.32
1572.32
1506.47
1428.85
1324.55
1157.05
855.899
2696.98
2682.35
2667.84
2653.43
2639.13
2624.93
2610.8
2596.75
2582.75
2568.8
2554.88
2540.96
2527.04
2513.08
2499.08
2484.99
2470.81
2456.49
2442.01
2427.33
2412.42
2397.24
2381.73
2365.86
2349.56
2332.78
2315.46
2297.52
2278.88
2259.45
2239.15
2217.87
2195.49
2171.89
2146.96
2120.54
2092.51
2062.72
2031.03
1997.32
1961.47
1923.42
1883.1
1840.5
1795.66
1748.59
1699.32
1647.67
1593.13
1534.34
1468.14
1387.28
1275.71
1101.66
826.201
2619.4
2605.16
2591.03
2577
2563.08
2549.24
2535.49
2521.8
2508.17
2494.59
2481.03
2467.48
2453.92
2440.34
2426.71
2413.01
2399.21
2385.28
2371.2
2356.93
2342.43
2327.67
2312.6
2297.18
2281.35
2265.06
2248.24
2230.82
2212.74
2193.9
2174.22
2153.6
2131.94
2109.12
2085.02
2059.53
2032.51
2003.84
1973.4
1941.07
1906.76
1870.41
1831.96
1791.4
1748.72
1703.9
1656.84
1607.2
1554.17
1495.91
1428.46
1343.69
1226.11
1051.93
807.116
2544.02
2530.15
2516.4
2502.74
2489.19
2475.72
2462.33
2449
2435.74
2422.51
2409.31
2396.13
2382.94
2369.72
2356.46
2343.13
2329.71
2316.17
2302.48
2288.61
2274.52
2260.18
2245.55
2230.57
2215.2
2199.38
2183.06
2166.17
2148.63
2130.37
2111.31
2091.35
2070.39
2048.34
2025.07
2000.49
1974.47
1946.9
1917.68
1886.7
1853.89
1819.17
1782.51
1743.86
1703.18
1660.38
1615.23
1567.18
1515.1
1456.66
1387.27
1298.62
1177.52
1009.08
794.871
2470.77
2457.27
2443.89
2430.6
2417.4
2404.29
2391.26
2378.29
2365.38
2352.51
2339.67
2326.84
2314.01
2301.16
2288.27
2275.31
2262.26
2249.1
2235.8
2222.32
2208.64
2194.71
2180.5
2165.96
2151.05
2135.7
2119.87
2103.49
2086.49
2068.8
2050.35
2031.04
2010.78
1989.48
1967.03
1943.35
1918.31
1891.82
1863.79
1834.13
1802.75
1769.6
1734.62
1697.74
1658.87
1617.83
1574.23
1527.32
1475.63
1416.4
1344.77
1253.1
1131.53
972.868
786.157
2399.6
2386.47
2373.44
2360.51
2347.67
2334.91
2322.23
2309.61
2297.05
2284.53
2272.05
2259.57
2247.1
2234.6
2222.07
2209.47
2196.8
2184.01
2171.09
2158
2144.72
2131.2
2117.41
2103.3
2088.83
2073.95
2058.6
2042.72
2026.26
2009.13
1991.27
1972.6
1953.03
1932.47
1910.84
1888.03
1863.96
1838.52
1811.65
1783.25
1753.24
1721.56
1688.14
1652.86
1615.58
1576
1533.59
1487.36
1435.55
1375.14
1301.45
1208.2
1089.01
942.16
778.952
2330.45
2317.67
2305
2292.41
2279.92
2267.51
2255.18
2242.91
2230.69
2218.52
2206.38
2194.25
2182.13
2169.98
2157.81
2145.57
2133.26
2120.84
2108.3
2095.59
2082.7
2069.58
2056.2
2042.51
2028.48
2014.06
1999.18
1983.81
1967.86
1951.29
1934.02
1915.98
1897.08
1877.25
1856.41
1834.46
1811.32
1786.91
1761.14
1733.94
1705.23
1674.92
1642.9
1609.04
1573.1
1534.68
1493.08
1447.11
1394.79
1333.12
1258.01
1164.84
1050.18
915.65
772.173
2263.26
2250.83
2238.5
2226.27
2214.12
2202.05
2190.05
2178.12
2166.25
2154.42
2142.61
2130.83
2119.05
2107.26
2095.43
2083.55
2071.59
2059.54
2047.36
2035.03
2022.52
2009.8
1996.82
1983.55
1969.95
1955.97
1941.56
1926.67
1911.25
1895.22
1878.52
1861.1
1842.86
1823.75
1803.67
1782.55
1760.32
1736.89
1712.18
1686.11
1658.59
1629.51
1598.75
1566.1
1531.25
1493.68
1452.54
1406.48
1353.46
1290.77
1215.14
1123.55
1014.8
892.203
765.262
2197.99
2185.9
2173.91
2162.01
2150.2
2138.46
2126.8
2115.21
2103.66
2092.17
2080.7
2069.25
2057.81
2046.36
2034.87
2023.34
2011.74
2000.04
1988.23
1976.27
1964.13
1951.79
1939.21
1926.35
1913.17
1899.63
1885.68
1871.26
1856.34
1840.84
1824.71
1807.89
1790.3
1771.87
1752.54
1732.23
1710.86
1688.35
1664.63
1639.61
1613.17
1585.21
1555.53
1523.88
1489.86
1452.84
1411.86
1365.48
1311.81
1248.57
1173.39
1084.57
982.447
870.939
757.938
2134.57
2122.82
2111.16
2099.59
2088.11
2076.7
2065.37
2054.1
2042.89
2031.72
2020.58
2009.47
1998.36
1987.24
1976.09
1964.9
1953.64
1942.29
1930.83
1919.23
1907.47
1895.5
1883.31
1870.85
1858.08
1844.97
1831.46
1817.52
1803.08
1788.1
1772.52
1756.28
1739.32
1721.56
1702.94
1683.4
1662.85
1641.21
1618.4
1594.33
1568.87
1541.86
1513.09
1482.23
1448.8
1412.07
1371.01
1324.26
1270.18
1206.98
1133.11
1047.91
952.63
851.214
750.057
2072.96
2061.54
2050.2
2038.96
2027.8
2016.72
2005.71
1994.76
1983.87
1973.02
1962.21
1951.42
1940.63
1929.84
1919.02
1908.16
1897.24
1886.24
1875.12
1863.88
1852.47
1840.87
1829.06
1816.99
1804.62
1791.92
1778.85
1765.36
1751.41
1736.93
1721.88
1706.21
1689.84
1672.73
1654.79
1635.97
1616.18
1595.35
1573.38
1550.16
1525.55
1499.35
1471.31
1441.02
1407.95
1371.3
1330.07
1283.05
1228.9
1166.33
1094.48
1013.43
924.901
832.567
741.558
2013.11
2002.01
1990.99
1980.07
1969.22
1958.45
1947.76
1937.13
1926.55
1916.02
1905.52
1895.05
1884.59
1874.11
1863.62
1853.09
1842.49
1831.82
1821.05
1810.14
1799.09
1787.85
1776.4
1764.71
1752.74
1740.45
1727.8
1714.75
1701.25
1687.26
1672.73
1657.6
1641.8
1625.3
1608
1589.86
1570.78
1550.68
1529.46
1506.99
1483.1
1457.57
1430.07
1400.17
1367.26
1330.58
1289.19
1242.1
1188.27
1126.86
1057.55
980.914
898.871
814.669
732.421
1954.97
1944.17
1933.47
1922.86
1912.32
1901.87
1891.48
1881.16
1870.89
1860.67
1850.48
1840.32
1830.17
1820.01
1809.83
1799.61
1789.34
1778.99
1768.55
1757.98
1747.27
1736.38
1725.29
1713.96
1702.37
1690.47
1678.23
1665.61
1652.56
1639.04
1624.99
1610.38
1595.13
1579.19
1562.5
1544.98
1526.55
1507.11
1486.55
1464.72
1441.43
1416.4
1389.29
1359.6
1326.74
1289.99
1248.56
1201.64
1148.51
1088.71
1022.29
950.157
874.217
797.283
722.655
1898.48
1888
1877.6
1867.29
1857.06
1846.91
1836.82
1826.8
1816.84
1806.92
1797.03
1787.17
1777.32
1767.47
1757.6
1747.69
1737.73
1727.7
1717.58
1707.33
1696.95
1686.4
1675.66
1664.69
1653.46
1641.94
1630.1
1617.88
1605.26
1592.18
1578.61
1564.48
1549.74
1534.34
1518.2
1501.25
1483.4
1464.55
1444.55
1423.26
1400.43
1375.77
1348.89
1319.3
1286.43
1249.66
1208.35
1161.88
1109.8
1051.93
988.623
920.94
850.681
780.246
712.288
1843.61
1833.42
1823.33
1813.31
1803.38
1793.52
1783.73
1774.01
1764.34
1754.71
1745.12
1735.56
1726.01
1716.45
1706.88
1697.27
1687.62
1677.89
1668.08
1658.15
1648.09
1637.86
1627.46
1616.83
1605.96
1594.8
1583.33
1571.51
1559.29
1546.64
1533.51
1519.84
1505.58
1490.67
1475.03
1458.6
1441.26
1422.91
1403.39
1382.51
1360.03
1335.61
1308.85
1279.29
1246.43
1209.74
1168.74
1122.98
1072.21
1016.52
956.439
893.068
828.058
763.44
701.357
1790.3
1780.41
1770.61
1760.88
1751.24
1741.67
1732.17
1722.73
1713.35
1704.01
1694.71
1685.43
1676.17
1666.9
1657.62
1648.3
1638.94
1629.51
1620
1610.38
1600.62
1590.72
1580.63
1570.33
1559.8
1548.99
1537.88
1526.43
1514.6
1502.35
1489.63
1476.38
1462.56
1448.1
1432.92
1416.94
1400.05
1382.12
1362.98
1342.42
1320.16
1295.87
1269.17
1239.63
1206.84
1170.37
1129.86
1085.03
1035.82
982.463
925.618
866.369
806.188
746.787
689.908
1738.52
1728.91
1719.39
1709.95
1700.59
1691.31
1682.09
1672.93
1663.83
1654.77
1645.75
1636.75
1627.76
1618.77
1609.77
1600.74
1591.66
1582.52
1573.3
1563.97
1554.51
1544.91
1535.13
1525.15
1514.94
1504.46
1493.69
1482.6
1471.13
1459.25
1446.91
1434.06
1420.64
1406.58
1391.8
1376.21
1359.7
1342.1
1323.25
1302.91
1280.78
1256.56
1229.88
1200.4
1167.77
1131.66
1091.82
1048.11
1000.62
949.693
896.041
840.691
784.942
730.232
677.985
1688.21
1678.89
1669.64
1660.48
1651.4
1642.39
1633.44
1624.56
1615.72
1606.94
1598.18
1589.45
1580.74
1572.02
1563.29
1554.53
1545.73
1536.86
1527.92
1518.87
1509.7
1500.38
1490.9
1481.22
1471.31
1461.16
1450.71
1439.94
1428.81
1417.28
1405.29
1392.79
1379.73
1366.03
1351.6
1336.35
1320.13
1302.8
1284.15
1263.93
1241.87
1217.68
1191.05
1161.69
1129.32
1093.7
1054.69
1012.26
966.601
919.126
869.596
816.927
764.22
713.738
665.634
1639.34
1630.29
1621.32
1612.42
1603.61
1594.86
1586.18
1577.56
1568.99
1560.47
1551.98
1543.51
1535.05
1526.6
1518.13
1509.63
1501.09
1492.49
1483.81
1475.03
1466.14
1457.1
1447.89
1438.5
1428.88
1419.02
1408.87
1398.41
1387.6
1376.38
1364.71
1352.54
1339.79
1326.4
1312.27
1297.28
1281.3
1264.15
1245.62
1225.46
1203.44
1179.28
1152.74
1123.57
1091.57
1056.58
1018.52
978.384
937.389
894.267
847.451
796.997
745.52
697.283
652.898
1591.87
1583.08
1574.37
1565.74
1557.18
1548.69
1540.27
1531.91
1523.59
1515.32
1507.08
1498.87
1490.66
1482.46
1474.24
1466
1457.71
1449.36
1440.94
1432.41
1423.78
1415
1406.06
1396.93
1387.59
1378
1368.14
1357.96
1347.43
1336.5
1325.12
1313.23
1300.76
1287.63
1273.74
1258.96
1243.14
1226.1
1207.63
1187.5
1165.5
1141.4
1115.01
1086.12
1054.59
1020.33
985.34
950.01
912.059
870.872
826.414
778.775
728.17
680.907
639.816
1545.74
1537.21
1528.75
1520.38
1512.07
1503.84
1495.66
1487.55
1479.48
1471.45
1463.46
1455.49
1447.53
1439.56
1431.59
1423.58
1415.53
1407.43
1399.24
1390.97
1382.57
1374.04
1365.35
1356.48
1347.39
1338.06
1328.45
1318.53
1308.26
1297.59
1286.46
1274.82
1262.58
1249.67
1235.96
1221.32
1205.6
1188.61
1170.16
1150.05
1128.09
1104.1
1077.91
1049.38
1019
988.678
957.786
924.233
887.863
848.592
806.426
761.471
713.935
667.196
626.422
1500.93
1492.65
1484.44
1476.31
1468.25
1460.25
1452.32
1444.44
1436.61
1428.82
1421.06
1413.32
1405.59
1397.86
1390.12
1382.34
1374.52
1366.65
1358.69
1350.64
1342.48
1334.18
1325.72
1317.08
1308.23
1299.13
1289.76
1280.08
1270.04
1259.59
1248.69
1237.25
1225.2
1212.45
1198.87
1184.32
1168.64
1151.67
1133.22
1113.14
1091.25
1067.41
1041.5
1015.14
989.092
961.587
931.794
899.556
864.766
827.38
787.429
745.029
700.374
653.726
612.775
1457.86
1449.51
1441.38
1433.49
1425.66
1417.9
1410.2
1402.56
1394.95
1387.39
1379.86