/*--------------------------------*- C++ -*----------------------------------*\
  =========                 |
  \\      /  F ield         | OpenFOAM: The Open Source CFD Toolbox
   \\    /   O peration     | Website:  https://openfoam.org
    \\  /    A nd           | Version:  10
     \\/     M anipulation  |
\*---------------------------------------------------------------------------*/
FoamFile
{
    format      ascii;
    class       volScalarField;
    location    "68000";
    object      nut;
}
// * * * * * * * * * * * * * * * * * * * * * * * * * * * * * * * * * * * * * //

dimensions      [0 2 -1 0 0 0 0];

internalField   nonuniform List<scalar> 
17981
(
0.00116518
0.00115691
0.00115102
0.00114764
0.00114687
0.00114875
0.00115322
0.00116018
0.00116948
0.0011809
0.00119423
0.0012092
0.00122557
0.00124308
0.0012615
0.0012806
0.00130018
0.00132006
0.00134009
0.00136011
0.00138002
0.00139971
0.00141909
0.00143811
0.0014567
0.00147483
0.00149246
0.00150956
0.00152613
0.00154215
0.00155762
0.00157253
0.0015869
0.00160073
0.00161403
0.0016268
0.00163908
0.00165086
0.00166217
0.00167302
0.00168343
0.0016934
0.00170297
0.00171214
0.00172093
0.00172935
0.00173742
0.00174516
0.00112934
0.00112276
0.00111858
0.00111693
0.00111791
0.00112154
0.00112777
0.00113648
0.00114751
0.00116062
0.00117559
0.00119213
0.00121
0.00122893
0.00124868
0.00126902
0.00128974
0.00131067
0.00133164
0.00135253
0.0013732
0.00139357
0.00141356
0.0014331
0.00145214
0.00147065
0.0014886
0.00150596
0.00152274
0.00153891
0.00155449
0.00156948
0.00158388
0.00159771
0.00161097
0.00162369
0.00163588
0.00164755
0.00165874
0.00166944
0.00167969
0.00168949
0.00169887
0.00170785
0.00171643
0.00172464
0.0017325
0.00174001
0.00109278
0.00108826
0.00108614
0.00108658
0.00108965
0.00109536
0.00110365
0.00111439
0.00112739
0.00114241
0.00115919
0.00117747
0.00119695
0.00121739
0.00123853
0.00126014
0.00128202
0.00130399
0.00132589
0.0013476
0.00136899
0.00138998
0.0014105
0.00143049
0.0014499
0.00146871
0.00148689
0.00150443
0.00152132
0.00153756
0.00155315
0.00156812
0.00158246
0.00159619
0.00160933
0.0016219
0.00163391
0.0016454
0.00165637
0.00166685
0.00167685
0.0016864
0.00169552
0.00170423
0.00171253
0.00172047
0.00172804
0.00173526
0.00106251
0.00107061
0.00108125
0.00109426
0.00110945
0.00112656
0.00114531
0.00116542
0.00118661
0.00120861
0.00123116
0.00125405
0.00127707
0.00130004
0.00132281
0.00134527
0.00136731
0.00138884
0.0014098
0.00143014
0.00144982
0.00146882
0.00148712
0.00150472
0.00152161
0.00153781
0.00155332
0.00156815
0.00158233
0.00159586
0.00160878
0.0016211
0.00163284
0.00164404
0.0016547
0.00166487
0.00167454
0.00168376
0.00169254
0.00170089
0.00170885
0.00171643
0.00172364
0.00173052
0.00103691
0.00104769
0.00106092
0.00107643
0.00109399
0.00111332
0.00113415
0.00115617
0.00117909
0.00120266
0.00122661
0.00125074
0.00127483
0.00129873
0.0013223
0.00134541
0.00136799
0.00138994
0.00141122
0.00143179
0.00145162
0.00147069
0.00148899
0.00150652
0.0015233
0.00153933
0.00155463
0.00156922
0.00158311
0.00159634
0.00160892
0.00162088
0.00163225
0.00164306
0.00165333
0.00166308
0.00167234
0.00168113
0.00168948
0.00169741
0.00170494
0.00171209
0.00171888
0.00172533
0.00101329
0.00102698
0.00104302
0.00106119
0.00108125
0.0011029
0.00112586
0.0011498
0.00117446
0.00119955
0.00122485
0.00125012
0.0012752
0.00129992
0.00132415
0.0013478
0.00137077
0.00139301
0.00141448
0.00143513
0.00145496
0.00147396
0.00149212
0.00150945
0.00152598
0.00154171
0.00155667
0.00157088
0.00158437
0.00159716
0.00160929
0.00162079
0.00163168
0.001642
0.00165176
0.00166101
0.00166976
0.00167804
0.00168588
0.0016933
0.00170032
0.00170697
0.00171326
0.00171922
0.00100886
0.00102786
0.00104881
0.00107143
0.00109544
0.00112051
0.00114635
0.00117267
0.00119921
0.00122573
0.00125203
0.00127795
0.00130334
0.00132809
0.00135211
0.00137533
0.00139769
0.00141918
0.00143976
0.00145943
0.00147819
0.00149606
0.00151304
0.00152917
0.00154446
0.00155894
0.00157264
0.0015856
0.00159784
0.0016094
0.00162032
0.00163062
0.00164034
0.00164951
0.00165815
0.0016663
0.00167399
0.00168123
0.00168806
0.0016945
0.00170058
0.00170631
0.00171171
0.00103942
0.00106462
0.00109094
0.00111807
0.00114571
0.00117357
0.00120141
0.00122901
0.00125618
0.00128277
0.00130865
0.00133373
0.00135794
0.00138121
0.00140352
0.00142484
0.00144517
0.00146452
0.00148288
0.00150029
0.00151677
0.00153234
0.00154704
0.0015609
0.00157396
0.00158626
0.00159783
0.0016087
0.00161892
0.00162853
0.00163755
0.00164602
0.00165397
0.00166144
0.00166844
0.00167502
0.00168119
0.00168698
0.00169242
0.00169752
0.00170231
0.00106075
0.00108929
0.00111836
0.00114764
0.00117688
0.00120584
0.00123432
0.00126215
0.00128921
0.00131538
0.00134059
0.00136477
0.0013879
0.00140996
0.00143093
0.00145082
0.00146965
0.00148745
0.00150423
0.00152004
0.0015349
0.00154887
0.00156197
0.00157425
0.00158576
0.00159653
0.0016066
0.00161603
0.00162483
0.00163306
0.00164075
0.00164792
0.00165462
0.00166087
0.0016667
0.00167215
0.00167723
0.00168197
0.00168639
0.00169052
0.00112106
0.00115179
0.00118219
0.00121205
0.00124118
0.00126944
0.00129673
0.00132296
0.00134807
0.00137201
0.00139478
0.00141637
0.00143679
0.00145606
0.0014742
0.00149124
0.00150723
0.00152221
0.00153622
0.00154931
0.00156152
0.00157289
0.00158349
0.00159335
0.00160252
0.00161105
0.00161896
0.00162631
0.00163313
0.00163945
0.00164531
0.00165074
0.00165577
0.00166043
0.00166475
0.00166875
0.00167245
0.00167588
0.00124903
0.00127747
0.00130473
0.00133077
0.00135553
0.00137901
0.0014012
0.00142211
0.00144178
0.00146022
0.00147749
0.00149361
0.00150865
0.00152265
0.00153566
0.00154773
0.00155892
0.00156927
0.00157885
0.00158771
0.00159588
0.00160342
0.00161037
0.00161676
0.00162265
0.00162805
0.00163302
0.00163758
0.00164176
0.0016456
0.00164911
0.00165233
0.00165528
0.00165798
0.00125723
0.00128556
0.00131254
0.00133812
0.0013623
0.00138507
0.00140646
0.00142649
0.0014452
0.00146264
0.00147886
0.0014939
0.00150783
0.00152071
0.00153259
0.00154352
0.00155358
0.00156282
0.00157129
0.00157905
0.00158615
0.00159263
0.00159855
0.00160393
0.00160883
0.00161327
0.0016173
0.00162096
0.00162426
0.00162724
0.00162993
0.00163235
0.00163452
0.00163648
0.0012651
0.00129303
0.00131943
0.0013443
0.00136765
0.00138949
0.00140986
0.00142881
0.00144638
0.00146265
0.00147765
0.00149147
0.00150416
0.00151579
0.00152642
0.00153612
0.00154496
0.00155299
0.00156029
0.00156689
0.00157286
0.00157823
0.00158307
0.0015874
0.00159128
0.00159473
0.00159781
0.00160053
0.00160294
0.00160505
0.00160691
0.00160853
0.00160994
0.00161115
0.00127191
0.00129914
0.0013247
0.00134861
0.00137088
0.00139157
0.00141073
0.00142841
0.00144469
0.00145962
0.00147328
0.00148575
0.00149708
0.00150736
0.00151665
0.00152504
0.0015326
0.00153938
0.00154544
0.00155084
0.00155564
0.00155988
0.00156361
0.00156688
0.00156972
0.00157218
0.00157429
0.00157609
0.00157761
0.00157887
0.00157991
0.00158074
0.0015814
0.00158189
0.00130319
0.00132765
0.00135035
0.00137135
0.00139069
0.00140846
0.00142472
0.00143955
0.00145303
0.00146524
0.00147624
0.00148613
0.00149499
0.0015029
0.00150993
0.00151616
0.00152165
0.00152646
0.00153064
0.00153426
0.00153736
0.00153999
0.00154219
0.00154402
0.00154549
0.00154666
0.00154756
0.00154821
0.00154865
0.00154889
0.00154897
0.00154891
0.00154872
0.00130451
0.00132764
0.00134893
0.00136846
0.00138631
0.00140254
0.00141726
0.00143053
0.00144246
0.00145312
0.0014626
0.001471
0.0014784
0.0014849
0.00149056
0.00149545
0.00149964
0.0015032
0.00150617
0.00150862
0.0015106
0.00151215
0.00151332
0.00151415
0.00151468
0.00151494
0.00151497
0.0015148
0.00151445
0.00151396
0.00151333
0.0015126
0.00151177
0.00130254
0.00132414
0.00134386
0.00136178
0.00137799
0.00139259
0.00140566
0.00141731
0.00142763
0.00143669
0.00144462
0.00145151
0.00145746
0.00146254
0.00146683
0.0014704
0.00147331
0.00147564
0.00147744
0.00147876
0.00147965
0.00148017
0.00148035
0.00148024
0.00147988
0.00147929
0.00147852
0.00147758
0.00147651
0.00147533
0.00147406
0.00147273
0.00147134
0.00131675
0.00133476
0.00135097
0.00136547
0.00137836
0.00138974
0.00139972
0.00140839
0.00141586
0.00142225
0.00142765
0.00143216
0.00143585
0.00143881
0.00144109
0.00144278
0.00144393
0.0014446
0.00144485
0.00144472
0.00144427
0.00144353
0.00144255
0.00144137
0.00144
0.0014385
0.00143687
0.00143516
0.00143337
0.00143154
0.00142967
0.00142779
0.00130522
0.00132146
0.00133589
0.00134863
0.00135978
0.00136946
0.00137777
0.0013848
0.0013907
0.00139559
0.00139954
0.00140266
0.00140502
0.0014067
0.00140777
0.00140829
0.00140834
0.00140796
0.00140721
0.00140615
0.00140481
0.00140323
0.00140147
0.00139954
0.00139749
0.00139533
0.00139311
0.00139083
0.00138853
0.00138621
0.0013839
0.00138161
0.00128949
0.00130391
0.00131655
0.00132752
0.00133695
0.00134494
0.0013516
0.00135705
0.00136145
0.00136489
0.00136746
0.00136926
0.00137036
0.00137085
0.00137078
0.00137023
0.00136926
0.00136792
0.00136628
0.00136436
0.00136223
0.00135992
0.00135746
0.00135489
0.00135224
0.00134954
0.0013468
0.00134406
0.00134133
0.00133862
0.00133596
0.00133335
0.00126964
0.00128225
0.00129312
0.00130236
0.0013101
0.00131645
0.00132152
0.00132547
0.00132844
0.00133052
0.0013318
0.00133237
0.0013323
0.00133169
0.00133059
0.00132907
0.00132718
0.001325
0.00132255
0.0013199
0.00131708
0.00131413
0.00131108
0.00130797
0.00130483
0.00130167
0.00129853
0.00129542
0.00129235
0.00128935
0.00128642
0.00128359
0.00124595
0.00125679
0.00126593
0.0012735
0.00127961
0.00128439
0.00128796
0.00129051
0.00129214
0.00129295
0.00129304
0.00129248
0.00129136
0.00128976
0.00128773
0.00128535
0.00128267
0.00127974
0.00127661
0.00127333
0.00126993
0.00126644
0.00126292
0.00125937
0.00125583
0.00125233
0.00124887
0.00124549
0.00124218
0.00123898
0.00123588
0.00123291
0.0012188
0.00122793
0.00123541
0.00124138
0.00124595
0.00124925
0.00125143
0.00125267
0.00125307
0.00125273
0.00125173
0.00125017
0.00124811
0.00124563
0.00124279
0.00123967
0.0012363
0.00123274
0.00122904
0.00122523
0.00122136
0.00121746
0.00121355
0.00120968
0.00120585
0.00120209
0.00119842
0.00119485
0.00119141
0.00118809
0.00118491
0.00118188
0.00118868
0.00119616
0.00120207
0.00120653
0.00120967
0.00121159
0.0012125
0.00121253
0.00121181
0.00121043
0.00120846
0.001206
0.00120312
0.00119988
0.00119635
0.00119259
0.00118865
0.00118458
0.00118041
0.0011762
0.00117196
0.00116774
0.00116356
0.00115945
0.00115543
0.00115152
0.00114773
0.00114407
0.00114057
0.00113722
0.00113404
0.00113103
0.00115611
0.00116203
0.00116644
0.00116804
0.00116712
0.00116706
0.00116846
0.00117009
0.00116892
0.00116661
0.0011638
0.00116056
0.00115697
0.00115309
0.00114898
0.0011447
0.0011403
0.00113581
0.00113129
0.00112677
0.00112227
0.00111783
0.00111348
0.00110923
0.00110511
0.00110112
0.00109729
0.00109363
0.00109015
0.00108685
0.00108374
0.00108083
0.00112169
0.00112614
0.00112916
0.00113089
0.0011286
0.00112535
0.0011237
0.00112384
0.0011243
0.00112186
0.0011183
0.00111439
0.0011102
0.00110578
0.0011012
0.00109651
0.00109174
0.00108695
0.00108217
0.00107744
0.00107277
0.00106821
0.00106377
0.00105946
0.00105532
0.00105135
0.00104756
0.00104397
0.00104058
0.00103739
0.00103442
0.00103167
0.00108595
0.00108903
0.00109077
0.0010913
0.00109074
0.00108695
0.00108267
0.00108012
0.00107897
0.00107672
0.00107252
0.00106803
0.00106333
0.00105847
0.00105351
0.00104849
0.00104345
0.00103845
0.0010335
0.00102864
0.00102389
0.00101928
0.00101483
0.00101055
0.00100646
0.00100257
0.00099889
0.000995429
0.000992192
0.000989183
0.000986406
0.000983862
0.00104942
0.00105121
0.00105176
0.0010512
0.00104964
0.0010472
0.00104388
0.00103949
0.00103605
0.00103167
0.0010269
0.00102192
0.00101679
0.00101157
0.0010063
0.00100104
0.000995822
0.000990676
0.000985634
0.000980724
0.000975968
0.000971385
0.000966992
0.000962803
0.00095883
0.000955083
0.000951569
0.000948294
0.000945262
0.000942476
0.000939937
0.000937646
0.00101256
0.00101315
0.0010126
0.00101102
0.00100855
0.00100529
0.00100135
0.000996909
0.000992118
0.000987055
0.000981791
0.000976391
0.000970913
0.000965407
0.000959919
0.000954489
0.000949152
0.000943938
0.000938873
0.000933979
0.000929276
0.00092478
0.000920504
0.000916461
0.000912658
0.000909103
0.000905802
0.000902757
0.000899972
0.000897448
0.000895184
0.000893179
0.000975276
0.000973676
0.000971157
0.000967838
0.000963829
0.000959232
0.000954166
0.000948788
0.000943219
0.000937525
0.000931769
0.000926002
0.000920272
0.00091462
0.000909081
0.000903686
0.00089846
0.000893426
0.000888603
0.000884005
0.000879646
0.000875536
0.000871682
0.000868092
0.00086477
0.000861718
0.00085894
0.000856434
0.000854201
0.00085224
0.000850546
0.000937927
0.000935351
0.000931947
0.00092784
0.000923141
0.000917952
0.000912365
0.000906485
0.000900453
0.000894375
0.000888306
0.000882296
0.000876387
0.000870616
0.000865012
0.000859604
0.000854411
0.000849451
0.00084474
0.000840288
0.000836105
0.000832196
0.000828568
0.000825223
0.000822164
0.000819391
0.000816904
0.000814701
0.000812781
0.000811141
0.000809777
0.000901472
0.000897957
0.000893708
0.000888844
0.000883486
0.000877734
0.000871682
0.000865412
0.000858996
0.000852559
0.000846207
0.000839983
0.000833924
0.000828063
0.000822426
0.000817035
0.000811905
0.000807051
0.000802482
0.000798205
0.000794226
0.000790546
0.000787168
0.000784092
0.000781318
0.000778842
0.000776665
0.000774781
0.000773188
0.000771882
0.000770857
0.000866162
0.000861738
0.000856674
0.000851088
0.000845089
0.000838783
0.00083227
0.00082563
0.000818936
0.000812247
0.000805639
0.000799207
0.000793011
0.000787074
0.000781419
0.000776062
0.000771014
0.000766283
0.000761876
0.000757793
0.000754035
0.000750602
0.000747492
0.0007447
0.000742224
0.00074006
0.000738202
0.000736647
0.000735389
0.000734422
0.000733742
0.000814757
0.000808135
0.000801287
0.000794308
0.000787283
0.000780291
0.000773393
0.000766638
0.000760061
0.00075373
0.000747716
0.000742045
0.000736726
0.000731765
0.000727167
0.000722929
0.00071905
0.000715525
0.000712348
0.000709514
0.000707016
0.000704847
0.000703
0.000701468
0.000700245
0.000699325
0.0006987
0.000698364
0.000780036
0.000772781
0.000765381
0.000757929
0.000750507
0.000743189
0.000736039
0.000729115
0.000722456
0.00071609
0.000710027
0.000704326
0.000699038
0.00069416
0.000689691
0.000685623
0.000681949
0.000678658
0.000675741
0.000673187
0.000670986
0.000669126
0.000667598
0.000666394
0.000665504
0.00066492
0.000664635
0.000664641
0.000747057
0.000739156
0.000731184
0.000723234
0.000715388
0.00070772
0.000700293
0.000693158
0.000686357
0.000679928
0.000673887
0.000668242
0.000662991
0.000658176
0.000653823
0.000649917
0.000646441
0.000643382
0.000640722
0.000638447
0.00063654
0.000634989
0.000633779
0.0006329
0.000632341
0.000632091
0.000632141
0.000632484
0.000715925
0.000707364
0.000698797
0.000690318
0.000682011
0.000673952
0.000666204
0.000658822
0.000651845
0.000645304
0.000639219
0.000633605
0.000628458
0.000623762
0.00061952
0.000615757
0.000612467
0.000609629
0.000607219
0.000605216
0.000603601
0.000602354
0.000601459
0.000600901
0.000600667
0.000600745
0.000601126
0.0006018
0.000686746
0.000677501
0.000668307
0.00065926
0.000650447
0.000641946
0.000633827
0.000626143
0.000618937
0.000612241
0.000606071
0.000600436
0.000595334
0.000590757
0.000586681
0.000583075
0.000579955
0.000577325
0.000575156
0.000573418
0.000572086
0.000571137
0.000570551
0.000570308
0.000570394
0.000570795
0.000571499
0.000572497
0.000659576
0.000649623
0.00063977
0.000630114
0.000620747
0.000611752
0.000603201
0.000595155
0.00058766
0.000580748
0.000574438
0.000568735
0.000563634
0.000559119
0.000555171
0.000551757
0.000548836
0.000546403
0.000544459
0.000542974
0.000541917
0.000541258
0.000540972
0.000541038
0.000541436
0.000542152
0.000543173
0.000544487
0.000634455
0.000623774
0.000613231
0.000602926
0.000592955
0.000583407
0.000574362
0.000565888
0.000558036
0.000550842
0.000544328
0.000538498
0.000533345
0.00052885
0.000524984
0.000521711
0.000518994
0.000516783
0.000515057
0.000513811
0.000513016
0.000512637
0.000512643
0.000513009
0.000513712
0.000514736
0.000516064
0.000517687
0.000611448
0.000600005
0.000588735
0.000577737
0.000567108
0.000556946
0.00054734
0.000538365
0.000530083
0.000522535
0.000515746
0.000509723
0.000504457
0.000499926
0.000496096
0.000492924
0.000490363
0.000488364
0.000486871
0.000485858
0.000485312
0.000485201
0.00048549
0.000486147
0.000487146
0.000488469
0.000490098
0.000492021
0.000590601
0.000578352
0.000566315
0.000554577
0.000543237
0.0005324
0.000522162
0.000512611
0.000503819
0.000495837
0.000488697
0.000482407
0.000476961
0.000472332
0.000468482
0.000465363
0.00046292
0.000461093
0.000459822
0.000459046
0.000458739
0.000458884
0.000459444
0.000460383
0.00046167
0.000463284
0.000465205
0.000467419
0.000571949
0.00055884
0.000545989
0.000533467
0.000521366
0.000509791
0.000498852
0.000488648
0.000479264
0.000470763
0.000463186
0.00045655
0.000450848
0.000446053
0.000442123
0.000439004
0.000436631
0.000434936
0.000433851
0.000433306
0.000433239
0.000433627
0.000434447
0.000435656
0.000437222
0.000439117
0.000441321
0.00044382
0.000555547
0.000541497
0.000527778
0.000514424
0.000501511
0.000489143
0.000477434
0.000466499
0.000456438
0.000447329
0.000439226
0.000432154
0.000426114
0.000421078
0.000417001
0.000413823
0.000411469
0.000409864
0.000408927
0.000408581
0.000408749
0.000409378
0.000410443
0.000411911
0.000413744
0.000415911
0.00041839
0.000421165
0.000541508
0.000526384
0.000511707
0.00049746
0.000483685
0.000470468
0.000457927
0.000446186
0.000435363
0.000425554
0.00041683
0.00040923
0.000402761
0.000397401
0.000393103
0.000389799
0.000387411
0.000385848
0.00038502
0.000384838
0.000385217
0.000386077
0.000387379
0.000389095
0.000391186
0.000393616
0.000396361
0.000399403
0.000529951
0.000513564
0.000497799
0.000482579
0.000467886
0.000453772
0.000440342
0.000427727
0.000416061
0.000405461
0.000396019
0.00038779
0.000380795
0.00037502
0.000370418
0.000366919
0.000364433
0.00036286
0.000362099
0.000362045
0.000362602
0.000363682
0.000365213
0.000367164
0.000369502
0.000372186
0.000375188
0.000378489
0.000521075
0.000503159
0.000486108
0.00046979
0.000454108
0.000439047
0.00042468
0.000411132
0.000398549
0.000387072
0.000376814
0.000367855
0.000360232
0.000353943
0.000348947
0.000345171
0.000342519
0.00034088
0.000340138
0.000340174
0.00034088
0.000342152
0.0003439
0.000346078
0.000348651
0.000351579
0.00035483
0.000358382
0.000515156
0.00049538
0.000476752
0.000459135
0.000442347
0.000426277
0.00041093
0.000396401
0.000382841
0.000370407
0.000359241
0.000349448
0.000341091
0.000334183
0.000328694
0.000324553
0.000321659
0.00031989
0.000319115
0.0003192
0.000320019
0.000321457
0.000323409
0.000325802
0.000328598
0.00033176
0.00033525
0.000339045
0.000512504
0.000490535
0.000469947
0.000450717
0.000432625
0.000415446
0.000399069
0.000383523
0.000368937
0.000355482
0.000343323
0.000332597
0.000323397
0.000315761
0.000309673
0.00030507
0.000301849
0.000299879
0.000299013
0.000299101
0.000299998
0.000301572
0.000303706
0.000306298
0.000309306
0.000312693
0.000316414
0.000320445
0.000513107
0.000488979
0.000466017
0.000444746
0.000425026
0.000406555
0.000389067
0.000372468
0.000356825
0.000342298
0.000329076
0.000317327
0.000307179
0.000298702
0.000291903
0.000286734
0.000283092
0.00028084
0.000279818
0.000279858
0.000280793
0.000282473
0.000284762
0.000287546
0.000290756
0.000294352
0.000298294
0.000302551
0.000515494
0.000490702
0.000465384
0.000441574
0.000419756
0.000399666
0.000380908
0.000363198
0.000346473
0.000330847
0.000316509
0.00030366
0.000292466
0.000283037
0.000275412
0.000269562
0.000265397
0.000262775
0.000261525
0.000261458
0.000262388
0.000264139
0.000266559
0.000269515
0.000272912
0.000276706
0.000280859
0.000285334
0.00051803
0.000494077
0.00046807
0.000441693
0.000417186
0.000394971
0.000374628
0.000355676
0.000337836
0.000321096
0.000305614
0.000291608
0.000279285
0.000268798
0.000260229
0.000253581
0.000248781
0.000245691
0.00024413
0.000243892
0.000244766
0.000246552
0.000249074
0.00025218
0.00025575
0.000259732
0.000264084
0.000268768
0.000520259
0.00049736
0.000472304
0.000445173
0.000417874
0.000392849
0.00037039
0.00034991
0.000330861
0.000312995
0.000296363
0.00028117
0.000267653
0.000256015
0.00024639
0.000238822
0.000233268
0.000229602
0.000227638
0.000227154
0.000227915
0.000229695
0.000232287
0.000235521
0.000239255
0.000243412
0.000247949
0.00025283
0.000500106
0.000476203
0.00045012
0.000421975
0.000393921
0.000368573
0.000346029
0.000325526
0.00030648
0.000288704
0.00027232
0.000257573
0.000244712
0.000233928
0.000225321
0.000218888
0.000214527
0.000212058
0.000211246
0.00021183
0.000213555
0.000216185
0.00021952
0.000223399
0.000227719
0.000232429
0.000237494
0.00050205
0.000479339
0.000454512
0.000427506
0.000398465
0.000369849
0.000344393
0.000321916
0.000301499
0.000282564
0.00026501
0.00024903
0.000234901
0.000222874
0.000213114
0.000205675
0.000200495
0.000197407
0.000196172
0.000196506
0.000198121
0.00020075
0.000204159
0.000208163
0.000212629
0.000217502
0.000222742
0.000457914
0.000432271
0.000404454
0.000374656
0.0003457
0.000320355
0.000298091
0.000277869
0.000259163
0.000241978
0.000226571
0.000213244
0.000202234
0.000193668
0.000187537
0.000183707
0.000181943
0.000181943
0.000183387
0.00018597
0.000189422
0.000193527
0.000198126
0.000203149
0.000208552
0.000460037
0.000435813
0.000409474
0.000380973
0.000350584
0.000321536
0.00029652
0.000274605
0.000254686
0.000236339
0.000219686
0.000205039
0.000192708
0.000182903
0.000175691
0.000170987
0.000168576
0.000168146
0.000169348
0.000171834
0.000175294
0.000179477
0.000184194
0.000189353
0.000194906
0.000437832
0.000413039
0.000386138
0.000357094
0.000326306
0.000297441
0.000272962
0.000251516
0.000232011
0.000214172
0.000198232
0.000184545
0.000173413
0.000164995
0.000159281
0.000156094
0.000155127
0.000156004
0.000158334
0.000161763
0.000165996
0.000170812
0.00017609
0.00018178
0.000438032
0.000414833
0.000389614
0.000362299
0.000332861
0.000301905
0.00027352
0.00024976
0.000228893
0.000209923
0.000192758
0.000177729
0.000165216
0.000155486
0.000148626
0.000144525
0.0001429
0.000143357
0.000145465
0.000148816
0.000153067
0.000157961
0.000163342
0.000169154
0.000436134
0.000414556
0.000391077
0.000365587
0.000338013
0.000308337
0.000277487
0.00024989
0.000227001
0.000206811
0.000188513
0.00017221
0.00015831
0.000147191
0.000139062
0.000133905
0.000131489
0.000131418
0.000133224
0.000136443
0.000140677
0.000145623
0.000151089
0.00015701
0.000411931
0.000390224
0.000366629
0.000341033
0.000313361
0.000283608
0.000253185
0.000226678
0.000204773
0.000185358
0.000167892
0.00015266
0.000140122
0.000130622
0.000124272
0.000120921
0.000120201
0.000121613
0.000124638
0.000128814
0.000133784
0.000139315
0.000145327
0.000406711
0.000386783
0.000365122
0.000341585
0.000316055
0.000288457
0.000258793
0.000229154
0.000204008
0.000183167
0.000164634
0.000148187
0.000134262
0.00012333
0.000115662
0.000111231
0.000109726
0.00011064
0.000113399
0.000117469
0.000122431
0.000128004
0.000134087
0.000380524
0.000360802
0.000339369
0.000316076
0.000290796
0.000263451
0.000234056
0.000205565
0.000181994
0.000162274
0.00014476
0.000129551
0.000117188
0.000108109
0.000102456
0.00010002
0.000100317
0.000102724
0.000106635
0.000111552
0.000117141
0.000123274
0.000371272
0.000353457
0.000334128
0.000313118
0.000290263
0.000265427
0.000238531
0.000209611
0.000182595
0.000160738
0.000142198
0.000125877
0.00011216
0.000101632
9.46338e-05
9.11178e-05
9.06624e-05
9.26207e-05
9.63064e-05
0.000101139
0.000106717
0.000112871
0.000358924
0.000342947
0.000325674
0.000306931
0.000286538
0.000264318
0.000240124
0.00021388
0.000185708
0.000160425
0.000140334
0.000123066
0.000108162
9.6221e-05
8.77969e-05
8.30566e-05
8.17033e-05
8.30983e-05
8.64832e-05
9.11817e-05
9.67145e-05
0.000102862
0.000329223
0.000313911
0.000297362
0.000279391
0.000259799
0.000238391
0.000215003
0.00018956
0.00016256
0.000139261
0.000120905
0.000105046
9.18273e-05
8.19611e-05
7.58757e-05
7.34725e-05
7.41748e-05
7.71695e-05
8.16764e-05
8.71229e-05
9.32314e-05
0.000312338
0.000298857
0.000284379
0.000268728
0.000251699
0.00023307
0.000212614
0.000190139
0.00016555
0.000140317
0.000119305
0.000102607
8.83441e-05
7.71123e-05
6.96079e-05
6.60085e-05
6.58755e-05
6.83765e-05
7.26246e-05
7.7938e-05
8.39707e-05
0.000292459
0.000280653
0.000268085
0.000254601
0.00024001
0.000224087
0.000206577
0.000187214
0.000165769
0.000142129
0.000119187
0.000100656
8.55939e-05
7.31855e-05
6.4267e-05
5.93508e-05
5.82332e-05
6.01221e-05
6.40337e-05
6.91598e-05
7.50724e-05
0.000259556
0.00024871
0.000237199
0.00022486
0.00021149
0.000196841
0.000180629
0.000162555
0.000142364
0.000119963
9.94425e-05
8.33202e-05
7.00336e-05
5.98257e-05
5.35305e-05
5.12858e-05
5.24318e-05
5.59172e-05
6.07936e-05
6.6533e-05
0.000235932
0.00022661
0.000216846
0.000206519
0.000195464
0.000183466
0.000170259
0.000155529
0.000138952
0.000120272
9.9513e-05
8.12869e-05
6.73934e-05
5.61884e-05
4.85572e-05
4.50729e-05
4.53388e-05
4.82964e-05
5.28516e-05
5.83541e-05
0.000210242
0.000202249
0.000194002
0.000185421
0.000176386
0.00016673
0.000156225
0.000144575
0.000131421
0.000116367
9.90859e-05
8.05805e-05
6.4977e-05
5.31869e-05
4.44047e-05
3.96291e-05
3.88822e-05
4.12005e-05
4.53552e-05
5.05448e-05
0.000183018
0.000176185
0.000169243
0.000162147
0.000154825
0.000147163
0.000138992
0.000130068
0.000120058
0.00010853
9.49887e-05
7.90087e-05
6.32306e-05
5.06114e-05
4.09893e-05
3.49685e-05
3.31016e-05
3.46659e-05
3.83362e-05
4.31258e-05
0.00015484
0.000149034
0.00014322
0.000137384
0.000131493
0.000125484
0.000119253
0.000112633
0.000105373
9.71129e-05
8.73751e-05
7.56225e-05
6.14721e-05
4.81071e-05
3.8072e-05
3.10456e-05
2.8025e-05
2.87322e-05
3.18372e-05
3.61345e-05
0.000126315
0.000121446
0.000116633
0.000111883
0.000107192
0.000102537
9.7869e-05
9.30956e-05
8.806e-05
8.25096e-05
7.60617e-05
6.81865e-05
5.82768e-05
4.62704e-05
3.52554e-05
2.77308e-05
2.36561e-05
2.34343e-05
2.59056e-05
2.96326e-05
9.80829e-05
9.4099e-05
9.02082e-05
8.64295e-05
8.27756e-05
7.92491e-05
7.58367e-05
7.2501e-05
6.91643e-05
6.56824e-05
6.18001e-05
5.70888e-05
5.08857e-05
4.23479e-05
3.2724e-05
2.48659e-05
1.99685e-05
1.87909e-05
2.05751e-05
2.36813e-05
7.08463e-05
6.77292e-05
6.47233e-05
6.18534e-05
5.91397e-05
5.65953e-05
5.42244e-05
5.20192e-05
4.99534e-05
4.79677e-05
4.59412e-05
4.36395e-05
4.0633e-05
3.62209e-05
2.95536e-05
2.20213e-05
1.68249e-05
1.47858e-05
1.58475e-05
1.82901e-05
4.5492e-05
4.32455e-05
4.11143e-05
3.91249e-05
3.72977e-05
3.56453e-05
3.41741e-05
3.28852e-05
3.17739e-05
3.08251e-05
3.00021e-05
2.92186e-05
2.82877e-05
2.68238e-05
2.41197e-05
1.93844e-05
1.39368e-05
1.13396e-05
1.16538e-05
1.25094e-05
2.33987e-05
2.20355e-05
2.07738e-05
1.96374e-05
1.86395e-05
1.77849e-05
1.70742e-05
1.65069e-05
1.60835e-05
1.58047e-05
1.56669e-05
1.56432e-05
1.56781e-05
1.56386e-05
1.51637e-05
1.36915e-05
1.07895e-05
8.22208e-06
8.07299e-06
7.89458e-06
7.16074e-06
6.63863e-06
6.1745e-06
5.77974e-06
5.45506e-06
5.19602e-06
4.99918e-06
4.86372e-06
4.79191e-06
4.7893e-06
4.85983e-06
4.9451e-06
5.00133e-06
5.05286e-06
5.1648e-06
5.30902e-06
5.43774e-06
5.3331e-06
5.07517e-06
4.78329e-06
3.70939e-07
3.26019e-07
2.85879e-07
2.51032e-07
2.21657e-07
1.97515e-07
1.78128e-07
1.62965e-07
1.51552e-07
1.43528e-07
1.38812e-07
1.42598e-07
1.55579e-07
1.74864e-07
2.02313e-07
2.4124e-07
3.04341e-07
4.38684e-07
1.06691e-06
2.57432e-06
0.00263468
0.00261127
0.00258704
0.00256181
0.00253541
0.00250763
0.00247829
0.00244721
0.00241419
0.00237905
0.00234163
0.00230178
0.00225937
0.00221429
0.00216646
0.00211585
0.00206242
0.00200623
0.00194732
0.0018858
0.00182181
0.00175555
0.00168723
0.00161711
0.00154549
0.00147267
0.001399
0.00132484
0.00125056
0.00117654
0.00110317
0.0010308
0.000959806
0.000890531
0.000823294
0.000758389
0.000696073
0.000636566
0.000580045
0.000526636
0.000476413
0.000429388
0.000385506
0.00034464
0.000306579
0.000271025
0.000237583
0.000205761
0.000174976
0.000144584
0.000113961
8.2734e-05
5.1424e-05
2.32955e-05
5.86083e-06
0.00263357
0.00260985
0.00258526
0.00255965
0.00253281
0.00250457
0.00247474
0.00244312
0.00240954
0.00237382
0.0023358
0.00229534
0.00225232
0.00220665
0.00215824
0.00210708
0.00205315
0.0019965
0.0019372
0.00187536
0.00181113
0.00174471
0.00167632
0.00160623
0.00153473
0.00146212
0.00138876
0.001315
0.0012412
0.00116773
0.00109496
0.00102326
0.000952967
0.000884421
0.000817928
0.000753764
0.000692174
0.000633364
0.000577493
0.000524676
0.000474971
0.000428377
0.000384827
0.000344182
0.000306224
0.000270646
0.000237055
0.000204961
0.000173802
0.000142978
0.000111971
8.06612e-05
5.00998e-05
2.39568e-05
8.2453e-06
0.00263238
0.00260832
0.00258338
0.00255736
0.00253008
0.00250136
0.00247102
0.00243885
0.0024047
0.00236839
0.00232977
0.0022887
0.00224507
0.0021988
0.00214983
0.00209813
0.00204371
0.00198662
0.00192694
0.00186479
0.00180034
0.00173379
0.00166535
0.00159531
0.00152394
0.00145157
0.00137854
0.00130518
0.00123187
0.00115896
0.00108681
0.00101577
0.000946184
0.000878365
0.000812609
0.000749178
0.000688302
0.000630173
0.000574937
0.000522692
0.000473485
0.000427302
0.000384063
0.00034362
0.000305747
0.000270135
0.000236393
0.000204047
0.000172569
0.000141434
0.000110279
7.9256e-05
4.9753e-05
2.58261e-05
1.1626e-05
0.0026311
0.0026067
0.00258138
0.00255494
0.00252721
0.002498
0.00246712
0.00243441
0.00239967
0.00236277
0.00232353
0.00228185
0.00223762
0.00219076
0.00214122
0.00208899
0.00203409
0.00197658
0.00191654
0.00185411
0.00178946
0.00172278
0.00165432
0.00158435
0.00151314
0.00144103
0.00136833
0.0012954
0.00122258
0.00115024
0.00107871
0.00100834
0.000939459
0.000872363
0.000807336
0.000744628
0.000684454
0.000626991
0.000572372
0.000520682
0.000471954
0.000426161
0.000383214
0.000342956
0.000305156
0.000269507
0.000235625
0.000203063
0.000171346
0.000140051
0.000108985
7.85478e-05
5.04168e-05
2.90292e-05
1.61722e-05
0.00262972
0.00260498
0.00257926
0.00255239
0.00252419
0.00249447
0.00246306
0.00242978
0.00239445
0.00235694
0.0023171