/*--------------------------------*- C++ -*----------------------------------*\
  =========                 |
  \\      /  F ield         | OpenFOAM: The Open Source CFD Toolbox
   \\    /   O peration     | Website:  https://openfoam.org
    \\  /    A nd           | Version:  10
     \\/     M anipulation  |
\*---------------------------------------------------------------------------*/
FoamFile
{
    format      ascii;
    class       volVectorField;
    location    "68000";
    object      Urel;
}
// * * * * * * * * * * * * * * * * * * * * * * * * * * * * * * * * * * * * * //

dimensions      [0 1 -1 0 0 0 0];

internalField   nonuniform List<vector> 
17981
(
(0.168678 -0.460194 8.87981e-22)
(0.164893 -0.472646 -8.9225e-22)
(0.161169 -0.484825 0)
(0.157505 -0.496765 -5.66404e-21)
(0.1539 -0.508502 1.25006e-20)
(0.150358 -0.520067 -6.7869e-21)
(0.146881 -0.531488 0)
(0.143471 -0.54279 5.89539e-22)
(0.140132 -0.553993 0)
(0.136867 -0.565115 0)
(0.133679 -0.576168 -7.24751e-22)
(0.130569 -0.58716 1.33778e-20)
(0.127541 -0.598099 -1.21179e-20)
(0.124597 -0.608985 0)
(0.121738 -0.61982 0)
(0.118964 -0.630601 0)
(0.116278 -0.641325 0)
(0.113679 -0.651986 -1.36712e-20)
(0.111167 -0.662579 1.30941e-20)
(0.108741 -0.673098 2.71731e-20)
(0.106401 -0.683535 -2.56201e-20)
(0.104146 -0.693884 -4.10478e-22)
(0.101974 -0.704137 0)
(0.0998843 -0.714288 0)
(0.0978742 -0.72433 2.57912e-20)
(0.0959422 -0.734256 -2.43608e-20)
(0.0940864 -0.744062 2.50157e-20)
(0.0923045 -0.753742 -2.40285e-20)
(0.0905944 -0.76329 -3.73442e-22)
(0.0889538 -0.772702 0)
(0.0873805 -0.781974 1.80147e-22)
(0.0858723 -0.791104 -1.76776e-22)
(0.0844267 -0.800087 -1.73369e-22)
(0.0830415 -0.808921 2.17677e-20)
(0.0817146 -0.817604 -2.09661e-20)
(0.0804436 -0.826134 -1.63069e-22)
(0.0792263 -0.834511 0)
(0.0780608 -0.842732 0)
(0.0769448 -0.850797 1.52844e-22)
(0.0758763 -0.858707 -1.93997e-20)
(0.0748534 -0.86646 -8.85155e-23)
(0.0738742 -0.874058 1.8024e-20)
(0.0729368 -0.8815 6.98082e-23)
(0.0720393 -0.888788 0)
(0.0711802 -0.895923 0)
(0.0703577 -0.902905 0)
(0.0695702 -0.909736 0)
(0.0688162 -0.916418 -1.61097e-20)
(0.192103 -0.440808 -5.35867e-21)
(0.188102 -0.452932 0)
(0.184165 -0.464787 -1.56598e-20)
(0.180294 -0.476411 3.86271e-20)
(0.176493 -0.487843 -2.19982e-20)
(0.172763 -0.499118 3.32497e-20)
(0.169109 -0.510268 -3.22005e-20)
(0.165534 -0.521321 5.89027e-22)
(0.162043 -0.532302 1.316e-21)
(0.158637 -0.543227 -4.77448e-20)
(0.155322 -0.554113 9.52427e-20)
(0.1521 -0.564968 -4.88663e-20)
(0.148974 -0.575799 0)
(0.145944 -0.586608 1.64662e-21)
(0.143014 -0.597394 -5.54145e-20)
(0.140184 -0.608155 5.30509e-20)
(0.137454 -0.618884 5.62369e-20)
(0.134824 -0.629576 -5.38249e-20)
(0.132294 -0.640223 8.58515e-22)
(0.129862 -0.650817 0)
(0.127526 -0.661349 -4.27117e-22)
(0.125286 -0.67181 5.55104e-20)
(0.123139 -0.682192 -5.19511e-20)
(0.121084 -0.692486 5.4671e-20)
(0.119116 -0.702684 -1.04761e-19)
(0.117235 -0.712779 5.05667e-20)
(0.115437 -0.722762 -5.15315e-20)
(0.11372 -0.732627 4.94919e-20)
(0.112081 -0.742369 3.84926e-22)
(0.110516 -0.75198 0)
(0.109024 -0.761458 1.85622e-22)
(0.107601 -0.770796 1.82194e-22)
(0.106246 -0.779991 -4.59852e-20)
(0.104953 -0.78904 4.46296e-20)
(0.103723 -0.797939 -5.15045e-22)
(0.102551 -0.806687 4.35512e-20)
(0.101435 -0.815281 -4.18246e-20)
(0.100372 -0.82372 0)
(0.0993609 -0.832003 4.0481e-20)
(0.0983984 -0.840129 -7.84949e-20)
(0.0974826 -0.848097 3.79097e-20)
(0.0966112 -0.855907 -3.78239e-20)
(0.095782 -0.86356 -6.43765e-22)
(0.0949932 -0.871057 3.57074e-20)
(0.0942428 -0.878397 0)
(0.0935289 -0.885582 0)
(0.0928497 -0.892613 1.31346e-22)
(0.0922036 -0.899491 -6.49541e-23)
(0.213798 -0.419239 0)
(0.20952 -0.431038 8.63698e-21)
(0.205315 -0.442572 -9.23469e-21)
(0.201185 -0.453884 2.24285e-20)
(0.197134 -0.465017 -2.33185e-20)
(0.193166 -0.476011 -1.87579e-21)
(0.189287 -0.486901 0)
(0.185501 -0.49772 -1.25801e-21)
(0.181813 -0.508494 -4.06147e-21)
(0.178227 -0.519244 0)
(0.174748 -0.529986 1.54849e-21)
(0.171379 -0.540731 3.18896e-21)
(0.168123 -0.551484 0)
(0.164981 -0.562248 -1.52376e-23)
(0.161956 -0.573019 1.72177e-21)
(0.159047 -0.583795 0)
(0.156255 -0.594567 1.15599e-19)
(0.153579 -0.605328 -1.08802e-19)
(0.151017 -0.616068 -1.16448e-19)
(0.148568 -0.626777 1.10577e-19)
(0.146229 -0.637443 -1.7501e-21)
(0.143998 -0.648057 0)
(0.141872 -0.658607 8.58604e-22)
(0.139848 -0.669084 -8.52935e-22)
(0.137923 -0.679477 8.40884e-22)
(0.136093 -0.689777 -1.06855e-19)
(0.134355 -0.699975 1.03365e-19)
(0.132705 -0.710063 -8.04898e-22)
(0.131141 -0.720033 0)
(0.129658 -0.72988 9.99274e-20)
(0.128253 -0.739596 2.38387e-21)
(0.126923 -0.749176 -9.58732e-20)
(0.125664 -0.758616 0)
(0.124473 -0.767911 0)
(0.123346 -0.777058 -9.16838e-20)
(0.122282 -0.786053 8.87207e-20)
(0.121276 -0.794894 -3.39625e-22)
(0.120326 -0.803578 0)
(0.119429 -0.812105 3.25456e-22)
(0.118583 -0.820473 -3.18071e-22)
(0.117784 -0.828681 -8.01983e-20)
(0.117031 -0.836729 7.74543e-20)
(0.11632 -0.844616 1.48699e-22)
(0.11565 -0.852344 -1.45775e-22)
(0.115018 -0.859912 -2.84487e-22)
(0.114423 -0.867321 0)
(0.113863 -0.874572 -1.35531e-22)
(0.113335 -0.881666 -6.91378e-20)
(0.215737 -0.440081 -1.42233e-21)
(0.211479 -0.450801 1.96265e-21)
(0.207325 -0.461444 7.80494e-20)
(0.20328 -0.472045 -1.61853e-19)
(0.199352 -0.482633 8.61264e-20)
(0.195545 -0.493233 -2.94832e-21)
(0.191865 -0.50386 1.02171e-19)
(0.188316 -0.514527 -1.04122e-19)
(0.184901 -0.525238 0)
(0.181622 -0.535995 -1.74807e-21)
(0.17848 -0.546793 1.15004e-19)
(0.175475 -0.557626 -1.11606e-19)
(0.172606 -0.568485 -1.14949e-19)
(0.169871 -0.57936 -9.0443e-21)
(0.167269 -0.590238 1.13521e-19)
(0.164796 -0.601106 -1.18028e-19)
(0.162449 -0.611953 1.1294e-19)
(0.160225 -0.622764 0)
(0.15812 -0.633527 1.1327e-19)
(0.156129 -0.64423 -2.23931e-19)
(0.154249 -0.65486 1.06414e-19)
(0.152475 -0.665408 1.09764e-19)
(0.150803 -0.675862 -1.04499e-19)
(0.149228 -0.686213 -8.26628e-22)
(0.147746 -0.696452 -1.05405e-19)
(0.146353 -0.706571 -6.2981e-22)
(0.145045 -0.716563 -3.65168e-21)
(0.143817 -0.726422 9.94125e-20)
(0.142665 -0.736141 9.79006e-20)
(0.141586 -0.745716 -1.90286e-19)
(0.140576 -0.755142 9.32242e-20)
(0.139631 -0.764416 -9.21576e-20)
(0.138747 -0.773534 8.92261e-20)
(0.137922 -0.782494 -8.83559e-20)
(0.137151 -0.791293 -2.20925e-21)
(0.136433 -0.799931 8.34815e-20)
(0.135763 -0.808405 9.63934e-22)
(0.13514 -0.816716 -8.06158e-20)
(0.13456 -0.824862 7.7893e-20)
(0.134021 -0.832844 3.00201e-22)
(0.133521 -0.840663 2.93432e-22)
(0.133057 -0.848318 7.35617e-20)
(0.132626 -0.855811 -7.14291e-20)
(0.132228 -0.863142 0)
(0.232179 -0.413104 -3.85439e-20)
(0.227573 -0.423561 -3.75494e-21)
(0.223088 -0.433971 0)
(0.218734 -0.444374 8.80486e-20)
(0.214518 -0.454804 -8.45025e-20)
(0.210448 -0.465285 6.05989e-21)
(0.20653 -0.475836 6.41537e-21)
(0.202768 -0.486467 0)
(0.199167 -0.497182 0)
(0.195727 -0.50798 -3.53791e-21)
(0.19245 -0.518855 0)
(0.189333 -0.529798 0)
(0.186376 -0.540798 -3.70809e-21)
(0.183576 -0.55184 1.86019e-21)
(0.180929 -0.56291 -1.21381e-19)
(0.178432 -0.573992 1.16051e-19)
(0.176078 -0.585071 -1.18276e-19)
(0.173865 -0.596132 1.14969e-19)
(0.171786 -0.607159 1.81037e-21)
(0.169836 -0.618137 0)
(0.168009 -0.629055 -1.15106e-19)
(0.166301 -0.639897 -4.83621e-21)
(0.164706 -0.650653 -4.59709e-21)
(0.163218 -0.661311 1.09127e-19)
(0.161832 -0.671862 -1.08295e-19)
(0.160543 -0.682295 -3.13892e-21)
(0.159345 -0.692603 1.04835e-19)
(0.158234 -0.702779 -1.03458e-19)
(0.157205 -0.712815 9.88649e-20)
(0.156254 -0.722706 0)
(0.155375 -0.732446 9.68774e-20)
(0.154565 -0.742032 -9.48862e-20)
(0.15382 -0.751459 0)
(0.153135 -0.760725 7.06888e-22)
(0.152507 -0.769827 6.9147e-22)
(0.151933 -0.778763 6.77893e-22)
(0.151409 -0.787532 8.47535e-20)
(0.150931 -0.796131 -1.67065e-19)
(0.150498 -0.804562 8.17132e-20)
(0.150105 -0.812824 0)
(0.149751 -0.820916 0)
(0.149433 -0.82884 7.66433e-20)
(0.149148 -0.836596 -7.38638e-20)
(0.148894 -0.844185 0)
(0.246332 -0.384107 -4.01451e-20)
(0.241312 -0.394315 -6.46239e-20)
(0.236436 -0.404514 1.45496e-19)
(0.231717 -0.414749 -7.63729e-20)
(0.227166 -0.425057 -9.71914e-20)
(0.222791 -0.435465 8.9857e-20)
(0.2186 -0.445988 -3.28956e-21)
(0.214598 -0.456638 0)
(0.210788 -0.467415 -1.17384e-19)
(0.207171 -0.478315 2.35655e-19)
(0.203746 -0.48933 7.42134e-21)
(0.200511 -0.500447 -1.16336e-19)
(0.197463 -0.51165 -3.76045e-21)
(0.194598 -0.522923 -1.24195e-19)
(0.19191 -0.534247 1.18645e-19)
(0.189394 -0.545604 -1.2362e-19)
(0.187043 -0.556976 -4.65486e-21)
(0.184851 -0.568344 1.17608e-19)
(0.182811 -0.579692 -5.56446e-21)
(0.180915 -0.591001 0)
(0.179158 -0.602258 3.09242e-24)
(0.177533 -0.613447 1.795e-21)
(0.176032 -0.624554 1.14741e-19)
(0.174649 -0.635567 2.77299e-21)
(0.173377 -0.646475 -2.19832e-19)
(0.172211 -0.657266 1.05268e-19)
(0.171144 -0.667933 -3.32393e-21)
(0.17017 -0.678466 0)
(0.169284 -0.688858 -2.07299e-19)
(0.16848 -0.699102 1.9978e-19)
(0.167753 -0.709193 0)
(0.167098 -0.719125 7.57663e-22)
(0.16651 -0.728895 1.91746e-19)
(0.165986 -0.738499 -1.8582e-19)
(0.16552 -0.747933 0)
(0.16511 -0.757197 -6.98608e-22)
(0.16475 -0.766287 6.85084e-22)
(0.164438 -0.775203 6.69581e-22)
(0.164169 -0.783944 -1.69535e-19)
(0.163942 -0.79251 1.6332e-19)
(0.163752 -0.8009 -6.28225e-22)
(0.163597 -0.809114 -1.58563e-19)
(0.163475 -0.817155 1.52855e-19)
(0.163383 -0.825022 0)
(0.25248 -0.363086 -3.66294e-21)
(0.247151 -0.37311 -4.43691e-21)
(0.242014 -0.383225 0)
(0.237084 -0.393467 -5.67399e-21)
(0.232369 -0.403863 -6.15222e-21)
(0.227879 -0.414428 0)
(0.223618 -0.425169 -1.15734e-19)
(0.219587 -0.436083 1.10312e-19)
(0.215786 -0.447162 0)
(0.212214 -0.458393 -2.48317e-19)
(0.208865 -0.469759 2.4058e-19)
(0.205735 -0.481241 3.85881e-21)
(0.202816 -0.492818 0)
(0.200101 -0.504468 0)
(0.197584 -0.516169 -3.85481e-21)
(0.195254 -0.5279 0)
(0.193103 -0.53964 2.49321e-19)
(0.191124 -0.55137 -4.85866e-19)
(0.189307 -0.56307 4.81344e-19)
(0.187643 -0.574723 -2.3266e-19)
(0.186125 -0.586312 0)
(0.184743 -0.597822 2.33522e-19)
(0.183491 -0.60924 -2.26151e-19)
(0.18236 -0.620552 0)
(0.181342 -0.631748 2.26435e-19)
(0.180431 -0.642816 -4.35561e-19)
(0.17962 -0.653748 2.11141e-19)
(0.178902 -0.664536 -2.13319e-19)
(0.178271 -0.675171 2.04036e-19)
(0.177721 -0.685648 -2.05544e-19)
(0.177246 -0.695962 1.98334e-19)
(0.176842 -0.706107 0)
(0.176502 -0.71608 1.92323e-19)
(0.176223 -0.725878 -1.87236e-19)
(0.175999 -0.735498 0)
(0.175827 -0.744937 -1.82935e-19)
(0.175702 -0.754196 1.76889e-19)
(0.175621 -0.763272 -6.78714e-22)
(0.17558 -0.772165 -1.70892e-19)
(0.175576 -0.780876 3.32551e-19)
(0.175606 -0.789403 -1.61182e-19)
(0.175666 -0.797749 1.60539e-19)
(0.175755 -0.805915 1.5302e-21)
(0.249357 -0.349883 -5.09407e-21)
(0.244019 -0.36014 1.70612e-22)
(0.238949 -0.37061 6.34533e-21)
(0.234151 -0.381307 0)
(0.22963 -0.392229 -2.41464e-19)
(0.225385 -0.403372 4.58236e-19)
(0.221413 -0.414721 1.74139e-20)
(0.21771 -0.426257 1.60672e-20)
(0.214268 -0.43796 -2.52107e-19)
(0.211079 -0.449804 -3.89628e-21)
(0.208133 -0.461765 0)
(0.205421 -0.473818 -2.58191e-19)
(0.202932 -0.485938 -6.88171e-21)
(0.200655 -0.498099 2.50294e-19)
(0.198579 -0.510279 0)
(0.196694 -0.522455 1.12055e-23)
(0.194988 -0.534606 3.84215e-21)
(0.193452 -0.546713 -3.80486e-21)
(0.192075 -0.558757 0)
(0.190847 -0.570723 2.39455e-19)
(0.189758 -0.582595 -2.31984e-19)
(0.188801 -0.59436 0)
(0.187965 -0.606004 1.78325e-21)
(0.187243 -0.617517 2.27189e-19)
(0.186627 -0.628889 -2.15457e-19)
(0.186109 -0.640111 0)
(0.185681 -0.651175 2.15749e-19)
(0.185339 -0.662074 -2.08186e-19)
(0.185074 -0.672802 1.61205e-21)
(0.184881 -0.683355 0)
(0.184755 -0.693728 1.55081e-21)
(0.184689 -0.703917 0)
(0.184679 -0.713921 -1.9232e-19)
(0.184721 -0.723736 3.74419e-19)
(0.18481 -0.733362 -3.66867e-19)
(0.184941 -0.742797 1.80002e-19)
(0.185111 -0.75204 0)
(0.185316 -0.761093 6.72284e-22)
(0.185554 -0.769954 -1.69498e-19)
(0.18582 -0.778625 3.29322e-19)
(0.186111 -0.787107 -1.62945e-19)
(0.247696 -0.325286 -1.92714e-19)
(0.24228 -0.335938 1.82714e-19)
(0.237195 -0.346873 0)
(0.23244 -0.358086 7.13362e-21)
(0.228011 -0.369562 1.13084e-22)
(0.223904 -0.381282 0)
(0.220108 -0.393221 0)
(0.216613 -0.405353 1.5721e-20)
(0.213408 -0.417649 3.98969e-21)
(0.210479 -0.43008 3.98612e-21)
(0.207814 -0.442616 0)
(0.205398 -0.455229 -2.62586e-19)
(0.203218 -0.467892 2.47193e-19)
(0.201262 -0.480579 2.60143e-19)
(0.199514 -0.493265 -2.45315e-19)
(0.197964 -0.505927 -3.93951e-21)
(0.196598 -0.518545 3.90288e-21)
(0.195404 -0.531099 0)
(0.19437 -0.54357 3.81735e-21)
(0.193488 -0.555944 2.44256e-19)
(0.192744 -0.568205 -2.35077e-19)
(0.192129 -0.58034 -2.41018e-19)
(0.191634 -0.592337 2.30505e-19)
(0.19125 -0.604185 -3.55753e-21)
(0.190968 -0.615875 0)
(0.190781 -0.6274 3.4436e-21)
(0.190681 -0.638752 2.20273e-19)
(0.19066 -0.649925 -2.12771e-19)
(0.190713 -0.660913 2.10778e-19)
(0.190832 -0.671713 -4.10582e-19)
(0.191012 -0.682321 2.00003e-19)
(0.191248 -0.692733 -1.9902e-19)
(0.191534 -0.702947 1.92542e-19)
(0.191865 -0.712962 -7.4167e-22)
(0.192237 -0.722777 1.23381e-24)
(0.192646 -0.732392 7.1337e-22)
(0.193088 -0.741805 0)
(0.193559 -0.751018 -6.84258e-22)
(0.194055 -0.760031 0)
(0.194574 -0.768846 6.65156e-22)
(0.23684 -0.311473 0)
(0.231907 -0.323088 7.04233e-21)
(0.227354 -0.335006 7.4715e-21)
(0.223171 -0.347201 0)
(0.219344 -0.359641 -2.59231e-19)
(0.215858 -0.372294 2.38937e-19)
(0.212698 -0.385128 -8.02813e-21)
(0.209847 -0.398108 -4.08014e-21)
(0.207288 -0.411202 -2.67654e-19)
(0.205004 -0.424379 -1.16745e-20)
(0.20298 -0.437609 2.60154e-19)
(0.201198 -0.450864 0)
(0.199644 -0.464118 -2.63998e-19)
(0.198303 -0.477346 -8.63567e-21)
(0.197159 -0.490525 5.15081e-19)
(0.196199 -0.503636 -2.49436e-19)
(0.195411 -0.516659 -2.54003e-19)
(0.194781 -0.529577 4.91479e-19)
(0.194297 -0.542375 -2.45436e-19)
(0.193949 -0.55504 -1.88468e-21)
(0.193726 -0.567558 -1.86015e-21)
(0.193619 -0.57992 -2.33401e-19)
(0.193616 -0.592115 -4.5696e-21)
(0.19371 -0.604134 2.23543e-19)
(0.193892 -0.61597 -1.7477e-21)
(0.194154 -0.627616 0)
(0.194489 -0.639067 -1.69039e-21)
(0.19489 -0.650318 0)
(0.19535 -0.661366 0)
(0.195864 -0.672208 0)
(0.196426 -0.682842 1.57124e-21)
(0.197031 -0.693265 0)
(0.197674 -0.703478 -7.54529e-22)
(0.19835 -0.713479 1.25674e-24)
(0.199056 -0.723269 -7.26077e-22)
(0.199787 -0.732848 1.84336e-19)
(0.20054 -0.742217 -1.77279e-19)
(0.201312 -0.751377 1.77888e-19)
(0.215455 -0.325949 2.62206e-19)
(0.21206 -0.339208 -2.4176e-19)
(0.209025 -0.352658 8.2165e-21)
(0.206329 -0.36626 0)
(0.203951 -0.37998 -2.72364e-19)
(0.201873 -0.393783 2.60522e-19)
(0.200074 -0.407637 -2.18967e-23)
(0.198536 -0.421513 4.14926e-21)
(0.197241 -0.435384 0)
(0.196171 -0.449223 -4.1135e-21)
(0.195311 -0.463007 -4.09702e-21)
(0.194644 -0.476715 -2.63601e-19)
(0.194157 -0.490327 2.53665e-19)
(0.193834 -0.503826 3.98087e-21)
(0.193664 -0.517195 4.09334e-24)
(0.193633 -0.530421 2.55489e-19)
(0.193729 -0.543489 -2.42725e-19)
(0.193941 -0.556389 -1.89161e-21)
(0.19426 -0.56911 -1.86454e-21)
(0.194676 -0.581644 0)
(0.195179 -0.593983 2.33575e-19)
(0.195762 -0.606122 -2.25847e-19)
(0.196415 -0.618053 2.25881e-19)
(0.197133 -0.629774 -2.20283e-19)
(0.197908 -0.64128 -2.18058e-19)
(0.198733 -0.652567 2.12779e-19)
(0.199603 -0.663635 -1.62988e-21)
(0.200513 -0.674482 -2.04625e-19)
(0.201456 -0.685106 1.98239e-19)
(0.202429 -0.695507 -1.97583e-19)
(0.203427 -0.705685 1.93772e-19)
(0.204445 -0.715642 1.89807e-19)
(0.205481 -0.725377 -1.85483e-19)
(0.206531 -0.734893 -7.20308e-22)
(0.208552 -0.292603 0)
(0.205341 -0.30654 -9.9074e-23)
(0.20252 -0.320671 2.73273e-19)
(0.200065 -0.334954 -2.69312e-19)
(0.19795 -0.349353 0)
(0.196154 -0.363831 -8.45869e-21)
(0.194655 -0.378355 4.21469e-21)
(0.193431 -0.392894 2.77396e-19)
(0.192462 -0.407418 1.00757e-20)
(0.191728 -0.421903 -2.61281e-19)
(0.191213 -0.436322 -2.68815e-19)
(0.190898 -0.450655 2.62711e-19)
(0.190767 -0.464881 2.68341e-19)
(0.190805 -0.478983 -2.54497e-19)
(0.190999 -0.492943 2.66751e-19)
(0.191333 -0.506747 -2.57469e-19)
(0.191796 -0.520383 -3.95881e-21)
(0.192376 -0.533838 2.52914e-19)
(0.193062 -0.547104 -4.88008e-19)
(0.193844 -0.56017 -6.56998e-21)
(0.194711 -0.57303 2.37701e-19)
(0.195655 -0.585676 -2.38294e-19)
(0.196668 -0.598104 2.32451e-19)
(0.19774 -0.610307 -2.28797e-19)
(0.198866 -0.622283 4.49978e-19)
(0.200039 -0.634029 -2.19576e-19)
(0.201251 -0.645543 0)
(0.202498 -0.656823 -1.66622e-21)
(0.203773 -0.667868 1.63576e-21)
(0.205073 -0.678678 -3.21274e-21)
(0.206392 -0.689254 -2.03656e-19)
(0.207726 -0.699595 1.98311e-19)
(0.209071 -0.709705 1.51531e-21)
(0.210424 -0.719583 0)
(0.198872 -0.260043 -2.48172e-19)
(0.195949 -0.27471 2.64816e-19)
(0.19344 -0.289567 -5.46259e-19)
(0.191317 -0.304572 2.73474e-19)
(0.189552 -0.319686 -8.5628e-21)
(0.188122 -0.334871 -2.74839e-19)
(0.187 -0.350093 2.63109e-19)
(0.186163 -0.36532 2.79533e-19)
(0.18559 -0.380522 -2.77042e-19)
(0.185259 -0.395674 2.77768e-19)
(0.185152 -0.410749 -2.75771e-19)
(0.185249 -0.425726 0)
(0.185533 -0.440585 -4.2523e-21)
(0.185988 -0.455306 2.69736e-19)
(0.186598 -0.469874 -5.35629e-19)
(0.18735 -0.484274 2.61919e-19)
(0.188229 -0.498493 3.98678e-24)
(0.189224 -0.512518 0)
(0.190322 -0.52634 -7.99759e-21)
(0.191512 -0.539949 2.57004e-19)
(0.192784 -0.553339 -4.98228e-19)
(0.194129 -0.566502 2.43401e-19)
(0.195538 -0.579432 0)
(0.197001 -0.592126 0)
(0.198513 -0.604579 -2.36151e-19)
(0.200065 -0.616789 4.59306e-19)
(0.201652 -0.628754 -2.25128e-19)
(0.203267 -0.640472 2.24232e-19)
(0.204904 -0.651942 -2.17484e-19)
(0.206558 -0.663166 -1.93458e-24)
(0.208225 -0.674142 -2.12163e-19)
(0.209901 -0.684872 2.0426e-19)
(0.21158 -0.695358 -7.92625e-22)
(0.213261 -0.7056 -2.03019e-19)
(0.186747 -0.228705 8.06318e-21)
(0.184218 -0.24413 0)
(0.18212 -0.259738 8.57525e-21)
(0.180423 -0.275484 0)
(0.179097 -0.29133 2.96587e-19)
(0.178113 -0.307235 -2.84627e-19)
(0.177445 -0.323167 0)
(0.177069 -0.339092 8.87943e-21)
(0.17696 -0.354981 2.9518e-19)
(0.177098 -0.370806 -2.75291e-19)
(0.177459 -0.386544 -4.42932e-21)
(0.178026 -0.40217 4.41125e-21)
(0.17878 -0.417665 2.89737e-19)
(0.179704 -0.433011 -5.58541e-19)
(0.180781 -0.44819 2.7345e-19)
(0.181997 -0.463188 2.86523e-19)
(0.183337 -0.477992 -2.64482e-19)
(0.184788 -0.49259 -2.71917e-19)
(0.186338 -0.50697 5.40105e-19)
(0.187976 -0.521125 -2.60089e-19)
(0.18969 -0.535047 0)
(0.191471 -0.548729 0)
(0.193309 -0.562165 0)
(0.195197 -0.575351 0)
(0.197126 -0.588283 1.91244e-21)
(0.199088 -0.600958 0)
(0.201077 -0.613375 -1.85243e-21)
(0.203087 -0.625533 2.3648e-19)
(0.205112 -0.637429 -2.27718e-19)
(0.207147 -0.649066 -1.5628e-24)
(0.209186 -0.660443 -2.22429e-19)
(0.211226 -0.671562 2.15942e-19)
(0.213263 -0.682423 1.66574e-21)
(0.215292 -0.69303 0)
(0.170559 -0.215149 2.60759e-19)
(0.168967 -0.231507 -2.86002e-19)
(0.167783 -0.247994 5.64112e-19)
(0.166976 -0.264567 -2.69379e-19)
(0.166514 -0.281189 9.069e-21)
(0.166372 -0.297825 0)
(0.166521 -0.314442 -5.93016e-23)
(0.166939 -0.33101 -9.13588e-21)
(0.167602 -0.347503 2.98692e-19)
(0.168487 -0.363896 -2.78781e-19)
(0.169576 -0.380166 -1.6911e-23)
(0.170848 -0.396292 4.53662e-21)
(0.172286 -0.412256 0)
(0.173874 -0.428042 2.91065e-19)
(0.175596 -0.443633 -2.85964e-19)
(0.177436 -0.459018 2.85875e-19)
(0.179382 -0.474183 -5.59698e-19)
(0.181421 -0.489119 2.69701e-19)
(0.18354 -0.503816 4.27654e-21)
(0.18573 -0.518266 0)
(0.187979 -0.532463 0)
(0.190278 -0.546401 -2.65867e-19)
(0.192618 -0.560076 2.57898e-19)
(0.194991 -0.573483 -2.00182e-21)
(0.19739 -0.586621 0)
(0.199808 -0.599488 1.94131e-21)
(0.202237 -0.612081 -1.91032e-21)
(0.204673 -0.624401 0)
(0.207111 -0.636448 2.37965e-19)
(0.209544 -0.648222 -4.63097e-19)
(0.211969 -0.659725 2.2709e-19)
(0.214382 -0.670959 2.2367e-19)
(0.216778 -0.681925 -2.20416e-19)
(0.155444 -0.188039 2.75972e-19)
(0.154442 -0.205125 -2.72097e-19)
(0.153847 -0.222328 8.9306e-21)
(0.153628 -0.239606 3.0033e-19)
(0.153754 -0.25692 -2.79268e-19)
(0.154197 -0.274238 -9.29989e-21)
(0.154929 -0.291525 2.97883e-19)
(0.155925 -0.308753 2.15871e-20)
(0.157161 -0.325894 -2.97079e-19)
(0.158617 -0.342924 -1.41818e-20)
(0.16027 -0.35982 -9.44898e-21)
(0.162101 -0.376561 -3.10823e-19)
(0.164093 -0.39313 6.00512e-19)
(0.166228 -0.409507 -5.97252e-19)
(0.168489 -0.42568 2.88304e-19)
(0.170863 -0.441633 -2.97923e-19)
(0.173335 -0.457355 2.88645e-19)
(0.175892 -0.472835 4.5149e-21)
(0.178522 -0.488064 -2.891e-19)
(0.181214 -0.503034 2.80392e-19)
(0.183956 -0.517738 4.36954e-21)
(0.186741 -0.53217 0)
(0.189557 -0.546326 0)
(0.192398 -0.560202 -2.71088e-19)
(0.195255 -0.573796 2.63238e-19)
(0.198121 -0.587104 2.61076e-19)
(0.200991 -0.600128 -2.55578e-19)
(0.203857 -0.612864 0)
(0.206715 -0.625315 3.89255e-21)
(0.209559 -0.637481 -2.46407e-19)
(0.212385 -0.649362 2.41328e-19)
(0.21519 -0.660962 2.37824e-19)
(0.217969 -0.672282 -2.36324e-19)
(0.139372 -0.162977 2.76429e-19)
(0.139026 -0.180748 0)
(0.139082 -0.198625 -9.23486e-21)
(0.139507 -0.216567 -1.02751e-22)
(0.140271 -0.234536 -9.54078e-21)
(0.141345 -0.252499 3.24427e-19)
(0.142702 -0.270423 -6.2017e-19)
(0.144317 -0.288278 3.1532e-19)
(0.146165 -0.306038 0)
(0.148225 -0.323677 3.19418e-19)
(0.150476 -0.341173 -2.93992e-19)
(0.152897 -0.358506 0)
(0.155471 -0.375655 3.21949e-19)
(0.15818 -0.392605 -6.22522e-19)
(0.161008 -0.409338 6.24057e-19)
(0.16394 -0.425843 7.40697e-21)
(0.166962 -0.442105 -6.10686e-19)
(0.17006 -0.458114 2.99537e-19)
(0.173222 -0.473861 -7.07743e-24)
(0.176436 -0.489338 2.99846e-19)
(0.179692 -0.504536 -3.00289e-19)
(0.18298 -0.519451 0)
(0.186291 -0.534078 0)
(0.189617 -0.548413 -2.87593e-19)
(0.192949 -0.562452 -4.15079e-21)
(0.19628 -0.576194 2.75638e-19)
(0.199603 -0.589638 0)
(0.202914 -0.602783 0)
(0.206206 -0.615629 -2.05552e-21)
(0.209474 -0.628178 -2.02227e-21)
(0.212714 -0.64043 -3.97751e-21)
(0.215922 -0.652388 2.53531e-19)
(0.219094 -0.664053 -5.00787e-19)
(0.123197 -0.158438 2.82257e-19)
(0.123946 -0.176932 3.10363e-19)
(0.125055 -0.195485 -3.07943e-19)
(0.126492 -0.214059 -3.11334e-19)
(0.12823 -0.23262 2.9942e-19)
(0.130241 -0.251135 0)
(0.132501 -0.269577 -1.01308e-20)
(0.134986 -0.287916 3.31226e-19)
(0.137673 -0.30613 2.19672e-20)
(0.140543 -0.324194 -6.63619e-19)
(0.143574 -0.342087 3.165e-19)
(0.14675 -0.35979 3.25942e-19)
(0.150051 -0.377285 -3.20849e-19)
(0.153463 -0.394557 0)
(0.156969 -0.41159 -3.26246e-19)
(0.160556 -0.428372 6.40561e-19)
(0.164209 -0.444892 -3.19462e-19)
(0.167917 -0.46114 -4.93121e-21)
(0.171668 -0.477107 0)
(0.175451 -0.492786 4.83686e-21)
(0.179256 -0.50817 0)
(0.183073 -0.523254 0)
(0.186894 -0.538035 -2.98921e-19)
(0.190712 -0.552508 2.95183e-19)
(0.194518 -0.566673 0)
(0.198306 -0.580527 0)
(0.20207 -0.59407 -2.20945e-21)
(0.205805 -0.607302 -2.82487e-19)
(0.209506 -0.620224 2.72591e-19)
(0.213168 -0.632838 3.63578e-25)
(0.216786 -0.645144 -2.6877e-19)
(0.220359 -0.657147 2.652e-19)
(0.107402 -0.138171 3.10525e-19)
(0.108869 -0.157216 -2.88807e-19)
(0.110681 -0.176316 3.15942e-19)
(0.112811 -0.195436 -3.33984e-19)
(0.115229 -0.214539 -3.25837e-19)
(0.117909 -0.233596 3.14153e-19)
(0.120828 -0.252576 0)
(0.123961 -0.271452 0)
(0.127287 -0.290199 -3.46089e-19)
(0.130786 -0.308793 3.35174e-19)
(0.134437 -0.327213 1.59966e-20)
(0.138223 -0.345437 5.32504e-21)
(0.142125 -0.363449 5.31819e-21)
(0.146128 -0.381231 -3.44515e-19)
(0.150216 -0.398769 -8.37558e-21)
(0.154375 -0.416049 3.32972e-19)
(0.158592 -0.433058 3.38468e-19)
(0.162853 -0.449788 -3.28908e-19)
(0.167146 -0.466228 0)
(0.171462 -0.48237 0)
(0.175789 -0.498207 -3.2618e-19)
(0.180119 -0.513735 3.22128e-19)
(0.184442 -0.528949 3.18624e-19)
(0.18875 -0.543844 -6.26921e-19)
(0.193037 -0.55842 3.06001e-19)
(0.197294 -0.572673 -3.06142e-19)
(0.201517 -0.586603 6.01901e-19)
(0.205699 -0.600211 -2.91244e-19)
(0.209836 -0.613496 0)
(0.213923 -0.626461 2.90203e-19)
(0.217957 -0.639107 -5.63406e-19)
(0.221932 -0.651437 2.77354e-19)
(0.0920359 -0.119853 -2.95655e-19)
(0.0942263 -0.139374 -9.99439e-21)
(0.096748 -0.158953 1.02626e-20)
(0.0995723 -0.178553 3.43333e-19)
(0.102672 -0.19814 -3.20791e-19)
(0.106023 -0.217682 2.15769e-20)
(0.109601 -0.237149 -3.56997e-19)
(0.113383 -0.256514 -1.41839e-20)
(0.117347 -0.27575 3.37493e-19)
(0.121474 -0.294834 1.1124e-20)
(0.125745 -0.313742 -1.12159e-20)
(0.13014 -0.332454 -5.61418e-21)
(0.134642 -0.350951 -5.61187e-21)
(0.139236 -0.369215 -5.58154e-21)
(0.143906 -0.387231 0)
(0.148637 -0.404984 0)
(0.153416 -0.422461 -5.5109e-21)
(0.158229 -0.439652 0)
(0.163066 -0.456546 -3.57076e-19)
(0.167915 -0.473134 -1.18807e-20)
(0.172765 -0.48941 6.78736e-19)
(0.177606 -0.505367 -6.82483e-19)
(0.182431 -0.521 3.32245e-19)
(0.187231 -0.536305 -5.16919e-21)
(0.191998 -0.551279 -2.55319e-21)
(0.196725 -0.56592 0)
(0.201407 -0.580227 3.20559e-19)
(0.206036 -0.594199 -6.27954e-19)
(0.21061 -0.607838 3.07521e-19)
(0.215122 -0.621145 0)
(0.219569 -0.634121 3.03839e-19)
(0.223947 -0.646769 -2.95336e-19)
(0.0774341 -0.103333 -3.28501e-19)
(0.0803389 -0.123253 6.45523e-19)
(0.083559 -0.143238 -3.27218e-19)
(0.0870674 -0.163251 1.08859e-20)
(0.0908385 -0.183258 -3.74113e-19)
(0.0948482 -0.203227 -1.7398e-20)
(0.0990736 -0.223127 7.41203e-19)
(0.103493 -0.242931 -3.72967e-19)
(0.108085 -0.262611 3.79403e-19)
(0.11283 -0.282142 -3.79818e-19)
(0.117709 -0.301501 0)
(0.122704 -0.320664 0)
(0.127798 -0.339614 -5.88502e-21)
(0.132974 -0.35833 3.88089e-19)
(0.138216 -0.376797 -3.71468e-19)
(0.143512 -0.394999 -5.84887e-21)
(0.148846 -0.412921 -3.77403e-19)
(0.154205 -0.430553 3.67169e-19)
(0.159578 -0.447883 -3.6083e-19)
(0.164954 -0.464901 3.68104e-19)
(0.170321 -0.481599 3.71701e-19)
(0.175671 -0.497971 6.13114e-21)
(0.180993 -0.51401 -3.52884e-19)
(0.186279 -0.529712 5.5027e-21)
(0.191522 -0.545073 -3.47651e-19)
(0.196715 -0.560092 3.38485e-19)
(0.201851 -0.574765 -2.64746e-21)
(0.206924 -0.589094 0)
(0.21193 -0.603077 -3.31739e-19)
(0.216864 -0.616717 -3.73352e-21)
(0.221721 -0.630014 -6.01078e-21)
(0.226499 -0.642972 3.17655e-19)
(0.0638678 -0.0884218 3.49447e-19)
(0.0674628 -0.108662 -3.16528e-19)
(0.0713573 -0.128979 1.08941e-20)
(0.0755258 -0.149337 1.12065e-20)
(0.0799446 -0.169701 1.14749e-20)
(0.0845907 -0.190038 3.73567e-19)
(0.0894424 -0.210317 -7.76375e-19)
(0.0944783 -0.23051 3.91263e-19)
(0.0996779 -0.250587 1.22606e-20)
(0.105022 -0.270522 0)
(0.110491 -0.290291 -4.14967e-19)
(0.116068 -0.30987 -1.23999e-20)
(0.121735 -0.32924 3.98513e-19)
(0.127477 -0.348378 0)
(0.133277 -0.367269 -4.02888e-19)
(0.139122 -0.385895 3.98246e-19)
(0.144998 -0.404241 1.23564e-20)
(0.150891 -0.422293 3.97788e-19)
(0.156789 -0.440041 1.81798e-21)
(0.16268 -0.457472 -3.7887e-19)
(0.168555 -0.474578 0)
(0.174401 -0.491351 -3.8567e-19)
(0.180211 -0.507784 -6.18629e-21)
(0.185976 -0.523873 3.77853e-19)
(0.191687 -0.539611 -3.67731e-19)
(0.197337 -0.554998 3.66733e-19)
(0.20292 -0.570029 2.82921e-21)
(0.208431 -0.584705 0)
(0.213862 -0.599025 0)
(0.21921 -0.61299 2.71012e-21)
(0.224471 -0.626602 2.66953e-21)
(0.229641 -0.639862 0)
(0.0515399 -0.0749043 3.61818e-19)
(0.0557894 -0.0953851 -3.28422e-19)
(0.0603231 -0.115961 3.65689e-19)
(0.0651178 -0.136597 -3.76813e-19)
(0.0701518 -0.157256 -1.18043e-22)
(0.0754035 -0.177905 0)
(0.0808516 -0.19851 0)
(0.0864749 -0.219042 4.15274e-19)
(0.0922535 -0.239469 -8.35246e-19)
(0.098168 -0.259765 4.07304e-19)
(0.104201 -0.279905 1.30875e-20)
(0.110334 -0.299864 0)
(0.11655 -0.31962 -4.27194e-19)
(0.122835 -0.339151 -1.16868e-20)
(0.129171 -0.358439 8.43218e-19)
(0.135546 -0.377465 -4.22466e-19)
(0.141943 -0.396213 4.24769e-19)
(0.148352 -0.414667 -4.07298e-19)
(0.154757 -0.432815 0)
(0.161149 -0.450645 -1.29324e-20)
(0.167515 -0.468146 6.41328e-21)
(0.173846 -0.485308 4.11274e-19)
(0.180131 -0.502125 -3.94517e-19)
(0.186361 -0.51859 -6.26032e-21)
(0.192529 -0.534698 -1.2377e-20)
(0.198626 -0.550444 -3.94388e-19)
(0.204647 -0.565827 3.84328e-19)
(0.210583 -0.580843 3.84454e-19)
(0.216431 -0.595494 7.539e-21)
(0.222186 -0.609778 -3.7233e-19)
(0.227842 -0.623698 -3.73873e-19)
(0.233396 -0.637254 -3.87643e-21)
(0.0405944 -0.0625689 -2.04625e-19)
(0.0454536 -0.0832121 1.64909e-19)
(0.0505807 -0.103975 1.96953e-19)
(0.0559553 -0.124821 -1.90812e-19)
(0.0615593 -0.145715 4.03024e-19)
(0.0673745 -0.166619 -4.03094e-19)
(0.073381 -0.187497 0)
(0.0795565 -0.208314 1.33287e-20)
(0.0858797 -0.229043 4.42275e-19)
(0.0923309 -0.249656 -4.29963e-19)
(0.0988933 -0.270126 0)
(0.10555 -0.290429 1.38508e-20)
(0.112286 -0.310539 1.39133e-20)
(0.119084 -0.330434 0)
(0.12593 -0.350094 0)
(0.132808 -0.369497 7.00963e-21)
(0.139705 -0.388627 -1.39697e-20)
(0.146606 -0.407466 4.43638e-19)
(0.153499 -0.426 -4.32377e-19)
(0.160372 -0.444215 1.95346e-23)
(0.167213 -0.462099 -1.37131e-20)
(0.17401 -0.479641 0)
(0.180755 -0.496833 4.28899e-19)
(0.187437 -0.513667 -4.24762e-19)
(0.194048 -0.530137 6.62978e-21)
(0.20058 -0.546238 -3.27235e-21)
(0.207025 -0.561967 0)
(0.213377 -0.57732 -3.19475e-21)
(0.219631 -0.592296 -5.49574e-24)
(0.22578 -0.606896 -3.97606e-19)
(0.231821 -0.62112 3.90435e-19)
(0.23775 -0.63497 0)
(0.0310826 -0.0512147 -2.2612e-20)
(0.0364975 -0.0719332 1.98657e-19)
(0.0421647 -0.0927898 -2.04882e-19)
(0.0480684 -0.11376 2.25803e-19)
(0.0542002 -0.134833 -1.93595e-19)
(0.0605432 -0.155969 -2.23871e-19)
(0.0670697 -0.177099 2.17235e-19)
(0.0737512 -0.198161 -2.59245e-19)
(0.0805695 -0.219134 2.53156e-19)
(0.0875127 -0.24001 1.44462e-20)
(0.0945646 -0.260766 1.45874e-20)
(0.101709 -0.281373 -2.94737e-20)
(0.108929 -0.301804 -1.48532e-20)
(0.116209 -0.322035 -4.82685e-19)
(0.123535 -0.34204 9.613e-19)
(0.13089 -0.3618 -4.78694e-19)
(0.13826 -0.381293 -4.74978e-19)
(0.145631 -0.4005 -1.05438e-20)
(0.152989 -0.419406 4.61849e-19)
(0.160323 -0.437994 7.38717e-21)
(0.167618 -0.456251 7.34496e-21)
(0.174866 -0.474165 0)
(0.182053 -0.491725 -7.22086e-21)
(0.189171 -0.508923 0)
(0.19621 -0.525751 -7.09111e-21)
(0.203163 -0.542202 4.63368e-19)
(0.21002 -0.558273 -8.89113e-19)
(0.216775 -0.57396 4.36358e-19)
(0.223423 -0.58926 4.32853e-19)
(0.229957 -0.604174 -4.28513e-19)
(0.236372 -0.6187 3.29639e-21)
(0.242665 -0.632841 -3.28782e-21)
(0.0230147 -0.0406755 2.05594e-19)
(0.0289344 -0.0614065 0)
(0.0350962 -0.0823025 -2.16003e-19)