/*--------------------------------*- C++ -*----------------------------------*\
  =========                 |
  \\      /  F ield         | OpenFOAM: The Open Source CFD Toolbox
   \\    /   O peration     | Website:  https://openfoam.org
    \\  /    A nd           | Version:  10
     \\/     M anipulation  |
\*---------------------------------------------------------------------------*/
FoamFile
{
    format      ascii;
    class       volScalarField;
    location    "50000";
    object      p;
}
// * * * * * * * * * * * * * * * * * * * * * * * * * * * * * * * * * * * * * //

dimensions      [0 2 -2 0 0 0 0];

internalField   nonuniform List<scalar> 
17969
(
-5.94999
-5.94033
-5.93266
-5.92457
-5.91593
-5.90683
-5.89724
-5.88706
-5.87622
-5.86468
-5.85223
-5.8386
-5.82363
-5.80724
-5.78944
-5.7703
-5.7498
-5.72819
-5.70581
-5.68262
-5.65843
-5.63332
-5.60734
-5.58053
-5.55286
-5.52426
-5.49476
-5.46438
-5.43301
-5.40063
-5.36724
-5.33279
-5.29726
-5.26063
-5.22285
-5.18391
-5.14376
-5.10237
-5.05971
-5.01573
-4.97041
-4.92371
-4.87558
-4.82598
-4.77487
-4.72221
-4.66794
-4.61203
-4.55442
-4.49505
-4.43389
-4.37087
-4.30593
-4.23903
-4.17009
-4.09905
-4.02586
-3.95044
-3.87272
-3.79265
-3.71013
-3.62511
-3.5375
-3.44722
-3.3542
-3.25835
-3.15959
-3.05784
-2.95302
-2.84502
-2.73378
-2.61919
-2.50118
-2.37965
-2.25631
-2.13465
-2.01636
-1.90135
-1.78947
-1.68066
-1.57492
-1.47221
-1.37245
-1.27557
-1.18149
-1.09015
-1.00147
-0.915394
-0.831855
-0.750806
-0.672138
-0.595724
-0.521506
-0.449438
-0.379445
-0.311466
-0.245448
-0.181339
-0.119086
-0.0586436
-5.94901
-5.93941
-5.93171
-5.92365
-5.91516
-5.90629
-5.89704
-5.88737
-5.87718
-5.86635
-5.85482
-5.84262
-5.8296
-5.81548
-5.80006
-5.78324
-5.76496
-5.74524
-5.72412
-5.70163
-5.678
-5.65356
-5.6282
-5.60179
-5.57442
-5.5461
-5.51686
-5.48668
-5.45554
-5.42342
-5.39029
-5.35612
-5.32087
-5.28452
-5.24704
-5.20839
-5.16854
-5.12746
-5.0851
-5.04143
-4.99641
-4.95001
-4.90218
-4.85288
-4.80207
-4.7497
-4.69572
-4.64009
-4.58275
-4.52365
-4.46275
-4.39998
-4.33529
-4.26861
-4.19988
-4.12905
-4.05604
-3.98079
-3.90323
-3.82327
-3.74086
-3.65592
-3.56835
-3.47809
-3.38505
-3.28915
-3.1903
-3.08841
-2.9834
-2.87517
-2.76364
-2.64871
-2.53029
-2.40829
-2.28442
-2.16218
-2.0433
-1.92765
-1.8151
-1.70561
-1.59918
-1.49578
-1.39532
-1.29774
-1.20296
-1.11092
-1.02155
-0.934782
-0.850554
-0.768814
-0.689506
-0.612532
-0.537755
-0.465089
-0.394501
-0.325941
-0.259351
-0.194681
-0.131878
-0.0708916
-5.94846
-5.93889
-5.93115
-5.92309
-5.91467
-5.90594
-5.89687
-5.88744
-5.87762
-5.86733
-5.8565
-5.84504
-5.83285
-5.81991
-5.80618
-5.79144
-5.77543
-5.75802
-5.73914
-5.71875
-5.69688
-5.67359
-5.64889
-5.62305
-5.59637
-5.56871
-5.53992
-5.51007
-5.47923
-5.44739
-5.41454
-5.38067
-5.34573
-5.30969
-5.27253
-5.2342
-5.19467
-5.15391
-5.11188
-5.06853
-5.02384
-4.97777
-4.93026
-4.88128
-4.83079
-4.77873
-4.72506
-4.66974
-4.6127
-4.5539
-4.49328
-4.43079
-4.36636
-4.29994
-4.23146
-4.16086
-4.08807
-4.01301
-3.93563
-3.85583
-3.77356
-3.68871
-3.60123
-3.51101
-3.41798
-3.32205
-3.22312
-3.12111
-3.01593
-2.90748
-2.79566
-2.68038
-2.56155
-2.43907
-2.31465
-2.19181
-2.07229
-1.95598
-1.84273
-1.73252
-1.62536
-1.52121
-1.42
-1.32166
-1.22612
-1.13332
-1.0432
-0.95568
-0.870708
-0.788221
-0.708172
-0.630505
-0.555129
-0.481886
-0.410669
-0.341457
-0.274232
-0.208942
-0.145532
-0.0839523
-5.94793
-5.93835
-5.93056
-5.92247
-5.91406
-5.90536
-5.89635
-5.88701
-5.87732
-5.86724
-5.85675
-5.84577
-5.83424
-5.82206
-5.80912
-5.79536
-5.7808
-5.76529
-5.74857
-5.73047
-5.71088
-5.68977
-5.66713
-5.64301
-5.61744
-5.59049
-5.5624
-5.53337
-5.50328
-5.472
-5.43959
-5.40609
-5.37151
-5.33583
-5.29902
-5.26104
-5.22187
-5.18146
-5.13979
-5.0968
-5.05246
-5.00673
-4.95957
-4.91094
-4.86079
-4.80907
-4.75574
-4.70074
-4.64404
-4.58556
-4.52526
-4.46307
-4.39894
-4.33281
-4.26461
-4.19427
-4.12173
-4.04691
-3.96974
-3.89013
-3.80802
-3.72332
-3.63594
-3.5458
-3.45281
-3.35688
-3.25791
-3.1558
-3.05047
-2.94181
-2.82972
-2.7141
-2.59486
-2.47189
-2.34691
-2.22346
-2.10328
-1.98628
-1.87231
-1.76135
-1.65341
-1.54847
-1.44646
-1.3473
-1.25095
-1.15734
-1.0664
-0.978078
-0.892305
-0.809024
-0.728179
-0.649723
-0.573606
-0.499724
-0.427903
-0.358026
-0.290097
-0.224122
-0.160049
-0.0978221
-0.0373942
0.0212799
0.0782439
0.133541
-5.94735
-5.93774
-5.9299
-5.92175
-5.9133
-5.90457
-5.89554
-5.8862
-5.87652
-5.86649
-5.85608
-5.84525
-5.83398
-5.8222
-5.80985
-5.79685
-5.78308
-5.76845
-5.75294
-5.73652
-5.71898
-5.7001
-5.67979
-5.65796
-5.63459
-5.60969
-5.5833
-5.55544
-5.52618
-5.49573
-5.46425
-5.43161
-5.39769
-5.36255
-5.32621
-5.28866
-5.24991
-5.2099
-5.16862
-5.12602
-5.08207
-5.03672
-4.98994
-4.94168
-4.8919
-4.84055
-4.78758
-4.73294
-4.67659
-4.61847
-4.55851
-4.49667
-4.43287
-4.36706
-4.29917
-4.22914
-4.15688
-4.08233
-4.0054
-3.92603
-3.84413
-3.7596
-3.67237
-3.58235
-3.48943
-3.39353
-3.29455
-3.19238
-3.08693
-2.97808
-2.86575
-2.74981
-2.63016
-2.50671
-2.38116
-2.25708
-2.13623
-2.01851
-1.90381
-1.79207
-1.68332
-1.57755
-1.47469
-1.37467
-1.27746
-1.18297
-1.09117
-1.00198
-0.915343
-0.83121
-0.749521
-0.670223
-0.593273
-0.51862
-0.446121
-0.375577
-0.306917
-0.240188
-0.175387
-0.112458
-0.0513488
0.00798734
0.0655936
0.121513
-5.94681
-5.93716
-5.92926
-5.92105
-5.91255
-5.90376
-5.89469
-5.8853
-5.87559
-5.86554
-5.85513
-5.84434
-5.83314
-5.82149
-5.80937
-5.79671
-5.78346
-5.76954
-5.75486
-5.7393
-5.7228
-5.70539
-5.68695
-5.66726
-5.64618
-5.62362
-5.59953
-5.57389
-5.54668
-5.51793
-5.48766
-5.45594
-5.42297
-5.38884
-5.3534
-5.31659
-5.27843
-5.23894
-5.19813
-5.15598
-5.11246
-5.06753
-5.02116
-4.9733
-4.92392
-4.87296
-4.82039
-4.76615
-4.71018
-4.65244
-4.59286
-4.53139
-4.46797
-4.40252
-4.33498
-4.26528
-4.19335
-4.11911
-4.04248
-3.96338
-3.88172
-3.79742
-3.71038
-3.62051
-3.52772
-3.43189
-3.33294
-3.23074
-3.12521
-3.01621
-2.90366
-2.78742
-2.66739
-2.54346
-2.41735
-2.29263
-2.17109
-2.05265
-1.9372
-1.82466
-1.71507
-1.60842
-1.50467
-1.40376
-1.30563
-1.21022
-1.11749
-1.02737
-0.939819
-0.854772
-0.772181
-0.691993
-0.614158
-0.538637
-0.465346
-0.394072
-0.32464
-0.257101
-0.191519
-0.127838
-0.0659999
-0.00595723
0.0523338
0.108916
-5.94636
-5.93668
-5.92872
-5.92047
-5.91191
-5.90307
-5.89395
-5.88452
-5.87476
-5.86468
-5.85423
-5.84342
-5.83223
-5.82062
-5.80858
-5.79607
-5.78305
-5.76947
-5.75528
-5.74041
-5.72477
-5.70826
-5.6908
-5.67236
-5.65292
-5.63235
-5.61044
-5.58709
-5.56222
-5.53576
-5.50769
-5.47799
-5.44665
-5.4137
-5.37924
-5.34349
-5.3064
-5.26782
-5.22776
-5.18623
-5.14326
-5.09884
-5.05294
-5.00555
-4.95661
-4.90609
-4.85395
-4.80014
-4.7446
-4.68728
-4.62812
-4.56706
-4.50404
-4.439
-4.37185
-4.30254
-4.23097
-4.15709
-4.0808
-4.00201
-3.92065
-3.83662
-3.74982
-3.66016
-3.56753
-3.47183
-3.37295
-3.27078
-3.1652
-3.0561
-2.94336
-2.82686
-2.70648
-2.5821
-2.45543
-2.33008
-2.20783
-2.08865
-1.97243
-1.85909
-1.74863
-1.64109
-1.53641
-1.43455
-1.33546
-1.23909
-1.14537
-1.05427
-0.965737
-0.879714
-0.796156
-0.715017
-0.636245
-0.559803
-0.485629
-0.413494
-0.343197
-0.274807
-0.208402
-0.143925
-0.0813153
-0.020524
0.038493
0.0957791
0.151377
-5.94603
-5.93632
-5.92832
-5.92002
-5.91142
-5.90254
-5.89338
-5.88391
-5.87412
-5.86401
-5.85354
-5.84271
-5.8315
-5.8199
-5.80787
-5.79542
-5.7825
-5.76908
-5.75513
-5.7406
-5.72543
-5.70957
-5.69294
-5.67546
-5.65702
-5.63755
-5.61704
-5.59544
-5.57258
-5.54831
-5.52251
-5.49511
-5.46604
-5.43525
-5.40272
-5.36846
-5.33251
-5.29501
-5.2561
-5.21567
-5.17362
-5.12997
-5.08475
-5.03795
-4.98958
-4.93959
-4.88796
-4.83464
-4.77958
-4.72274
-4.66405
-4.60346
-4.5409
-4.4763
-4.40959
-4.34071
-4.26956
-4.19608
-4.12018
-4.04176
-3.96075
-3.87704
-3.79053
-3.70113
-3.60872
-3.5132
-3.41445
-3.31236
-3.2068
-3.09764
-2.98477
-2.86805
-2.74735
-2.62254
-2.49535
-2.36937
-2.24641
-2.12646
-2.00946
-1.8953
-1.78398
-1.67551
-1.56988
-1.46704
-1.36695
-1.26955
-1.17481
-1.08268
-0.993097
-0.906033
-0.821441
-0.739277
-0.6595
-0.582078
-0.506919
-0.433791
-0.362554
-0.293289
-0.226032
-0.160722
-0.0973012
-0.0357224
0.0240592
0.0820873
0.138405
0.193053
0.246073
-5.9458
-5.93607
-5.92803
-5.9197
-5.91107
-5.90216
-5.89297
-5.88348
-5.87367
-5.86353
-5.85305
-5.8422
-5.83099
-5.81938
-5.80737
-5.79493
-5.78204
-5.76869
-5.75485
-5.74048
-5.72555
-5.71002
-5.69384
-5.67695
-5.65927
-5.64074
-5.62125
-5.60072
-5.57907
-5.55628
-5.53228
-5.5069
-5.47999
-5.45145
-5.42118
-5.38914
-5.35527
-5.31956
-5.28202
-5.24276
-5.20193
-5.15952
-5.11541
-5.06957
-5.02204
-4.97281
-4.92187
-4.86919
-4.81474
-4.75848
-4.70035
-4.6403
-4.57826
-4.51417
-4.44797
-4.37958
-4.30891
-4.23589
-4.16043
-4.08244
-4.00183
-3.9185
-3.83234
-3.74326
-3.65114
-3.55585
-3.4573
-3.35534
-3.24985
-3.14071
-3.02776
-2.91088
-2.78991
-2.66473
-2.53704
-2.41046
-2.28681
-2.16608
-2.04826
-1.93327
-1.82106
-1.71164
-1.60503
-1.50118
-1.40006
-1.30161
-1.20579
-1.11257
-1.02189
-0.933729
-0.848034
-0.764767
-0.683898
-0.605409
-0.529163
-0.454953
-0.38274
-0.312578
-0.244436
-0.178255
-0.113984
-0.0515777
0.00900915
0.0678193
0.124895
0.180278
0.234009
0.286129
-5.94566
-5.9359
-5.92784
-5.91949
-5.91084
-5.90192
-5.89271
-5.8832
-5.87338
-5.86323
-5.85273
-5.84188
-5.83067
-5.81906
-5.80705
-5.79463
-5.78176
-5.76844
-5.75465
-5.74035
-5.72553
-5.71015
-5.69419
-5.67759
-5.66032
-5.64231
-5.62349
-5.6038
-5.58315
-5.56144
-5.53858
-5.51448
-5.48909
-5.46236
-5.43413
-5.40424
-5.3726
-5.33912
-5.30374
-5.26645
-5.22724
-5.18617
-5.14337
-5.09889
-5.05265
-5.00459
-4.95469
-4.90296
-4.84937
-4.79389
-4.73649
-4.67713
-4.61574
-4.55228
-4.48667
-4.41885
-4.34874
-4.27625
-4.20131
-4.12382
-4.04368
-3.96078
-3.87504
-3.78636
-3.6946
-3.59962
-3.50132
-3.39957
-3.29424
-3.18517
-3.07222
-2.95524
-2.83408
-2.70858
-2.58046
-2.45332
-2.32901
-2.20752
-2.08884
-1.97297
-1.85986
-1.74948
-1.64182
-1.53689
-1.43467
-1.33513
-1.23822
-1.1439
-1.05212
-0.962843
-0.876015
-0.791568
-0.70947
-0.629731
-0.552327
-0.477124
-0.403967
-0.332837
-0.26374
-0.196629
-0.131453
-0.0681643
-0.00672092
0.0529202
0.110801
0.166963
0.221447
0.274294
0.325545
0.375239
-5.94559
-5.9358
-5.92773
-5.91937
-5.91071
-5.90178
-5.89257
-5.88305
-5.87323
-5.86307
-5.85258
-5.84173
-5.83051
-5.81891
-5.80691
-5.7945
-5.78166
-5.76836
-5.75459
-5.74034
-5.72557
-5.71026
-5.69439
-5.67793
-5.66084
-5.64309
-5.62463
-5.60539
-5.58532
-5.56435
-5.54238
-5.51933
-5.49511
-5.46961
-5.44271
-5.41438
-5.38457
-5.35313
-5.31991
-5.28481
-5.24779
-5.20879
-5.16779
-5.12484
-5.08004
-5.03346
-4.98504
-4.93466
-4.8823
-4.82794
-4.77157
-4.71315
-4.65264
-4.58999
-4.52514
-4.45805
-4.38862
-4.31679
-4.24247
-4.16558
-4.08604
-4.00366
-3.91835
-3.83014
-3.73883
-3.64423
-3.54625
-3.44481
-3.33973
-3.23084
-3.11798
-3.00099
-2.87972
-2.75398
-2.62549
-2.49786
-2.37295
-2.25075
-2.13127
-2.0145
-1.90042
-1.78904
-1.68036
-1.57437
-1.47105
-1.37037
-1.27232
-1.17685
-1.08387
-0.993365
-0.905309
-0.819649
-0.736346
-0.655379
-0.576743
-0.500423
-0.426288
-0.354163
-0.284028
-0.215907
-0.149757
-0.0855267
-0.0231702
0.0373547
0.0960898
0.153077
0.208357
0.261971
0.31396
0.364365
0.413227
0.460585
0.50648
0.550951
-5.94556
-5.93575
-5.92768
-5.91932
-5.91066
-5.90173
-5.89252
-5.88301
-5.87318
-5.86303
-5.85254
-5.8417
-5.83049
-5.8189
-5.80692
-5.79452
-5.78169
-5.76842
-5.75469
-5.74046
-5.72573
-5.71048
-5.69466
-5.67827
-5.66128
-5.64365
-5.62534
-5.60633
-5.58656
-5.56598
-5.54453
-5.52212
-5.49869
-5.47414
-5.44837
-5.42129
-5.3928
-5.36278
-5.33117
-5.29791
-5.26291
-5.22603
-5.18719
-5.14635
-5.10345
-5.05856
-5.01176
-4.96301
-4.9122
-4.8593
-4.8043
-4.74715
-4.68783
-4.62629
-4.56248
-4.49634
-4.42781
-4.35682
-4.28327
-4.20711
-4.12826
-4.04657
-3.96199
-3.87437
-3.78361
-3.68954
-3.59193
-3.49082
-3.3861
-3.27747
-3.16477
-3.04787
-2.92659
-2.80072
-2.67196
-2.54393
-2.41849
-2.29567
-2.17546
-2.05786
-1.94289
-1.83053
-1.72081
-1.61371
-1.50924
-1.40737
-1.30809
-1.21138
-1.1172
-1.02547
-0.936154
-0.849224
-0.764655
-0.682414
-0.602482
-0.524862
-0.449539
-0.376379
-0.305215
-0.23603
-0.168846
-0.10362
-0.0403006
0.0211555
0.0807902
0.138645
0.194762
0.249182
0.301947
0.353096
0.402672
0.450715
0.497265
0.542362
-5.94558
-5.93574
-5.92768
-5.91932
-5.91067
-5.90174
-5.89254
-5.88303
-5.87322
-5.86307
-5.8526
-5.84177
-5.83057
-5.819
-5.80703
-5.79466
-5.78186
-5.76861
-5.75491
-5.74072
-5.72603
-5.71081
-5.69505
-5.67872
-5.66179
-5.64423
-5.62602
-5.60712
-5.5875
-5.56712
-5.54593
-5.52387
-5.5009
-5.47692
-5.45187
-5.42565
-5.39817
-5.36934
-5.33906
-5.30724
-5.27377
-5.23857
-5.20155
-5.16265
-5.1218
-5.07891
-5.03399
-4.98703
-4.93796
-4.88677
-4.8334
-4.77783
-4.72
-4.65988
-4.59741
-4.53253
-4.46519
-4.39531
-4.32282
-4.24762
-4.16967
-4.08884
-4.00503
-3.91809
-3.82787
-3.73437
-3.63758
-3.5372
-3.43291
-3.32468
-3.21232
-3.09561
-2.97441
-2.84848
-2.71954
-2.59122
-2.46537
-2.342
-2.22112
-2.10276
-1.98693
-1.87363
-1.76289
-1.6547
-1.54907
-1.44599
-1.34545
-1.24743
-1.1519
-1.05885
-0.968258
-0.880058
-0.794184
-0.710621
-0.629367
-0.550407
-0.473749
-0.399373
-0.327147
-0.256914
-0.188657
-0.122386
-0.0580603
0.00436799
0.0649422
0.123703
0.180693
0.235953
0.289524
0.341448
0.391766
0.440519
0.487747
0.533493
-5.94562
-5.93576
-5.92772
-5.91936
-5.91072
-5.9018
-5.89261
-5.88311
-5.87331
-5.86318
-5.85272
-5.84191
-5.83073
-5.81918
-5.80724
-5.79489
-5.78211
-5.7689
-5.75523
-5.74107
-5.72642
-5.71125
-5.69554
-5.67927
-5.6624
-5.64491
-5.62678
-5.60797
-5.58845
-5.56819
-5.54715
-5.52528
-5.50254
-5.47889
-5.45425
-5.42856
-5.40174
-5.3737
-5.34435
-5.3136
-5.28136
-5.24752
-5.212
-5.1747
-5.13553
-5.09443
-5.05134
-5.0062
-4.95897
-4.9096
-4.85802
-4.8042
-4.74808
-4.6896
-4.62872
-4.56537
-4.49948
-4.43099
-4.35982
-4.28588
-4.2091
-4.12938
-4.04663
-3.96072
-3.87146
-3.77877
-3.68261
-3.5828
-3.47909
-3.37135
-3.25948
-3.14329
-3.02252
-2.89674
-2.76772
-2.63926
-2.51311
-2.38931
-2.26787
-2.14882
-2.03219
-1.91799
-1.80624
-1.69697
-1.59017
-1.48586
-1.38405
-1.28471
-1.18785
-1.09344
-1.00146
-0.9119
-0.824731
-0.73989
-0.657304
-0.576973
-0.498932
-0.423197
-0.349745
-0.278436
-0.209115
-0.141761
-0.0763847
-0.0129444
0.0486059
0.108308
0.166204
0.222334
0.276741
0.329465
0.380549
0.430034
0.477961
0.524373
-5.94568
-5.93579
-5.92777
-5.91943
-5.91079
-5.90189
-5.89271
-5.88323
-5.87344
-5.86333
-5.85289
-5.8421
-5.83094
-5.81942
-5.8075
-5.79518
-5.78243
-5.76925
-5.75562
-5.7415
-5.7269
-5.71177
-5.69611
-5.67989
-5.66309
-5.64567
-5.62761
-5.60889
-5.58946
-5.56931
-5.54838
-5.52665
-5.50408
-5.48061
-5.45622
-5.43083
-5.40439
-5.37684
-5.34811
-5.31809
-5.28671
-5.25386
-5.21947
-5.18342
-5.14564
-5.10603
-5.06452
-5.02104
-4.97551
-4.92786
-4.87804
-4.82597
-4.7716
-4.71486
-4.65567
-4.59399
-4.52972
-4.4628
-4.39315
-4.32068
-4.2453
-4.16692
-4.08543
-4.00072
-3.91266
-3.82112
-3.72597
-3.62709
-3.52428
-3.41733
-3.30607
-3.19031
-3.06985
-2.94447
-2.81575
-2.68732
-2.56103
-2.43694
-2.31506
-2.19544
-2.07811
-1.96308
-1.8504
-1.7401
-1.63218
-1.52668
-1.4236
-1.32295
-1.22473
-1.12895
-1.03559
-0.94463
-0.856063
-0.769867
-0.685982
-0.60433
-0.524909
-0.447775
-0.372961
-0.300432
-0.230036
-0.161619
-0.0951606
-0.0306719
0.0318853
0.0925564
0.151383
0.208408
0.263671
0.317214
0.369082
0.419314
0.467955
0.515046
0.56063
-5.94575
-5.93583
-5.92784
-5.91951
-5.91088
-5.90199
-5.89283
-5.88336
-5.87359
-5.8635
-5.85308
-5.84231
-5.83118
-5.81968
-5.80779
-5.7955
-5.78279
-5.76964
-5.75604
-5.74197
-5.72741
-5.71234
-5.69673
-5.68057
-5.66382
-5.64648
-5.6285
-5.60986
-5.59052
-5.57047
-5.54966
-5.52805
-5.50561
-5.48231
-5.45809
-5.43291
-5.40672
-5.37947
-5.35109
-5.32154
-5.29072
-5.25856
-5.22497
-5.18986
-5.15312
-5.11468
-5.07445
-5.03233
-4.98824
-4.94211
-4.89386
-4.84341
-4.79068
-4.7356
-4.67809
-4.61807
-4.55546
-4.49018
-4.42213
-4.35124
-4.2774
-4.20051
-4.12047
-4.03715
-3.95043
-3.86018
-3.76626
-3.66851
-3.56676
-3.46082
-3.35048
-3.23555
-3.11578
-2.99094
-2.86262
-2.73441
-2.60818
-2.48397
-2.36183
-2.24179
-2.12389
-2.00817
-1.89467
-1.78342
-1.67446
-1.56782
-1.46353
-1.36161
-1.26207
-1.16492
-1.07017
-0.977817
-0.887852
-0.800264
-0.715033
-0.632088
-0.551344
-0.472838
-0.396652
-0.322794
-0.251212
-0.181744
-0.114237
-0.0486772
0.0149137
0.0765733
0.136348
0.19428
0.250412
0.304786
0.357445
0.408433
0.457793
0.505569
0.551804
-5.94582
-5.93587
-5.92791
-5.91959
-5.91098
-5.9021
-5.89295
-5.8835
-5.87374
-5.86367
-5.85327
-5.84252
-5.83141
-5.81994
-5.80808
-5.79582
-5.78314
-5.77003
-5.75648
-5.74245
-5.72793
-5.71291
-5.69736
-5.68126
-5.66458
-5.6473
-5.62939
-5.61084
-5.59159
-5.57164
-5.55093
-5.52945
-5.50714
-5.48398
-5.45992
-5.43492
-5.40893
-5.3819
-5.35379
-5.32453
-5.29407
-5.26235
-5.22928
-5.1948
-5.15881
-5.12123
-5.08196
-5.04091
-4.99798
-4.9531
-4.90617
-4.85711
-4.80583
-4.75224
-4.69626
-4.6378
-4.57676
-4.51306
-4.44661
-4.37729
-4.30502
-4.22967
-4.15114
-4.06931
-3.98404
-3.8952
-3.80263
-3.70618
-3.60566
-3.50089
-3.39165
-3.27772
-3.15885
-3.03479
-2.90711
-2.77936
-2.65341
-2.52931
-2.40711
-2.28685
-2.16857
-2.05232
-1.93814
-1.82609
-1.71622
-1.60856
-1.50315
-1.40003
-1.29923
-1.20078
-1.10468
-1.01096
-0.919625
-0.830665
-0.744078
-0.65981
-0.577778
-0.497975
-0.420473
-0.34531
-0.272469
-0.201863
-0.13333
-0.0667494
-0.00212338
0.0605307
0.121254
0.180093
0.237093
0.292295
0.345744
0.397485
0.447562
0.49602
0.542903
-5.94588
-5.9359
-5.92797
-5.91966
-5.91106
-5.9022
-5.89306
-5.88362
-5.87388
-5.86383
-5.85344
-5.84272
-5.83163
-5.82018
-5.80835
-5.79612
-5.78348
-5.77041
-5.75689
-5.7429
-5.72844
-5.71346
-5.69797
-5.68192
-5.66531
-5.6481
-5.63027
-5.61179
-5.59264
-5.57278
-5.55218
-5.53081
-5.50863
-5.4856
-5.46169
-5.43685
-5.41103
-5.38421
-5.35631
-5.3273
-5.29711
-5.2657
-5.23299
-5.19893
-5.16344
-5.12644
-5.08785
-5.04758
-5.00553
-4.96162
-4.91575
-4.86783
-4.81775
-4.76543
-4.71078
-4.65369
-4.59406
-4.53181
-4.46682
-4.39899
-4.32821
-4.25436
-4.17732
-4.09697
-4.01316
-3.92576
-3.8346
-3.73952
-3.64033
-3.53683
-3.4288
-3.31601
-3.19821
-3.07511
-2.94825
-2.82116
-2.6957
-2.57192
-2.44987
-2.32959
-2.21113
-2.09455
-1.97989
-1.86722
-1.7566
-1.64807
-1.54168
-1.43749
-1.33555
-1.23588
-1.13852
-1.0435
-0.95084
-0.860554
-0.772646
-0.687087
-0.6038
-0.52275
-0.444007
-0.367647
-0.293632
-0.22185
-0.152195
-0.0845869
-0.018979
0.0446391
0.106288
0.166012
0.223855
0.279864
0.334083
0.386558
0.437336
0.486462
0.533982
0.579942
-5.94592
-5.93591
-5.92802
-5.91972
-5.91113
-5.90228
-5.89315
-5.88373
-5.874
-5.86396
-5.85359
-5.84288
-5.83182
-5.82039
-5.80859
-5.79639
-5.78377
-5.77073
-5.75725
-5.74331
-5.72889
-5.71397
-5.69852
-5.68254
-5.66599
-5.64885
-5.63109
-5.6127
-5.59363
-5.57386
-5.55336
-5.5321
-5.51003
-5.48714
-5.46336
-5.43867
-5.41302
-5.38637
-5.35867
-5.32987
-5.29992
-5.26876
-5.23634
-5.2026
-5.16746
-5.13088
-5.09276
-5.05303
-5.01161
-4.96841
-4.92333
-4.87629
-4.82717
-4.77588
-4.72232
-4.66639
-4.60798
-4.54698
-4.48329
-4.41679
-4.34736
-4.27489
-4.19925
-4.12029
-4.03789
-3.95188
-3.8621
-3.76838
-3.67053
-3.56833
-3.46156
-3.34998
-3.23332
-3.11128
-2.98539
-2.85911
-2.73429
-2.611
-2.48928
-2.36917
-2.25073
-2.13401
-2.01907
-1.90597
-1.79478
-1.68557
-1.57838
-1.47328
-1.37032
-1.26957
-1.17107
-1.07486
-0.980979
-0.889448
-0.800285
-0.713489
-0.629009
-0.546826
-0.466975
-0.389449
-0.314221
-0.241282
-0.170582
-0.102017
-0.0354899
0.0290446
0.0915918
0.152171
0.210829
0.267615
0.322576
0.375761
0.427216
0.47699
0.52513
0.571682
-5.94596
-5.93591
-5.92805
-5.91976
-5.91117
-5.90233
-5.89321
-5.88379
-5.87408
-5.86405
-5.8537
-5.84301
-5.83196
-5.82055
-5.80877
-5.79659
-5.78401
-5.771
-5.75755
-5.74365
-5.72927
-5.71439
-5.699
-5.68307
-5.66659
-5.64951
-5.63183
-5.61351
-5.59453
-5.57485
-5.55445
-5.53329
-5.51133
-5.48855
-5.46491
-5.44036
-5.41486
-5.38837
-5.36084
-5.33223
-5.30248
-5.27155
-5.23938
-5.2059
-5.17106
-5.1348
-5.09704
-5.05771
-5.01675
-4.97405
-4.92955
-4.88315
-4.83476
-4.78427
-4.73157
-4.67657
-4.61916
-4.55921
-4.49662
-4.43127
-4.36303
-4.29178
-4.21738
-4.13969
-4.05857
-3.97386
-3.88538
-3.79295
-3.69638
-3.59545
-3.48992
-3.37955
-3.26405
-3.14311
-3.01823
-2.89284
-2.76878
-2.6461
-2.52484
-2.40506
-2.2868
-2.17011
-2.05506
-1.94172
-1.83015
-1.72043
-1.61261
-1.50677
-1.40298
-1.30131
-1.20181
-1.10455
-1.00957
-0.916908
-0.826599
-0.73865
-0.653053
-0.569795
-0.488857
-0.410241
-0.333966
-0.260011
-0.188325
-0.11883
-0.0514193
0.013974
0.0773484
0.138713
0.198117
0.255612
0.311245
0.365064
0.417116
0.467456
0.516155
0.563286
-5.94597
-5.93589
-5.92805
-5.91977
-5.91118
-5.90234
-5.89323
-5.88382
-5.87412
-5.8641
-5.85375
-5.84307
-5.83204
-5.82065
-5.80889
-5.79673
-5.78417
-5.77119
-5.75777
-5.7439
-5.72956
-5.71473
-5.69939
-5.68351
-5.66708
-5.65007
-5.63246
-5.61421
-5.59531
-5.57571
-5.5554
-5.53434
-5.51249
-5.48983
-5.4663
-5.44188
-5.41652
-5.39018
-5.36281
-5.33437
-5.30481
-5.27407
-5.24211
-5.20886
-5.17428
-5.13829
-5.10082
-5.06182
-5.02121
-4.97892
-4.93485
-4.88894
-4.84108
-4.79118
-4.73914
-4.68486
-4.62823
-4.56912
-4.50743
-4.44303
-4.3758
-4.30559
-4.23227
-4.15569
-4.07571
-3.99216
-3.90485
-3.81361
-3.71822
-3.61847
-3.51412
-3.4049
-3.29052
-3.17067
-3.04681
-2.92234
-2.79907
-2.67707
-2.55636
-2.437
-2.31903
-2.20252
-2.08751
-1.97408
-1.86229
-1.75222
-1.64394
-1.53753
-1.43308
-1.33065
-1.23032
-1.13215
-1.03622
-0.94258
-0.851262
-0.762293
-0.675679
-0.591414
-0.509498
-0.429936
-0.352719
-0.277821
-0.205195
-0.134774
-0.0664888
-0.000305325
0.0637966
0.125861
0.185935
0.244068
0.300305
0.354693
0.407285
0.458173
0.507442
0.555132
-5.94596
-5.93585
-5.92803
-5.91974
-5.91116
-5.90232
-5.89321
-5.8838
-5.8741
-5.86409
-5.85375
-5.84308
-5.83206
-5.82068
-5.80893
-5.79679
-5.78425
-5.77129
-5.7579
-5.74406
-5.72975
-5.71496
-5.69966
-5.68383
-5.66745
-5.6505
-5.63295
-5.61477
-5.59594
-5.57643
-5.55621
-5.53524
-5.51349
-5.49093
-5.46752
-5.44321
-5.41798
-5.39177
-5.36455
-5.33627
-5.30687
-5.27631
-5.24454
-5.2115
-5.17713
-5.14137
-5.10416
-5.06544
-5.02512
-4.98315
-4.93944
-4.8939
-4.84646
-4.79702
-4.74549
-4.69176
-4.63573
-4.57728
-4.5163
-4.45266
-4.38624
-4.31689
-4.24448
-4.16885
-4.08984
-4.00729
-3.92102
-3.83083
-3.73651
-3.63783
-3.53454
-3.42639
-3.31306
-3.19424
-3.07135
-2.94777
-2.82531
-2.704
-2.58388
-2.465
-2.34741
-2.23115
-2.11628
-2.00288
-1.89101
-1.78074
-1.67215
-1.56533
-1.46036
-1.35733
-1.25631
-1.1574
-1.06067
-0.966188
-0.874004
-0.784155
-0.696659
-0.611524
-0.528747
-0.448324
-0.370241
-0.294473
-0.22099
-0.149749
-0.0807045
-0.013809
0.0509803
0.113709
0.174424
0.233174
0.290005
0.344968
0.398127
0.449554
0.499297
0.547404
-5.94592
-5.93577
-5.92797
-5.91968
-5.91109
-5.90225
-5.89314
-5.88374
-5.87403
-5.86402
-5.85369
-5.84302
-5.832
-5.82063
-5.80889
-5.79676
-5.78424
-5.7713
-5.75793
-5.74411
-5.72984
-5.71507
-5.69981
-5.68403
-5.66769
-5.65079
-5.6333
-5.61519
-5.59643
-5.57699
-5.55684
-5.53596
-5.51431
-5.49184
-5.46853
-5.44434
-5.41923
-5.39314
-5.36606
-5.33791
-5.30866
-5.27827
-5.24666
-5.2138
-5.17962
-5.14407
-5.10708
-5.06859
-5.02853
-4.98683
-4.94341
-4.89819
-4.85109
-4.80202
-4.75089
-4.6976
-4.64204
-4.58411
-4.52369
-4.46065
-4.39487
-4.32622
-4.25454
-4.17968
-4.10149
-4.01979
-3.9344
-3.84511
-3.75171
-3.65398
-3.55164
-3.44444
-3.33206
-3.21418
-3.0922
-2.96946
-2.84776
-2.72713
-2.60761
-2.48923
-2.37204
-2.2561
-2.14145
-2.02816
-1.9163
-1.80593
-1.69716
-1.59005
-1.4847
-1.3812
-1.27964
-1.18013
-1.08274
-0.987555
-0.894639
-0.804036
-0.715779
-0.629882
-0.546353
-0.465187
-0.386368
-0.309876
-0.235678
-0.163739
-0.0940172
-0.0264699
0.0389483
0.102284
0.163587
0.222906
0.280292
0.335795
0.38947
0.441373
0.491548
0.540047
-5.94586
-5.93567
-5.92788
-5.91958
-5.91099
-5.90214
-5.89302
-5.88362
-5.87391
-5.86389
-5.85356
-5.84289
-5.83187
-5.8205
-5.80877
-5.79665
-5.78413
-5.7712
-5.75785
-5.74405
-5.7298
-5.71507
-5.69983
-5.68409
-5.6678
-5.65094
-5.6335
-5.61544
-5.59674
-5.57737
-5.5573
-5.5365
-5.51492
-5.49255
-5.46934
-5.44525
-5.42024
-5.39427
-5.3673
-5.33929
-5.31018
-5.27992
-5.24847
-5.21577
-5.18177
-5.1464
-5.1096
-5.07131
-5.03147
-4.99
-4.94683
-4.90188
-4.85507
-4.80631
-4.75551
-4.70257
-4.6474
-4.58988
-4.5299
-4.46735
-4.40208
-4.33398
-4.26289
-4.18866
-4.11113
-4.03013
-3.94546
-3.85693
-3.76432
-3.66739
-3.56588
-3.45951
-3.34797
-3.23092
-3.10975
-2.98778
-2.86679
-2.74679
-2.62784
-2.50996
-2.39319
-2.27758
-2.16318
-2.05006
-1.93827
-1.8279
-1.71902
-1.61172
-1.5061
-1.40226
-1.30029
-1.20029
-1.10238
-1.00662
-0.913106
-0.82188
-0.732987
-0.646451
-0.562283
-0.480484
-0.401039
-0.32393
-0.249128
-0.176598
-0.106301
-0.0381952
0.0277662
0.0916302
0.153446
0.213264
0.271135
0.327111
0.381244
0.433583
0.484172
0.533052
-5.94578
-5.93555
-5.92776
-5.91945
-5.91085
-5.90199
-5.89286
-5.88345
-5.87373
-5.86371
-5.85336
-5.84269
-5.83167
-5.8203
-5.80856
-5.79644
-5.78392
-5.771
-5.75766
-5.74388
-5.72964
-5.71493
-5.69973
-5.68401
-5.66775
-5.65094
-5.63354
-5.61553
-5.59689
-5.57758
-5.55757
-5.53684
-5.51534
-5.49304
-5.46992
-5.44592
-5.42101
-5.39515
-5.36829
-5.34039
-5.31141
-5.28128
-5.24997
-5.21741
-5.18356
-5.14835
-5.11172
-5.07362
-5.03397
-4.9927
-4.94974
-4.90502
-4.85845
-4.80995
-4.75943
-4.70679
-4.65194
-4.59476
-4.53514
-4.47298
-4.40813
-4.34047
-4.26986
-4.19614
-4.11914
-4.03871
-3.95464
-3.86673
-3.77476
-3.6785
-3.57769
-3.47202
-3.3612
-3.24488
-3.12442
-3.00314
-2.88277
-2.76336
-2.64493
-2.52751
-2.41114
-2.29587
-2.18174
-2.06881
-1.95714
-1.84681
-1.73789
-1.63049
-1.52469
-1.42059
-1.31831
-1.21795
-1.11962
-1.02342
-0.929423
-0.837699
-0.748295
-0.661241
-0.576555
-0.494238
-0.414282
-0.336667
-0.261366
-0.188347
-0.117571
-0.0489958
0.0174239
0.0817355
0.143988
0.204232
0.262517
0.318897
0.37342
0.426142
0.477111
0.526365
-5.94568
-5.9354
-5.92761
-5.91929
-5.91067
-5.9018
-5.89265
-5.88322
-5.8735
-5.86346
-5.8531
-5.84242
-5.83139
-5.82001
-5.80826
-5.79614
-5.78362
-5.7707
-5.75736
-5.74359
-5.72937
-5.71467
-5.69948
-5.68379
-5.66756
-5.65078
-5.63342
-5.61546
-5.59686
-5.5776
-5.55765
-5.53698
-5.51555
-5.49333
-5.47028
-5.44636
-5.42154
-5.39577
-5.36901
-5.34122
-5.31234
-5.28234
-5.25115
-5.21872
-5.185
-5.14994
-5.11347
-5.07552
-5.03604
-4.99495
-4.95218
-4.90765
-4.86129
-4.81302
-4.76273
-4.71034
-4.65575
-4.59886
-4.53955
-4.4777
-4.4132
-4.3459
-4.27568
-4.20237
-4.12581
-4.04583
-3.96225
-3.87485
-3.78341
-3.6877
-3.58745
-3.48238
-3.37216
-3.25645
-3.13661
-3.01591
-2.8961
-2.77719
-2.65923
-2.54224
-2.42624
-2.31129
-2.19742
-2.08469
-1.97316
-1.8629
-1.754
-1.64654
-1.54062
-1.43635
-1.33384
-1.23322
-1.13458
-1.03804
-0.943676
-0.851571
-0.761771
-0.674315
-0.589222
-0.506499
-0.426136
-0.348118
-0.272419
-0.199005
-0.12784
-0.0588819
0.00791452
0.0725962
0.135212
0.195812
0.254446
0.311166
0.366022
0.419065
0.470347
0.51992
-5.94556
-5.93524
-5.92743
-5.9191
-5.91046
-5.90157
-5.89241
-5.88296
-5.87321
-5.86316
-5.85278
-5.84208
-5.83104
-5.81964
-5.80788
-5.79575
-5.78323
-5.7703
-5.75696
-5.74319
-5.72897
-5.71428
-5.69911
-5.68343
-5.66723
-5.65048
-5.63315
-5.61522
-5.59666
-5.57744
-5.55754
-5.53692
-5.51555
-5.49339
-5.47041
-5.44657
-5.42183
-5.39614
-5.36947
-5.34177
-5.31299
-5.28309
-5.25201
-5.2197
-5.18611
-5.15117
-5.11483
-5.07703
-5.0377
-4.99676
-4.95416
-4.90981
-4.86363
-4.81554
-4.76546
-4.71328
-4.65892
-4.60226
-4.5432
-4.48163
-4.41741
-4.35042
-4.28051
-4.20754
-4.13133
-4.05173
-3.96854
-3.88155
-3.79055
-3.69529
-3.59551
-3.49091
-3.3812
-3.266
-3.14667
-3.02647
-2.90712
-2.78866
-2.6711
-2.55448
-2.43881
-2.32415
-2.21052
-2.09798
-1.9866
-1.87643
-1.76756
-1.66009
-1.5541
-1.44972
-1.34707
-1.24625
-1.1474
-1.0506
-0.955965
-0.863593
-0.773506
-0.685757
-0.600365
-0.517338
-0.43667
-0.358346
-0.28234
-0.208621
-0.137151
-0.0678905
-0.000793863
0.0641855
0.127096
0.187987
0.246909
0.303912
0.359047
0.412365
0.463914
0.513747
-5.94543
-5.93507
-5.92724
-5.91889
-5.91022
-5.90131
-5.89212
-5.88265
-5.87288
-5.86281
-5.85241
-5.84168
-5.83062
-5.8192
-5.80743
-5.79528
-5.78274
-5.76981
-5.75646
-5.74268
-5.72846
-5.71378
-5.69861
-5.68295
-5.66676
-5.65002
-5.63272
-5.61481
-5.59629
-5.57711
-5.55725
-5.53668
-5.51536
-5.49325
-5.47033
-5.44655
-5.42187
-5.39626
-5.36967
-5.34205
-5.31336
-5.28355
-5.25257
-5.22036
-5.18688
-5.15206
-5.11584
-5.07816
-5.03896
-4.99816
-4.9557
-4.9115
-4.86548
-4.81756
-4.76765
-4.71566
-4.66149
-4.60503
-4.54619
-4.48484
-4.42086
-4.35411
-4.28447
-4.21177
-4.13587
-4.05657
-3.9737
-3.88705
-3.7964
-3.7015
-3.6021
-3.4979
-3.38859
-3.27381
-3.1549
-3.03511
-2.91615
-2.79806
-2.68084
-2.56454
-2.44916
-2.33475
-2.22134
-2.10898
-1.99773
-1.88765
-1.77884
-1.67138
-1.56537
-1.46093
-1.35817
-1.25724
-1.15824
-1.06129
-0.966507
-0.873944
-0.783659
-0.695704
-0.610103
-0.526862
-0.445977
-0.367432
-0.291202
-0.217258
-0.145561
-0.0760708
-0.00874369
0.0564671
0.119609
0.180733
0.239886
0.297121
0.352486
0.406032
0.457808
0.507862
-5.94529
-5.93489
-5.92703
-5.91866
-5.90996
-5.90102
-5.89181
-5.88231
-5.87251
-5.86241
-5.85198
-5.84123
-5.83014
-5.8187
-5.8069
-5.79473
-5.78218
-5.76923
-5.75586
-5.74208
-5.72785
-5.71316
-5.698
-5.68233
-5.66615
-5.64943
-5.63214
-5.61426
-5.59576
-5.57661
-5.55678
-5.53625
-5.51497
-5.49291
-5.47003
-5.44631
-5.42169
-5.39614
-5.36962
-5.34207
-5.31346
-5.28373
-5.25283
-5.22072
-5.18733
-5.15261
-5.11649
-5.07893
-5.03984
-4.99917
-4.95683
-4.91276
-4.86688
-4.8191
-4.76934
-4.71751
-4.6635
-4.60722
-4.54856
-4.4874
-4.42362
-4.35708
-4.28765
-4.21519
-4.13952
-4.06047
-3.97786
-3.89148
-3.80112
-3.70652
-3.60743
-3.50355
-3.39456
-3.28012
-3.16156
-3.0421
-2.92346
-2.80567
-2.68874
-2.5727
-2.45756
-2.34336
-2.23014
-2.11793
-2.00681
-1.89682
-1.78807
-1.68064
-1.57463
-1.47017
-1.36738
-1.26639
-1.16732
-1.0703
-0.975414
-0.882738
-0.792345
-0.704271
-0.618545
-0.535174
-0.454152
-0.375464
-0.299086
-0.224988
-0.153133
-0.0834796
-0.0159849
0.0493975
0.112715
0.174017
0.233353
0.290771
0.346323
0.400056
0.45202
0.502264
-5.94516
-5.93472
-5.92681
-5.91841
-5.90969
-5.90071
-5.89147