/*--------------------------------*- C++ -*----------------------------------*\
  =========                 |
  \\      /  F ield         | OpenFOAM: The Open Source CFD Toolbox
   \\    /   O peration     | Website:  https://openfoam.org
    \\  /    A nd           | Version:  10
     \\/     M anipulation  |
\*---------------------------------------------------------------------------*/
FoamFile
{
    format      ascii;
    class       surfaceScalarField;
    location    "35000";
    object      phi;
}
// * * * * * * * * * * * * * * * * * * * * * * * * * * * * * * * * * * * * * //

dimensions      [0 3 -1 0 0 0 0];

internalField   nonuniform List<scalar> 
35539
(
3.13697e-09
3.44055e-05
-3.44055e-05
3.13436e-09
3.47588e-05
-3.47588e-05
3.13909e-09
3.51122e-05
-3.51122e-05
3.15748e-09
3.54655e-05
-3.54655e-05
3.18874e-09
3.58183e-05
-3.58184e-05
3.22792e-09
3.61706e-05
-3.61707e-05
3.28131e-09
3.65221e-05
-3.65222e-05
3.34788e-09
3.68725e-05
-3.68726e-05
3.42275e-09
3.72216e-05
-3.72217e-05
3.50835e-09
3.75691e-05
-3.75691e-05
3.60733e-09
3.79146e-05
-3.79147e-05
3.71814e-09
3.82579e-05
-3.8258e-05
3.84145e-09
3.85987e-05
-3.85988e-05
3.9723e-09
3.89365e-05
-3.89367e-05
4.11642e-09
3.92711e-05
-3.92713e-05
4.27049e-09
3.96021e-05
-3.96022e-05
4.43668e-09
3.99289e-05
-3.99291e-05
4.61148e-09
4.02513e-05
-4.02515e-05
4.79673e-09
4.05687e-05
-4.05689e-05
4.99075e-09
4.08807e-05
-4.08809e-05
5.19335e-09
4.11867e-05
-4.11869e-05
5.40548e-09
4.14863e-05
-4.14865e-05
5.62195e-09
4.17788e-05
-4.1779e-05
5.84507e-09
4.20636e-05
-4.20638e-05
6.07239e-09
4.23401e-05
-4.23403e-05
6.3056e-09
4.26075e-05
-4.26078e-05
6.53676e-09
4.28653e-05
-4.28655e-05
6.76696e-09
4.31125e-05
-4.31127e-05
6.99109e-09
4.2602e-05
-4.26022e-05
7.1996e-09
4.13687e-05
-4.13689e-05
7.39524e-09
4.01756e-05
-4.01758e-05
7.57047e-09
3.90211e-05
-3.90213e-05
7.72665e-09
3.79037e-05
-3.79039e-05
7.86123e-09
3.6822e-05
-3.68221e-05
7.97447e-09
3.57746e-05
-3.57748e-05
8.06406e-09
3.47603e-05
-3.47604e-05
8.13088e-09
3.37778e-05
-3.37779e-05
8.17154e-09
3.2826e-05
-3.2826e-05
8.18608e-09
3.19037e-05
-3.19037e-05
8.17606e-09
3.10099e-05
-3.10099e-05
8.13908e-09
3.01435e-05
-3.01435e-05
8.07731e-09
2.93036e-05
-2.93035e-05
7.98893e-09
2.84892e-05
-2.84891e-05
7.87758e-09
2.76995e-05
-2.76994e-05
7.74459e-09
2.69335e-05
-2.69333e-05
7.58749e-09
2.61904e-05
-2.61903e-05
7.40648e-09
2.54695e-05
-2.54693e-05
7.20798e-09
2.477e-05
-2.47698e-05
6.98857e-09
2.40911e-05
-2.40909e-05
6.75328e-09
2.34321e-05
-2.34319e-05
6.49848e-09
2.27924e-05
-2.27922e-05
6.2277e-09
2.21713e-05
-2.21711e-05
5.9394e-09
2.15682e-05
-2.15679e-05
5.63203e-09
2.09825e-05
-2.09822e-05
5.31178e-09
2.04136e-05
-2.04132e-05
4.97192e-09
1.98609e-05
-1.98605e-05
4.61586e-09
1.93239e-05
-1.93236e-05
4.24323e-09
1.88022e-05
-1.88018e-05
3.84915e-09
1.82951e-05
-1.82947e-05
3.43509e-09
1.78024e-05
-1.7802e-05
2.9996e-09
1.73235e-05
-1.7323e-05
2.5407e-09
1.68579e-05
-1.68575e-05
2.05985e-09
1.64054e-05
-1.64049e-05
1.55115e-09
1.59654e-05
-1.59649e-05
1.01825e-09
1.55377e-05
-1.55372e-05
4.55484e-10
1.51219e-05
-1.51214e-05
-1.33508e-10
1.47176e-05
-1.4717e-05
-7.50931e-10
1.43245e-05
-1.43239e-05
-1.40103e-09
1.39424e-05
-1.39417e-05
-2.07956e-09
1.35708e-05
-1.35701e-05
-2.78998e-09
1.32095e-05
-1.32088e-05
-3.52757e-09
1.28582e-05
-1.28575e-05
-4.29692e-09
1.25167e-05
-1.25159e-05
-5.09335e-09
1.21847e-05
-1.21839e-05
-5.91576e-09
1.18618e-05
-1.1861e-05
-6.76512e-09
1.1548e-05
-1.15472e-05
-7.63441e-09
1.1243e-05
-1.12421e-05
-8.52211e-09
1.09464e-05
-1.09455e-05
-9.42599e-09
1.06581e-05
-1.06572e-05
-1.03416e-08
1.03779e-05
-1.0377e-05
-1.12643e-08
1.01055e-05
-1.01046e-05
-1.21901e-08
9.84071e-06
-9.83979e-06
-1.31158e-08
9.58335e-06
-9.58242e-06
-1.40335e-08
9.33318e-06
-9.33226e-06
-1.49424e-08
9.09001e-06
-9.0891e-06
-1.58363e-08
8.85363e-06
-8.85274e-06
-1.67094e-08
8.62386e-06
-8.62298e-06
-1.75591e-08
8.40049e-06
-8.39964e-06
-1.83805e-08
8.18334e-06
-8.18252e-06
-1.91682e-08
7.97223e-06
-7.97144e-06
-1.99209e-08
7.76696e-06
-7.76621e-06
-2.0633e-08
7.56738e-06
-7.56666e-06
7.37329e-06
-7.37262e-06
3.21247e-09
3.44055e-05
3.20555e-09
3.47588e-05
3.20978e-09
3.51122e-05
3.22481e-09
3.54654e-05
3.25293e-09
3.58183e-05
3.29311e-09
3.61706e-05
3.34594e-09
3.65221e-05
3.40647e-09
3.68725e-05
3.48276e-09
3.72215e-05
3.56999e-09
3.7569e-05
3.67009e-09
3.79145e-05
3.78005e-09
3.82578e-05
3.90037e-09
3.85986e-05
4.0313e-09
3.89364e-05
4.17675e-09
3.9271e-05
4.33148e-09
3.96019e-05
4.49743e-09
3.99288e-05
4.67464e-09
4.02511e-05
4.85962e-09
4.05685e-05
5.05388e-09
4.08805e-05
5.25857e-09
4.11865e-05
5.46853e-09
4.14861e-05
5.6893e-09
4.17785e-05
5.91525e-09
4.20634e-05
6.14342e-09
4.23398e-05
6.37575e-09
4.26073e-05
6.60885e-09
4.28651e-05
6.84194e-09
4.31123e-05
7.06559e-09
4.26017e-05
7.27397e-09
4.13685e-05
7.46816e-09
4.01754e-05
7.64489e-09
3.90209e-05
7.80261e-09
3.79036e-05
7.93981e-09
3.68219e-05
8.05261e-09
3.57745e-05
8.14293e-09
3.47602e-05
8.20579e-09
3.37778e-05
8.24508e-09
3.2826e-05
8.26052e-09
3.19037e-05
8.24954e-09
3.10099e-05
8.21258e-09
3.01435e-05
8.15168e-09
2.93037e-05
8.06369e-09
2.84893e-05
7.95374e-09
2.76996e-05
7.81897e-09
2.69336e-05
7.66481e-09
2.61906e-05
7.4889e-09
2.54697e-05
7.29273e-09
2.47702e-05
7.0802e-09
2.40913e-05
6.84765e-09
2.34324e-05
6.59787e-09
2.27927e-05
6.33167e-09
2.21716e-05
6.05022e-09
2.15685e-05
5.75625e-09
2.09828e-05
5.44444e-09
2.04139e-05
5.11727e-09
1.98612e-05
4.77347e-09
1.93243e-05
4.41266e-09
1.88025e-05
4.03332e-09
1.82955e-05
3.63474e-09
1.78028e-05
3.21498e-09
1.73239e-05
2.77547e-09
1.68584e-05
2.31012e-09
1.64058e-05
1.82237e-09
1.59659e-05
1.30831e-09
1.55383e-05
7.67485e-10
1.51225e-05
2.00386e-10
1.47182e-05
-3.97419e-10
1.43251e-05
-1.02289e-09
1.3943e-05
-1.67811e-09
1.35714e-05
-2.36233e-09
1.32102e-05
-3.07875e-09
1.28589e-05
-3.82019e-09
1.25174e-05
-4.58983e-09
1.21854e-05
-5.38628e-09
1.18626e-05
-6.20413e-09
1.15489e-05
-7.04388e-09
1.12438e-05
-7.90198e-09
1.09473e-05
-8.77448e-09
1.0659e-05
-9.6571e-09
1.03788e-05
-1.0547e-08
1.01064e-05
-1.14387e-08
9.84161e-06
-1.23281e-08
9.58424e-06
-1.3212e-08
9.33406e-06
-1.40844e-08
9.09088e-06
-1.49423e-08
8.85449e-06
-1.57797e-08
8.62469e-06
-1.65946e-08
8.4013e-06
-1.73806e-08
8.18413e-06
-1.81359e-08
7.97298e-06
-1.88555e-08
7.76768e-06
-1.95364e-08
7.56806e-06
7.37393e-06
3.28346e-09
3.44056e-05
3.27564e-09
3.47589e-05
3.28004e-09
3.51122e-05
3.29475e-09
3.54654e-05
3.31894e-09
3.58183e-05
3.3608e-09
3.61706e-05
3.41143e-09
3.6522e-05
3.4732e-09
3.68724e-05
3.54856e-09
3.72215e-05
3.63041e-09
3.75689e-05
3.73041e-09
3.79144e-05
3.84142e-09
3.82577e-05
3.96008e-09
3.85984e-05
4.09391e-09
3.89363e-05
4.23942e-09
3.92708e-05
4.39302e-09
3.96017e-05
4.56024e-09
3.99286e-05
4.73557e-09
4.02509e-05
4.92249e-09
4.05683e-05
5.12021e-09
4.08803e-05
5.3236e-09
4.11863e-05
5.53677e-09
4.14859e-05
5.75575e-09
4.17783e-05
5.98107e-09
4.20631e-05
6.21131e-09
4.23396e-05
6.44493e-09
4.26071e-05
6.67976e-09
4.28648e-05
6.91378e-09
4.3112e-05
7.13675e-09
4.26015e-05
7.34958e-09
4.13683e-05
7.54434e-09
4.01752e-05
7.72062e-09
3.90207e-05
7.87532e-09
3.79034e-05
8.00995e-09
3.68217e-05
8.12314e-09
3.57744e-05
8.21123e-09
3.47601e-05
8.27744e-09
3.37777e-05
8.31873e-09
3.28259e-05
8.33074e-09
3.19037e-05
8.32038e-09
3.10099e-05
8.28397e-09
3.01436e-05
8.22218e-09
2.93037e-05
8.13725e-09
2.84894e-05
8.02753e-09
2.76997e-05
7.89587e-09
2.69337e-05
7.74464e-09
2.61907e-05
7.57154e-09
2.54699e-05
7.37955e-09
2.47704e-05
7.16976e-09
2.40915e-05
6.94278e-09
2.34326e-05
6.70315e-09
2.27929e-05
6.44608e-09
2.21719e-05
6.17468e-09
2.15688e-05
5.88863e-09
2.09831e-05
5.58921e-09
2.04142e-05
5.2733e-09
1.98615e-05
4.944e-09
1.93246e-05
4.59665e-09
1.88029e-05
4.23369e-09
1.82959e-05
3.85337e-09
1.78032e-05
3.45378e-09
1.73243e-05
3.03182e-09
1.68588e-05
2.58868e-09
1.64063e-05
2.12151e-09
1.59664e-05
1.62838e-09
1.55387e-05
1.11177e-09
1.5123e-05
5.65943e-10
1.47187e-05
-5.41178e-12
1.43257e-05
-6.05472e-10
1.39436e-05
-1.2361e-09
1.35721e-05
-1.89481e-09
1.32108e-05
-2.58072e-09
1.28596e-05
-3.29545e-09
1.25181e-05
-4.03639e-09
1.21862e-05
-4.80129e-09
1.18634e-05
-5.59012e-09
1.15496e-05
-6.39717e-09
1.12446e-05
-7.22259e-09
1.09481e-05
-8.05978e-09
1.06598e-05
-8.90726e-09
1.03796e-05
-9.76063e-09
1.01072e-05
-1.06171e-08
9.84246e-06
-1.1471e-08
9.58509e-06
-1.23168e-08
9.33491e-06
-1.31531e-08
9.09172e-06
-1.39743e-08
8.85531e-06
-1.47769e-08
8.6255e-06
-1.55553e-08
8.40208e-06
-1.6308e-08
8.18488e-06
-1.70307e-08
7.9737e-06
-1.77198e-08
7.76837e-06
-1.83717e-08
7.56871e-06
7.37455e-06
3.36246e-09
3.44056e-05
3.35141e-09
3.47589e-05
3.35199e-09
3.51122e-05
3.36485e-09
3.54654e-05
3.3905e-09
3.58183e-05
3.42583e-09
3.61705e-05
3.47295e-09
3.6522e-05
3.53625e-09
3.68724e-05
3.60866e-09
3.72214e-05
3.69587e-09
3.75688e-05
3.7928e-09
3.79143e-05
3.89967e-09
3.82576e-05
4.02377e-09
3.85983e-05
4.15797e-09
3.89361e-05
4.29883e-09
3.92707e-05
4.45544e-09
3.96016e-05
4.62181e-09
3.99284e-05
4.79819e-09
4.02508e-05
4.98544e-09
4.05682e-05
5.18197e-09
4.08801e-05
5.38683e-09
4.11861e-05
5.60081e-09
4.14856e-05
5.8216e-09
4.17781e-05
6.04756e-09
4.20629e-05
6.27921e-09
4.23394e-05
6.51289e-09
4.26068e-05
6.74817e-09
4.28646e-05
6.97951e-09
4.31118e-05
7.20424e-09
4.26013e-05
7.4156e-09
4.13681e-05
7.60995e-09
4.0175e-05
7.78535e-09
3.90206e-05
7.94292e-09
3.79032e-05
8.07831e-09
3.68216e-05
8.19282e-09
3.57743e-05
8.27983e-09
3.47601e-05
8.34435e-09
3.37776e-05
8.38425e-09
3.28259e-05
8.39799e-09
3.19037e-05
8.38708e-09
3.10099e-05
8.35069e-09
3.01436e-05
8.29062e-09
2.93038e-05
8.20625e-09
2.84895e-05
8.0991e-09
2.76998e-05
7.97255e-09
2.69339e-05
7.82181e-09
2.61909e-05
7.65484e-09
2.547e-05
7.46779e-09
2.47706e-05
7.26489e-09
2.40917e-05
7.04602e-09
2.34328e-05
6.81154e-09
2.27932e-05
6.56464e-09
2.21721e-05
6.30511e-09
2.1569e-05
6.0298e-09
2.09834e-05
5.74282e-09
2.04145e-05
5.44291e-09
1.98618e-05
5.12763e-09
1.93249e-05
4.79972e-09
1.88032e-05
4.45533e-09
1.82962e-05
4.09248e-09
1.78035e-05
3.71343e-09
1.73247e-05
3.31291e-09
1.68592e-05
2.89103e-09
1.64067e-05
2.44774e-09
1.59668e-05
1.9812e-09
1.55392e-05
1.48846e-09
1.51235e-05
9.70025e-10
1.47193e-05
4.23311e-10
1.43263e-05
-1.49842e-10
1.39442e-05
-7.50304e-10
1.35727e-05
-1.3796e-09
1.32114e-05
-2.03587e-09
1.28603e-05
-2.7199e-09
1.25188e-05
-3.42779e-09
1.21869e-05
-4.16042e-09
1.18641e-05
-4.91422e-09
1.15504e-05
-5.68797e-09
1.12454e-05
-6.47544e-09
1.09489e-05
-7.27751e-09
1.06606e-05
-8.0901e-09
1.03804e-05
-8.90638e-09
1.01081e-05
-9.72445e-09
9.84328e-06
-1.05391e-08
9.58591e-06
-1.13501e-08
9.33572e-06
-1.21486e-08
9.09251e-06
-1.29328e-08
8.85609e-06
-1.36992e-08
8.62626e-06
-1.44437e-08
8.40283e-06
-1.51632e-08
8.1856e-06
-1.58531e-08
7.97439e-06
-1.65125e-08
7.76903e-06
-1.71382e-08
7.56933e-06
7.37514e-06
3.44023e-09
3.44056e-05
3.42707e-09
3.47589e-05
3.4252e-09
3.51122e-05
3.43863e-09
3.54654e-05
3.46212e-09
3.58182e-05
3.49592e-09
3.61705e-05
3.54467e-09
3.65219e-05
3.6026e-09
3.68723e-05
3.67383e-09
3.72213e-05
3.76059e-09
3.75687e-05
3.85544e-09
3.79142e-05
3.96593e-09
3.82575e-05
4.08466e-09
3.85982e-05
4.21547e-09
3.8936e-05
4.36181e-09
3.92705e-05
4.51595e-09
3.96014e-05
4.68146e-09
3.99283e-05
4.85974e-09
4.02506e-05
5.04523e-09
4.0568e-05
5.242e-09
4.08799e-05
5.44788e-09
4.11859e-05
5.66201e-09
4.14854e-05
5.88454e-09
4.17779e-05
6.10946e-09
4.20627e-05
6.34311e-09
4.23391e-05
6.57718e-09
4.26066e-05
6.80953e-09
4.28644e-05
7.04351e-09
4.31116e-05
7.27087e-09
4.26011e-05
7.48052e-09
4.13679e-05
7.67477e-09
4.01748e-05
7.85158e-09
3.90204e-05
8.00892e-09
3.79031e-05
8.14227e-09
3.68215e-05
8.25328e-09
3.57742e-05
8.34488e-09
3.476e-05
8.40787e-09
3.37776e-05
8.44736e-09
3.28258e-05
8.46293e-09
3.19037e-05
8.45067e-09
3.10099e-05
8.4163e-09
3.01436e-05
8.35769e-09
2.93038e-05
8.27592e-09
2.84896e-05
8.17183e-09
2.76999e-05
8.04419e-09
2.6934e-05
7.90095e-09
2.6191e-05
7.73688e-09
2.54702e-05
7.55753e-09
2.47707e-05
7.3618e-09
2.40919e-05
7.151e-09
2.3433e-05
6.92866e-09
2.27934e-05
6.69117e-09
2.21724e-05
6.44174e-09
2.15693e-05
6.1832e-09
2.09836e-05
5.90993e-09
2.04147e-05
5.62649e-09
1.98621e-05
5.33047e-09
1.93252e-05
5.02009e-09
1.88035e-05
4.69463e-09
1.82966e-05
4.35422e-09
1.78039e-05
3.99461e-09
1.7325e-05
3.62002e-09
1.68596e-05
3.22393e-09
1.64071e-05
2.80639e-09
1.59673e-05
2.36525e-09
1.55397e-05
1.89969e-09
1.51239e-05
1.41e-09
1.47197e-05
8.93651e-10
1.43268e-05
3.51374e-10
1.39447e-05
-2.19698e-10
1.35732e-05
-8.17241e-10
1.3212e-05
-1.44047e-09
1.28609e-05
-2.08989e-09
1.25195e-05
-2.76416e-09
1.21875e-05
-3.46177e-09
1.18648e-05
-4.17932e-09
1.15511e-05
-4.91483e-09
1.12461e-05
-5.66788e-09
1.09496e-05
-6.43106e-09
1.06614e-05
-7.20244e-09
1.03812e-05
-7.98146e-09
1.01088e-05
-8.76043e-09
9.84406e-06
-9.53784e-09
9.58668e-06
-1.03084e-08
9.33649e-06
-1.10698e-08
9.09328e-06
-1.18168e-08
8.85684e-06
-1.25475e-08
8.62699e-06
-1.32577e-08
8.40354e-06
-1.39449e-08
8.18629e-06
-1.46057e-08
7.97505e-06
-1.52377e-08
7.76966e-06
-1.58373e-08
7.56993e-06
7.3757e-06
3.5173e-09
3.44056e-05
3.5043e-09
3.47589e-05
3.49912e-09
3.51122e-05
3.50824e-09
3.54654e-05
3.52997e-09
3.58182e-05
3.56444e-09
3.61705e-05
3.61023e-09
3.65219e-05
3.6712e-09
3.68722e-05
3.73997e-09
3.72212e-05
3.82422e-09
3.75686e-05
3.91835e-09
3.79141e-05
4.02408e-09
3.82574e-05
4.14516e-09
3.85981e-05
4.27747e-09
3.89359e-05
4.42068e-09
3.92704e-05
4.57669e-09
3.96013e-05
4.74319e-09
3.99281e-05
4.91748e-09
4.02504e-05
5.10622e-09
4.05678e-05
5.30366e-09
4.08797e-05
5.50999e-09
4.11857e-05
5.72444e-09
4.14852e-05
5.94247e-09
4.17777e-05
6.17059e-09
4.20624e-05
6.40208e-09
4.23389e-05
6.63497e-09
4.26064e-05
6.87139e-09
4.28641e-05
7.10552e-09
4.31113e-05
7.32974e-09
4.26008e-05
7.54022e-09
4.13676e-05
7.73439e-09
4.01746e-05
7.91015e-09
3.90202e-05
8.06409e-09
3.79029e-05
8.20013e-09
3.68213e-05
8.31254e-09
3.57741e-05
8.39886e-09
3.47599e-05
8.46635e-09
3.37775e-05
8.50341e-09
3.28258e-05
8.51941e-09
3.19036e-05
8.51022e-09
3.10099e-05
8.4762e-09
3.01437e-05
8.41936e-09
2.93039e-05
8.3405e-09
2.84896e-05
8.24062e-09
2.77e-05
8.11982e-09
2.69341e-05
7.97927e-09
2.61912e-05
7.82456e-09
2.54704e-05
7.65057e-09
2.47709e-05
7.46265e-09
2.40921e-05
7.26449e-09
2.34332e-05
7.04997e-09
2.27936e-05
6.82747e-09
2.21726e-05
6.59273e-09
2.15695e-05
6.34628e-09
2.09839e-05
6.09201e-09
2.0415e-05
5.82612e-09
1.98624e-05
5.54839e-09
1.93255e-05
5.25826e-09
1.88038e-05
4.95573e-09
1.82969e-05
4.63903e-09
1.78042e-05
4.30661e-09
1.73253e-05
3.95423e-09
1.68599e-05
3.58594e-09
1.64075e-05
3.19515e-09
1.59676e-05
2.78296e-09
1.55401e-05
2.34942e-09
1.51244e-05
1.8905e-09
1.47202e-05
1.40568e-09
1.43273e-05
8.94725e-10
1.39452e-05
3.59521e-10
1.35738e-05
-2.02592e-10
1.32126e-05
-7.91626e-10
1.28615e-05
-1.40557e-09
1.25201e-05
-2.04362e-09
1.21882e-05
-2.70198e-09
1.18655e-05
-3.38015e-09
1.15518e-05
-4.07801e-09
1.12468e-05
-4.78961e-09
1.09503e-05
-5.51438e-09
1.06621e-05
-6.24587e-09
1.03819e-05
-6.98301e-09
1.01096e-05
-7.72185e-09
9.8448e-06
-8.45933e-09
9.58742e-06
-9.19148e-09
9.33722e-06
-9.91431e-09
9.094e-06
-1.0626e-08
8.85755e-06
-1.13225e-08
8.62769e-06
-1.1999e-08
8.40421e-06
-1.26546e-08
8.18694e-06
-1.32871e-08
7.97569e-06
-1.38923e-08
7.77027e-06
-1.44715e-08
7.57051e-06
7.37625e-06
3.5982e-09
3.44057e-05
3.57956e-09
3.47589e-05
3.5751e-09
3.51122e-05
3.5812e-09
3.54654e-05
3.60178e-09
3.58182e-05
3.63534e-09
3.61704e-05
3.67969e-09
3.65218e-05
3.7336e-09
3.68722e-05
3.80604e-09
3.72212e-05
3.88583e-09
3.75686e-05
3.98223e-09
3.7914e-05
4.09119e-09
3.82573e-05
4.20901e-09
3.8598e-05
4.34057e-09
3.89357e-05
4.48212e-09
3.92703e-05
4.63485e-09
3.96011e-05
4.79986e-09
3.99279e-05
4.97831e-09
4.02502e-05
5.16586e-09
4.05676e-05
5.35977e-09
4.08795e-05
5.56584e-09
4.11855e-05
5.77791e-09
4.1485e-05
6.0007e-09
4.17774e-05
6.22947e-09
4.20622e-05
6.45733e-09
4.23387e-05
6.69322e-09
4.26061e-05
6.92817e-09
4.28639e-05
7.16073e-09
4.31111e-05
7.38495e-09
4.26006e-05
7.59526e-09
4.13674e-05
7.78919e-09
4.01744e-05
7.96424e-09
3.902e-05
8.11983e-09
3.79028e-05
8.25289e-09
3.68212e-05
8.36446e-09
3.5774e-05
8.4546e-09
3.47598e-05
8.51711e-09
3.37775e-05
8.55787e-09
3.28258e-05
8.57406e-09
3.19036e-05
8.56581e-09
3.10099e-05
8.5358e-09
3.01437e-05
8.48076e-09
2.9304e-05
8.40542e-09
2.84897e-05
8.30835e-09
2.77001e-05
8.19453e-09
2.69342e-05
8.06032e-09
2.61913e-05
7.90963e-09
2.54705e-05
7.74656e-09
2.47711e-05
7.57103e-09
2.40923e-05
7.38076e-09
2.34334e-05
7.1806e-09
2.27938e-05
6.97141e-09
2.21728e-05
6.75267e-09
2.15697e-05
6.52499e-09
2.09841e-05
6.28812e-09
2.04152e-05
6.04005e-09
1.98626e-05
5.78563e-09
1.93257e-05
5.51972e-09
1.88041e-05
5.24044e-09
1.82971e-05
4.9497e-09
1.78045e-05
4.64204e-09
1.73257e-05
4.32135e-09
1.68602e-05
3.97998e-09
1.64078e-05
3.62076e-09
1.5968e-05
3.24145e-09
1.55404e-05
2.83873e-09
1.51248e-05
2.41193e-09
1.47206e-05
1.96331e-09
1.43277e-05
1.48837e-09
1.39457e-05
9.89085e-10
1.35743e-05
4.63805e-10
1.32131e-05
-8.68556e-11
1.2862e-05
-6.61768e-10
1.25207e-05
-1.25841e-09
1.21888e-05
-1.87778e-09
1.18661e-05
-2.51746e-09
1.15524e-05
-3.17308e-09
1.12475e-05
-3.84163e-09
1.0951e-05
-4.52352e-09
1.06628e-05
-5.21547e-09
1.03826e-05
-5.91016e-09
1.01103e-05
-6.6095e-09
9.8455e-06
-7.30685e-09
9.58812e-06
-7.99971e-09
9.33791e-06
-8.68451e-09
9.09468e-06
-9.36022e-09
8.85823e-06
-1.00202e-08
8.62835e-06
-1.06673e-08
8.40486e-06
-1.12936e-08
8.18757e-06
-1.18997e-08
7.97629e-06
-1.24823e-08
7.77085e-06
-1.30401e-08
7.57107e-06
7.37678e-06
3.67468e-09
3.44057e-05
3.65522e-09
3.47589e-05
3.65168e-09
3.51122e-05
3.65603e-09
3.54654e-05
3.6727e-09
3.58182e-05
3.70346e-09
3.61704e-05
3.74651e-09
3.65218e-05
3.80354e-09
3.68721e-05
3.87097e-09
3.72211e-05
3.95192e-09
3.75685e-05
4.04453e-09
3.79139e-05
4.14838e-09
3.82572e-05
4.26664e-09
3.85978e-05
4.39542e-09
3.89356e-05
4.53942e-09
3.92701e-05
4.69403e-09
3.9601e-05
4.85909e-09
3.99278e-05
5.03349e-09
4.02501e-05
5.21804e-09
4.05674e-05
5.41657e-09
4.08793e-05
5.61954e-09
4.11853e-05
5.83536e-09
4.14848e-05
6.05412e-09
4.17772e-05
6.28045e-09
4.2062e-05
6.51255e-09
4.23384e-05
6.74568e-09
4.26059e-05
6.9807e-09
4.28636e-05
7.20962e-09
4.31109e-05
7.43486e-09
4.26004e-05
7.64514e-09
4.13672e-05
7.83634e-09
4.01742e-05
8.01204e-09
3.90199e-05
8.16841e-09
3.79026e-05
8.302e-09
3.68211e-05
8.41152e-09
3.57739e-05
8.50102e-09
3.47597e-05
8.56652e-09
3.37774e-05
8.60773e-09
3.28257e-05
8.62397e-09
3.19036e-05
8.61932e-09
3.101e-05
8.58864e-09
3.01437e-05
8.53808e-09
2.9304e-05
8.46568e-09
2.84898e-05
8.37632e-09
2.77002e-05
8.26607e-09
2.69343e-05
8.1415e-09
2.61914e-05
8.00129e-09
2.54706e-05
7.84826e-09
2.47712e-05
7.68123e-09
2.40925e-05
7.50524e-09
2.34336e-05
7.32135e-09
2.2794e-05
7.12549e-09
2.2173e-05
6.92441e-09
2.15699e-05
6.71601e-09
2.09843e-05
6.49916e-09
2.04154e-05
6.2758e-09
1.98628e-05
6.04325e-09
1.9326e-05
5.80177e-09
1.88043e-05
5.55027e-09
1.82974e-05
5.28526e-09
1.78047e-05
5.0108e-09
1.73259e-05
4.71796e-09
1.68605e-05
4.41034e-09
1.64081e-05
4.08454e-09
1.59683e-05
3.73812e-09
1.55408e-05
3.36988e-09
1.51251e-05
2.98195e-09
1.4721e-05
2.56927e-09
1.43281e-05
2.13256e-09
1.39461e-05
1.6696e-09
1.35747e-05
1.18451e-09
1.32136e-05
6.75006e-10
1.28625e-05
1.42889e-10
1.25212e-05
-4.13249e-10
1.21893e-05
-9.89697e-10
1.18667e-05
-1.58434e-09
1.1553e-05
-2.19662e-09
1.12481e-05
-2.82478e-09
1.09516e-05
-3.46305e-09
1.06634e-05
-4.10911e-09
1.03833e-05
-4.76429e-09
1.01109e-05
-5.41983e-09
9.84615e-06
-6.07695e-09
9.58877e-06
-6.73045e-09
9.33857e-06
-7.37893e-09
9.09533e-06
-8.01836e-09
8.85887e-06
-8.6476e-09
8.62898e-06
-9.26211e-09
8.40547e-06
-9.86105e-09
8.18817e-06
-1.0443e-08
7.97687e-06
-1.10057e-08
7.77141e-06
-1.15483e-08
7.57161e-06
7.3773e-06
3.75066e-09
3.44057e-05
3.73096e-09
3.47589e-05
3.72429e-09
3.51122e-05
3.72879e-09
3.54654e-05
3.74423e-09
3.58182e-05
3.77283e-09
3.61704e-05
3.81425e-09
3.65218e-05
3.8681e-09
3.68721e-05
3.93446e-09
3.7221e-05
4.01458e-09
3.75684e-05
4.10625e-09
3.79138e-05
4.21091e-09
3.82571e-05
4.32798e-09
3.85977e-05
4.4564e-09
3.89355e-05
4.59581e-09
3.927e-05
4.74902e-09
3.96008e-05
4.91319e-09
3.99276e-05
5.08887e-09
4.02499e-05
5.27335e-09
4.05672e-05
5.46858e-09
4.08791e-05
5.67341e-09
4.11851e-05
5.8857e-09
4.14846e-05
6.10576e-09
4.1777e-05
6.32961e-09
4.20618e-05
6.56118e-09
4.23382e-05
6.79177e-09
4.26057e-05
7.02468e-09
4.28634e-05
7.25937e-09
4.31106e-05
7.48114e-09
4.26002e-05
7.69072e-09
4.1367e-05
7.88225e-09
4.01741e-05
8.05492e-09
3.90197e-05
8.20769e-09
3.79025e-05
8.34276e-09
3.68209e-05
8.4555e-09
3.57737e-05
8.54317e-09
3.47596e-05
8.60747e-09
3.37773e-05
8.65032e-09
3.28257e-05
8.6688e-09
3.19036e-05
8.66666e-09
3.101e-05
8.64036e-09
3.01438e-05
8.59275e-09
2.9304e-05
8.52751e-09
2.84898e-05
8.44292e-09
2.77003e-05
8.34162e-09
2.69344e-05
8.22477e-09
2.61915e-05
8.09393e-09
2.54708e-05
7.9516e-09
2.47714e-05
7.79904e-09
2.40926e-05
7.63768e-09
2.34338e-05
7.46843e-09
2.27942e-05
7.29322e-09
2.21732e-05
7.11023e-09
2.15701e-05
6.92327e-09
2.09845e-05
6.72987e-09
2.04156e-05
6.53099e-09
1.9863e-05
6.32346e-09
1.93262e-05
6.10881e-09
1.88045e-05
5.88688e-09
1.82976e-05
5.6539e-09
1.7805e-05
5.40748e-09
1.73262e-05
5.14914e-09
1.68608e-05
4.87618e-09
1.64084e-05
4.58496e-09
1.59686e-05
4.27507e-09
1.55411e-05
3.9482e-09
1.51255e-05
3.5969e-09
1.47214e-05
3.22373e-09
1.43285e-05
2.82857e-09
1.39465e-05
2.40952e-09
1.35751e-05
1.96555e-09
1.32141e-05
1.49995e-09
1.2863e-05
1.00987e-09
1.25217e-05
4.98379e-10
1.21898e-05
-3.2018e-11
1.18672e-05
-5.84158e-10
1.15536e-05
-1.14919e-09
1.12486e-05
-1.73109e-09
1.09522e-05
-2.32445e-09
1.0664e-05
-2.92913e-09
1.03839e-05
-3.53869e-09
1.01115e-05
-4.15355e-09
9.84677e-06
-4.769e-09
9.58939e-06
-5.3838e-09
9.33918e-06
-5.99608e-09
9.09594e-06
-6.60043e-09
8.85947e-06
-7.19861e-09
8.62958e-06
-7.78478e-09
8.40606e-06
-8.36014e-09
8.18874e-06
-8.92013e-09
7.97743e-06
-9.46627e-09
7.77196e-06
-9.99456e-09
7.57214e-06
7.37782e-06
3.82948e-09
3.44058e-05
3.80856e-09
3.4759e-05
3.79519e-09
3.51122e-05
3.79916e-09
3.54654e-05
3.81447e-09
3.58182e-05
3.84075e-09
3.61703e-05
3.88013e-09
3.65217e-05
3.93385e-09
3.6872e-05
3.99939e-09
3.7221e-05
4.0767e-09
3.75683e-05
4.16472e-09
3.79137e-05
4.27033e-09
3.82569e-05
4.38511e-09
3.85976e-05
4.51272e-09
3.89354e-05
4.65308e-09
3.92698e-05
4.80378e-09
3.96007e-05
4.96561e-09
3.99274e-05
5.1406e-09
4.02497e-05
5.32566e-09
4.0567e-05
5.51791e-09
4.08789e-05
5.7219e-09
4.11849e-05
5.93139e-09
4.14844e-05
6.15052e-09
4.17768e-05
6.37556e-09
4.20615e-05
6.60367e-09
4.2338e-05
6.83709e-09
4.26054e-05
7.06761e-09
4.28632e-05
7.2968e-09
4.31104e-05
7.52069e-09
4.26e-05
7.72524e-09
4.13668e-05
7.91821e-09
4.01739e-05
8.09069e-09
3.90195e-05
8.24627e-09
3.79023e-05
8.37848e-09
3.68208e-05
8.48958e-09
3.57736e-05
8.57812e-09
3.47595e-05
8.64444e-09
3.37773e-05
8.6877e-09
3.28256e-05
8.71136e-09
3.19036e-05
8.70891e-09
3.101e-05
8.68813e-09
3.01438e-05
8.64739e-09
2.93041e-05
8.58709e-09
2.84899e-05
8.50818e-09
2.77003e-05
8.41724e-09
2.69345e-05
8.30897e-09
2.61917e-05
8.19116e-09
2.54709e-05
8.06245e-09
2.47715e-05
7.92558e-09
2.40927e-05
7.78035e-09
2.34339e-05
7.62876e-09
2.27943e-05
7.47304e-09
2.21733e-05
7.3124e-09
2.15703e-05
7.14667e-09
2.09846e-05
6.97831e-09
2.04158e-05
6.8045e-09
1.98632e-05
6.62667e-09
1.93263e-05
6.44365e-09
1.88047e-05
6.25076e-09
1.82978e-05
6.05125e-09
1.78052e-05
5.84079e-09
1.73264e-05
5.61792e-09
1.6861e-05
5.38073e-09
1.64086e-05
5.12857e-09
1.59689e-05
4.85989e-09
1.55414e-05
4.57008e-09
1.51258e-05
4.26095e-09
1.47217e-05
3.93134e-09
1.43288e-05
3.57863e-09
1.39469e-05
3.20334e-09
1.35755e-05
2.80643e-09
1.32145e-05
2.38513e-09
1.28634e-05
1.94218e-09
1.25221e-05
1.47954e-09
1.21903e-05
9.9368e-10
1.18677e-05
4.91284e-10
1.15541e-05
-2.96753e-11
1.12492e-05
-5.64971e-10
1.09527e-05
-1.11235e-09
1.06646e-05
-1.67016e-09
1.03844e-05
-2.23651e-09
1.01121e-05
-2.80905e-09
9.84734e-06
-3.38504e-09
9.58997e-06
-3.96278e-09
9.33976e-06
-4.53707e-09
9.09652e-06
-5.11e-09
8.86005e-06
-5.67669e-09
8.63014e-06
-6.23691e-09
8.40662e-06
-6.78965e-09
8.18929e-06
-7.33222e-09
7.97798e-06
-7.86333e-09
7.77249e-06
-8.38231e-09
7.57266e-06
7.37832e-06
3.90223e-09
3.44058e-05
3.88088e-09
3.4759e-05
3.87059e-09
3.51123e-05
3.86958e-09
3.54654e-05
3.8834e-09
3.58181e-05
3.90803e-09
3.61703e-05
3.94647e-09
3.65217e-05
3.99863e-09
3.6872e-05
4.06163e-09
3.72209e-05
4.13678e-09
3.75682e-05
4.22706e-09
3.79137e-05
4.32779e-09
3.82568e-05
4.44186e-09
3.85975e-05
4.56792e-09
3.89352e-05
4.70516e-09
3.92697e-05
4.85592e-09
3.96005e-05
5.01663e-09
3.99273e-05
5.18681e-09
4.02495e-05
5.37092e-09
4.05669e-05
5.56254e-09
4.08787e-05
5.76654e-09
4.11847e-05
5.97561e-09
4.14842e-05
6.19273e-09
4.17766e-05
6.41661e-09
4.20613e-05
6.64349e-09
4.23378e-05
6.87167e-09
4.26052e-05
7.10415e-09
4.28629e-05
7.33208e-09
4.31102e-05
7.55174e-09
4.25997e-05
7.76111e-09
4.13666e-05
7.94939e-09
4.01737e-05
8.12256e-09
3.90194e-05
8.27378e-09
3.79022e-05
8.40659e-09
3.68207e-05
8.51874e-09
3.57735e-05
8.60768e-09
3.47594e-05
8.67742e-09
3.37772e-05
8.72305e-09
3.28256e-05
8.7454e-09
3.19035e-05
8.74968e-09
3.101e-05
8.73362e-09
3.01438e-05
8.69741e-09
2.93041e-05
8.64445e-09
2.849e-05
8.57586e-09
2.77004e-05
8.49256e-09
2.69346e-05
8.39844e-09
2.61917e-05
8.29219e-09
2.5471e-05
8.17765e-09
2.47716e-05
8.05735e-09
2.40929e-05
7.93084e-09
2.3434e-05
7.79933e-09
2.27944e-05
7.6645e-09
2.21734e-05
7.52876e-09
2.15704e-05
7.3891e-09
2.09848e-05
7.24849e-09
2.04159e-05
7.10385e-09
1.98634e-05
6.95564e-09
1.93265e-05
6.80367e-09
1.88049e-05
6.64653e-09
1.8298e-05
6.48245e-09
1.78053e-05
6.30866e-09
1.73266e-05
6.12414e-09
1.68612e-05
5.92714e-09
1.64088e-05
5.71576e-09
1.59691e-05
5.48819e-09
1.55416e-05
5.24273e-09
1.5126e-05
4.97899e-09
1.47219e-05
4.6938e-09
1.43291e-05
4.38832e-09
1.39472e-05
4.06091e-09
1.35758e-05
3.71011e-09
1.32148e-05
3.33754e-09
1.28638e-05
2.94409e-09
1.25225e-05
2.52696e-09
1.21907e-05
2.09309e-09
1.18681e-05
1.63887e-09
1.15545e-05
1.16633e-09
1.12496e-05
6.79855e-10
1.09532e-05
1.77969e-10
1.06651e-05
-3.35294e-10
1.03849e-05
-8.57009e-10
1.01126e-05
-1.38729e-09
9.84787e-06
-1.92322e-09
9.5905e-06
-2.46169e-09
9.3403e-06
-3.00402e-09
9.09706e-06
-3.54492e-09
8.86059e-06
-4.08411e-09
8.63068e-06
-4.62077e-09
8.40716e-06
-5.15342e-09
8.18983e-06
-5.67978e-09
7.9785e-06
-6.20111e-09
7.77301e-06
-6.71468e-09
7.57318e-06
7.37883e-06
3.97676e-09
3.44058e-05
3.94916e-09
3.4759e-05
3.93775e-09
3.51123e-05
3.93863e-09
3.54654e-05
3.94756e-09
3.58181e-05
3.97368e-09
3.61703e-05
4.01047e-09
3.65216e-05
4.05727e-09
3.68719e-05
4.12106e-09
3.72208e-05
4.19505e-09
3.75682e-05
4.28379e-09
3.79136e-05
4.38252e-09
3.82567e-05
4.49567e-09
3.85974e-05
4.6201e-09
3.89351e-05
4.75465e-09
3.92696e-05
4.90318e-09
3.96004e-05
5.06248e-09
3.99271e-05
5.23566e-09
4.02494e-05
5.41468e-09
4.05667e-05
5.60763e-09
4.08786e-05
5.8056e-09
4.11845e-05
6.01471e-09
4.14839e-05
6.23066e-09
4.17764e-05
6.44959e-09
4.20611e-05
6.67607e-09
4.23375e-05
6.90401e-09
4.2605e-05
7.13272e-09
4.28627e-05
7.36161e-09
4.311e-05
7.58064e-09
4.25995e-05
7.78386e-09
4.13664e-05
7.97377e-09
4.01735e-05
8.14456e-09
3.90192e-05
8.29793e-09
3.7902e-05
8.42958e-09
3.68205e-05
8.54255e-09
3.57734e-05
8.63295e-09
3.47593e-05
8.70139e-09
3.37771e-05
8.74939e-09
3.28255e-05
8.77935e-09
3.19035e-05
8.78545e-09
3.10099e-05
8.77465e-09
3.01438e-05
8.74725e-09
2.93042e-05
8.70143e-09
2.849e-05
8.64317e-09
2.77005e-05
8.57099e-09
2.69347e-05
8.48862e-09
2.61918e-05
8.39858e-09
2.54711e-05
8.30103e-09
2.47717e-05
8.19665e-09
2.4093e-05
8.09039e-09
2.34341e-05
7.98299e-09
2.27945e-05
7.87236e-09
2.21736e-05
7.76143e-09
2.15705e-05
7.6509e-09
2.09849e-05
7.53706e-09
2.04161e-05
7.42589e-09
1.98635e-05
7.31212e-09
1.93266e-05
7.1951e-09
1.8805e-05
7.07455e-09
1.82981e-05
6.94624e-09
1.78055e-05
6.81181e-09
1.73267e-05
6.66989e-09
1.68613e-05
6.51565e-09
1.6409e-05
6.34869e-09
1.59693e-05
6.1661e-09
1.55418e-05
5.96732e-09
1.51262e-05
5.74962e-09
1.47222e-05
5.51361e-09
1.43293e-05
5.25533e-09
1.39474e-05
4.97776e-09
1.35761e-05
4.67786e-09
1.32151e-05
4.3569e-09
1.28641e-05
4.01376e-09
1.25229e-05
3.64944e-09
1.21911e-05
3.26328e-09
1.18685e-05
2.86e-09
1.15549e-05
2.43899e-09
1.12501e-05
2.00015e-09
1.09537e-05
1.54597e-09
1.06655e-05
1.07912e-09
1.03854e-05
6.00619e-10
1.01131e-05
1.12357e-10
9.84836e-06
-3.84776e-10
9.591e-06
-8.87106e-10
9.3408e-06
-1.39497e-09
9.09757e-06
-1.90719e-09
8.8611e-06
-2.42166e-09
8.6312e-06
-2.9371e-09
8.40767e-06
-3.45209e-09
8.19034e-06
-3.96817e-09
7.97902e-06
-4.48099e-09
7.77353e-06
-4.99285e-09
7.57369e-06
7.37934e-06
4.04495e-09
3.44059e-05
4.02071e-09
3.4759e-05
4.00557e-09
3.51123e-05
4.00293e-09
3.54654e-05
4.01463e-09
3.58181e-05
4.0338e-09
3.61703e-05
4.07131e-09
3.65216e-05
4.11846e-09
3.68719e-05
4.17614e-09
3.72208e-05
4.25053e-09
3.75681e-05
4.33698e-09
3.79135e-05
4.43399e-09
3.82567e-05
4.54419e-09
3.85973e-05
4.66735e-09
3.8935e-05
4.8043e-09
3.92694e-05
4.94772e-09
3.96002e-05
5.10664e-09
3.9927e-05
5.27395e-09
4.02492e-05
5.45436e-09
4.05665e-05
5.64252e-09
4.08784e-05
5.84127e-09
4.11843e-05
6.0476e-09
4.14837e-05
6.25944e-09
4.17761e-05
6.48025e-09
4.20609e-05
6.70329e-09
4.23373e-05
6.93e-09
4.26048e-05
7.15808e-09
4.28625e-05
7.38209e-09
4.31097e-05
7.59972e-09
4.25993e-05
7.80274e-09
4.13662e-05
7.98943e-09
4.01733e-05
8.16076e-09
3.9019e-05
8.31119e-09
3.79019e-05
8.44548e-09
3.68204e-05
8.55695e-09
3.57733e-05
8.64979e-09
3.47593e-05
8.72215e-09
3.3777e-05
8.77345e-09
3.28255e-05
8.80427e-09
3.19035e-05
8.81837e-09
3.10099e-05
8.81318e-09
3.01438e-05
8.79296e-09
2.93042e-05
8.75827e-09
2.849e-05
8.70894e-09
2.77005e-05
8.651e-09
2.69347e-05
8.5842e-09
2.61919e-05
8.50973e-09
2.54712e-05
8.431e-09
2.47718e-05
8.34953e-09
2.4093e-05
8.26462e-09
2.34342e-05
8.17941e-09
2.27946e-05
8.09542e-09
2.21736e-05
8.01271e-09
2.15706e-05
7.93227e-09
2.0985e-05
7.85362e-09
2.04161e-05
7.77454e-09
1.98635e-05
7.69598e-09
1.93267e-05
7.61561e-09
1.88051e-05
7.5347e-09
1.82982e-05
7.44921e-09
1.78056e-05
7.35794e-09
1.73268e-05
7.25878e-09
1.68614e-05