/*--------------------------------*- C++ -*----------------------------------*\
  =========                 |
  \\      /  F ield         | OpenFOAM: The Open Source CFD Toolbox
   \\    /   O peration     | Website:  https://openfoam.org
    \\  /    A nd           | Version:  10
     \\/     M anipulation  |
\*---------------------------------------------------------------------------*/
FoamFile
{
    format      ascii;
    class       volScalarField;
    location    "51000";
    object      nut;
}
// * * * * * * * * * * * * * * * * * * * * * * * * * * * * * * * * * * * * * //

dimensions      [0 2 -1 0 0 0 0];

internalField   nonuniform List<scalar> 
17808
(
2.82543e-06
2.05448e-05
3.57909e-05
5.0671e-05
6.63747e-05
8.26438e-05
9.93657e-05
0.000116484
0.000133966
0.000151796
0.000169961
0.000188456
0.000207278
0.000226426
0.0002459
0.000265702
0.000285834
0.000306299
0.000327101
0.000348243
0.000369729
0.000391564
0.000413753
0.000436301
0.000459211
0.000482491
0.000506144
0.000530177
0.000554594
0.000579402
0.000604607
0.000630214
0.00065623
0.00068266
0.00070951
0.000736787
0.000764497
0.000792646
0.000821241
0.000850288
0.000879793
0.000909762
0.000940203
0.000971121
0.00100252
0.00103441
0.0010668
0.00109969
0.00113309
0.001167
0.00120143
0.00123639
0.00127188
0.00130791
0.00134448
0.00138159
0.00141926
0.00145748
0.00149627
0.00153562
0.00157553
0.00161602
0.00165708
0.00169872
0.00174093
0.00178371
0.00182707
0.001871
0.0019155
0.00196057
0.00200621
0.00205241
0.00209916
0.00214647
0.00219433
0.00224271
0.00229163
0.00234105
0.00239098
0.00244139
0.00249227
0.0025436
0.00259536
0.00264753
0.00270008
0.00275298
0.00280621
0.00285973
0.0029135
0.0029675
0.00302166
0.00307596
2.81542e-06
2.08415e-05
3.57745e-05
5.0656e-05
6.63563e-05
8.26221e-05
9.93411e-05
0.000116456
0.000133937
0.000151765
0.000169928
0.000188423
0.000207244
0.000226391
0.000245865
0.000265667
0.0002858
0.000306265
0.000327067
0.000348209
0.000369696
0.000391532
0.000413722
0.00043627
0.000459181
0.000482461
0.000506114
0.000530148
0.000554566
0.000579375
0.00060458
0.000630188
0.000656204
0.000682634
0.000709485
0.000736763
0.000764473
0.000792623
0.000821218
0.000850265
0.000879771
0.000909741
0.000940182
0.0009711
0.0010025
0.00103439
0.00106678
0.00109967
0.00113307
0.00116698
0.00120142
0.00123638
0.00127187
0.00130789
0.00134446
0.00138158
0.00141925
0.00145747
0.00149626
0.0015356
0.00157552
0.00161601
0.00165707
0.00169871
0.00174092
0.0017837
0.00182706
0.00187099
0.00191549
0.00196056
0.0020062
0.0020524
0.00209916
0.00214647
0.00219432
0.00224271
0.00229162
0.00234105
0.00239098
0.00244139
0.00249227
0.0025436
0.00259536
0.00264753
0.00270008
0.00275298
0.00280621
0.00285973
0.0029135
0.0029675
0.00302167
0.00307596
2.81041e-06
2.0911e-05
3.5754e-05
5.06367e-05
6.63351e-05
8.25997e-05
9.93175e-05
0.000116432
0.000133911
0.000151738
0.000169902
0.000188395
0.000207216
0.000226364
0.000245838
0.00026564
0.000285772
0.000306238
0.00032704
0.000348183
0.00036967
0.000391506
0.000413696
0.000436244
0.000459156
0.000482436
0.00050609
0.000530124
0.000554542
0.000579352
0.000604557
0.000630165
0.000656182
0.000682613
0.000709464
0.000736742
0.000764453
0.000792603
0.000821199
0.000850247
0.000879753
0.000909723
0.000940165
0.000971083
0.00100249
0.00103438
0.00106677
0.00109966
0.00113306
0.00116697
0.0012014
0.00123636
0.00127185
0.00130788
0.00134445
0.00138157
0.00141924
0.00145746
0.00149624
0.00153559
0.00157551
0.001616
0.00165706
0.0016987
0.00174091
0.00178369
0.00182705
0.00187098
0.00191548
0.00196055
0.00200619
0.00205239
0.00209915
0.00214646
0.00219432
0.00224271
0.00229162
0.00234105
0.00239097
0.00244139
0.00249227
0.0025436
0.00259536
0.00264753
0.00270008
0.00275298
0.00280621
0.00285973
0.00291351
0.0029675
0.00302167
0.00307597
2.80951e-06
2.08921e-05
3.57393e-05
5.06201e-05
6.63165e-05
8.258e-05
9.92967e-05
0.00011641
0.000133889
0.000151715
0.000169878
0.000188371
0.000207192
0.000226339
0.000245813
0.000265616
0.000285748
0.000306214
0.000327017
0.00034816
0.000369647
0.000391484
0.000413674
0.000436222
0.000459134
0.000482415
0.000506069
0.000530103
0.000554522
0.000579332
0.000604538
0.000630146
0.000656163
0.000682594
0.000709446
0.000736724
0.000764435
0.000792586
0.000821182
0.00085023
0.000879736
0.000909707
0.000940149
0.000971068
0.00100247
0.00103436
0.00106675
0.00109964
0.00113304
0.00116696
0.00120139
0.00123635
0.00127184
0.00130787
0.00134444
0.00138156
0.00141923
0.00145745
0.00149624
0.00153559
0.0015755
0.00161599
0.00165705
0.00169869
0.0017409
0.00178368
0.00182704
0.00187097
0.00191548
0.00196055
0.00200619
0.00205239
0.00209915
0.00214646
0.00219431
0.0022427
0.00229162
0.00234105
0.00239097
0.00244139
0.00249227
0.0025436
0.00259536
0.00264753
0.00270008
0.00275299
0.00280621
0.00285974
0.00291351
0.00296751
0.00302168
0.00307598
2.80916e-06
2.0884e-05
3.57307e-05
5.06088e-05
6.63041e-05
8.25666e-05
9.92821e-05
0.000116394
0.000133872
0.000151697
0.000169859
0.000188352
0.000207172
0.000226319
0.000245793
0.000265595
0.000285728
0.000306194
0.000326997
0.00034814
0.000369627
0.000391464
0.000413655
0.000436203
0.000459115
0.000482396
0.000506051
0.000530085
0.000554504
0.000579314
0.000604521
0.000630129
0.000656146
0.000682578
0.00070943
0.000736708
0.00076442
0.000792571
0.000821167
0.000850215
0.000879722
0.000909693
0.000940135
0.000971054
0.00100246
0.00103435
0.00106674
0.00109963
0.00113303
0.00116694
0.00120138
0.00123634
0.00127183
0.00130786
0.00134443
0.00138155
0.00141922
0.00145744
0.00149623
0.00153558
0.00157549
0.00161598
0.00165705
0.00169868
0.00174089
0.00178368
0.00182704
0.00187097
0.00191547
0.00196054
0.00200618
0.00205238
0.00209914
0.00214646
0.00219431
0.0022427
0.00229162
0.00234104
0.00239097
0.00244139
0.00249227
0.0025436
0.00259536
0.00264753
0.00270008
0.00275299
0.00280622
0.00285974
0.00291352
0.00296751
0.00302168
0.00307598
2.80876e-06
2.08811e-05
3.57248e-05
5.05999e-05
6.62947e-05
8.25563e-05
9.92709e-05
0.000116382
0.000133859
0.000151683
0.000169844
0.000188336
0.000207156
0.000226302
0.000245776
0.000265578
0.00028571
0.000306176
0.000326979
0.000348122
0.00036961
0.000391447
0.000413638
0.000436186
0.000459099
0.00048238
0.000506035
0.000530069
0.000554489
0.000579299
0.000604505
0.000630114
0.000656131
0.000682563
0.000709415
0.000736694
0.000764406
0.000792557
0.000821154
0.000850202
0.000879709
0.00090968
0.000940122
0.000971042
0.00100245
0.00103434
0.00106673
0.00109962
0.00113302
0.00116693
0.00120137
0.00123633
0.00127182
0.00130785
0.00134442
0.00138154
0.00141921
0.00145743
0.00149622
0.00153557
0.00157549
0.00161598
0.00165704
0.00169867
0.00174089
0.00178367
0.00182703
0.00187096
0.00191546
0.00196054
0.00200618
0.00205238
0.00209914
0.00214645
0.00219431
0.0022427
0.00229161
0.00234104
0.00239097
0.00244139
0.00249227
0.0025436
0.00259537
0.00264753
0.00270009
0.00275299
0.00280622
0.00285974
0.00291352
0.00296752
0.00302169
0.00307599
2.80864e-06
2.0877e-05
3.57205e-05
5.05924e-05
6.62865e-05
8.25473e-05
9.92612e-05
0.000116372
0.000133847
0.000151671
0.000169831
0.000188322
0.000207142
0.000226288
0.000245761
0.000265563
0.000285695
0.000306161
0.000326963
0.000348107
0.000369595
0.000391432
0.000413622
0.000436171
0.000459084
0.000482365
0.00050602
0.000530055
0.000554475
0.000579285
0.000604492
0.000630101
0.000656118
0.00068255
0.000709402
0.000736682
0.000764394
0.000792545
0.000821142
0.00085019
0.000879697
0.000909669
0.000940111
0.000971031
0.00100243
0.00103433
0.00106672
0.00109961
0.00113301
0.00116692
0.00120136
0.00123632
0.00127181
0.00130784
0.00134441
0.00138153
0.0014192
0.00145743
0.00149621
0.00153556
0.00157548
0.00161597
0.00165703
0.00169867
0.00174088
0.00178366
0.00182702
0.00187096
0.00191546
0.00196053
0.00200617
0.00205238
0.00209914
0.00214645
0.00219431
0.0022427
0.00229161
0.00234104
0.00239097
0.00244139
0.00249227
0.0025436
0.00259537
0.00264754
0.00270009
0.00275299
0.00280623
0.00285975
0.00291353
0.00296752
0.00302169
0.00307599
2.8088e-06
2.08735e-05
3.57175e-05
5.05864e-05
6.62795e-05
8.25395e-05
9.92529e-05
0.000116363
0.000133838
0.00015166
0.00016982
0.00018831
0.000207129
0.000226275
0.000245748
0.000265549
0.000285681
0.000306147
0.000326949
0.000348093
0.000369581
0.000391418
0.000413609
0.000436158
0.000459071
0.000482352
0.000506007
0.000530042
0.000554462
0.000579272
0.000604479
0.000630089
0.000656106
0.000682538
0.000709391
0.00073667
0.000764382
0.000792534
0.000821131
0.00085018
0.000879687
0.000909659
0.000940101
0.000971021
0.00100243
0.00103432
0.00106671
0.0010996
0.001133
0.00116692
0.00120135
0.00123631
0.0012718
0.00130783
0.0013444
0.00138152
0.00141919
0.00145742
0.00149621
0.00153556
0.00157548
0.00161596
0.00165703
0.00169866
0.00174087
0.00178366
0.00182702
0.00187095
0.00191546
0.00196053
0.00200617
0.00205237
0.00209914
0.00214645
0.0021943
0.0022427
0.00229161
0.00234104
0.00239097
0.00244139
0.00249227
0.00254361
0.00259537
0.00264754
0.00270009
0.002753
0.00280623
0.00285975
0.00291353
0.00296753
0.0030217
0.003076
2.80908e-06
2.08713e-05
3.57157e-05
5.05817e-05
6.62736e-05
8.25329e-05
9.92457e-05
0.000116355
0.000133829
0.000151651
0.00016981
0.0001883
0.000207118
0.000226263
0.000245736
0.000265537
0.000285669
0.000306134
0.000326937
0.00034808
0.000369568
0.000391405
0.000413596
0.000436145
0.000459058
0.00048234
0.000505995
0.00053003
0.00055445
0.000579261
0.000604468
0.000630077
0.000656095
0.000682528
0.00070938
0.00073666
0.000764372
0.000792524
0.000821121
0.00085017
0.000879678
0.000909649
0.000940092
0.000971013
0.00100242
0.00103431
0.0010667
0.00109959
0.00113299
0.00116691
0.00120134
0.0012363
0.0012718
0.00130783
0.0013444
0.00138152
0.00141919
0.00145741
0.0014962
0.00153555
0.00157547
0.00161596
0.00165702
0.00169866
0.00174087
0.00178365
0.00182701
0.00187095
0.00191545
0.00196053
0.00200617
0.00205237
0.00209913
0.00214645
0.0021943
0.00224269
0.00229161
0.00234104
0.00239097
0.00244139
0.00249227
0.00254361
0.00259537
0.00264754
0.00270009
0.002753
0.00280623
0.00285976
0.00291354
0.00296753
0.0030217
0.00307601
2.8094e-06
2.087e-05
3.57148e-05
5.0578e-05
6.62686e-05
8.25271e-05
9.92395e-05
0.000116348
0.000133822
0.000151644
0.000169802
0.000188291
0.000207109
0.000226253
0.000245725
0.000265526
0.000285658
0.000306123
0.000326926
0.000348069
0.000369557
0.000391394
0.000413585
0.000436134
0.000459047
0.000482329
0.000505984
0.000530019
0.000554439
0.00057925
0.000604458
0.000630067
0.000656085
0.000682518
0.000709371
0.00073665
0.000764363
0.000792515
0.000821112
0.000850162
0.000879669
0.000909641
0.000940084
0.000971005
0.00100241
0.0010343
0.00106669
0.00109959
0.00113299
0.0011669
0.00120134
0.0012363
0.00127179
0.00130782
0.00134439
0.00138151
0.00141918
0.00145741
0.0014962
0.00153555
0.00157547
0.00161596
0.00165702
0.00169865
0.00174086
0.00178365
0.00182701
0.00187094
0.00191545
0.00196052
0.00200616
0.00205237
0.00209913
0.00214644
0.0021943
0.00224269
0.00229161
0.00234104
0.00239097
0.00244139
0.00249227
0.00254361
0.00259537
0.00264754
0.0027001
0.00275301
0.00280624
0.00285976
0.00291354
0.00296754
0.00302171
0.00307601
2.80976e-06
2.08692e-05
3.57146e-05
5.05753e-05
6.62644e-05
8.25221e-05
9.9234e-05
0.000116342
0.000133816
0.000151637
0.000169795
0.000188283
0.0002071
0.000226245
0.000245716
0.000265517
0.000285648
0.000306113
0.000326915
0.000348058
0.000369546
0.000391383
0.000413574
0.000436124
0.000459037
0.000482318
0.000505974
0.000530009
0.000554429
0.00057924
0.000604448
0.000630058
0.000656076
0.000682509
0.000709362
0.000736642
0.000764355
0.000792507
0.000821104
0.000850154
0.000879661
0.000909634
0.000940077
0.000970997
0.0010024
0.0010343
0.00106669
0.00109958
0.00113298
0.0011669
0.00120133
0.00123629
0.00127178
0.00130781
0.00134439
0.00138151
0.00141918
0.0014574
0.00149619
0.00153554
0.00157546
0.00161595
0.00165701
0.00169865
0.00174086
0.00178365
0.00182701
0.00187094
0.00191545
0.00196052
0.00200616
0.00205237
0.00209913
0.00214644
0.0021943
0.00224269
0.00229161
0.00234104
0.00239097
0.00244139
0.00249228
0.00254361
0.00259538
0.00264755
0.0027001
0.00275301
0.00280624
0.00285977
0.00291355
0.00296754
0.00302172
0.00307602
2.81013e-06
2.08688e-05
3.57151e-05
5.05735e-05
6.62609e-05
8.25178e-05
9.92292e-05
0.000116337
0.00013381
0.000151631
0.000169788
0.000188276
0.000207093
0.000226237
0.000245708
0.000265508
0.000285639
0.000306104
0.000326906
0.000348049
0.000369537
0.000391374
0.000413565
0.000436114
0.000459027
0.000482309
0.000505965
0.00053
0.00055442
0.000579231
0.000604439
0.000630049
0.000656067
0.0006825
0.000709354
0.000736634
0.000764347
0.000792499
0.000821097
0.000850146
0.000879654
0.000909627
0.00094007
0.000970991
0.0010024
0.00103429
0.00106668
0.00109957
0.00113297
0.00116689
0.00120133
0.00123629
0.00127178
0.00130781
0.00134438
0.0013815
0.00141917
0.0014574
0.00149619
0.00153554
0.00157546
0.00161595
0.00165701
0.00169865
0.00174086
0.00178364
0.001827
0.00187094
0.00191544
0.00196052
0.00200616
0.00205237
0.00209913
0.00214644
0.0021943
0.00224269
0.00229161
0.00234104
0.00239098
0.00244139
0.00249228
0.00254361
0.00259538
0.00264755
0.00270011
0.00275301
0.00280625
0.00285977
0.00291355
0.00296755
0.00302172
0.00307603
2.81049e-06
2.08687e-05
3.5716e-05
5.05723e-05
6.62581e-05
8.2514e-05
9.92249e-05
0.000116333
0.000133805
0.000151625
0.000169782
0.00018827
0.000207086
0.00022623
0.000245701
0.0002655
0.000285631
0.000306096
0.000326898
0.00034804
0.000369528
0.000391365
0.000413556
0.000436105
0.000459018
0.0004823
0.000505956
0.000529991
0.000554412
0.000579223
0.000604431
0.000630041
0.000656059
0.000682492
0.000709346
0.000736626
0.000764339
0.000792492
0.00082109
0.00085014
0.000879648
0.00090962
0.000940064
0.000970985
0.00100239
0.00103428
0.00106667
0.00109957
0.00113297
0.00116688
0.00120132
0.00123628
0.00127178
0.00130781
0.00134438
0.0013815
0.00141917
0.0014574
0.00149618
0.00153554
0.00157546
0.00161595
0.00165701
0.00169864
0.00174085
0.00178364
0.001827
0.00187094
0.00191544
0.00196052
0.00200616
0.00205237
0.00209913
0.00214644
0.0021943
0.0022427
0.00229161
0.00234105
0.00239098
0.0024414
0.00249228
0.00254362
0.00259538
0.00264756
0.00270011
0.00275302
0.00280625
0.00285978
0.00291356
0.00296756
0.00302173
0.00307604
2.81085e-06
2.0869e-05
3.57174e-05
5.05718e-05
6.62559e-05
8.25108e-05
9.92211e-05
0.000116328
0.000133801
0.000151621
0.000169777
0.000188265
0.000207081
0.000226223
0.000245694
0.000265493
0.000285624
0.000306088
0.00032689
0.000348033
0.00036952
0.000391357
0.000413548
0.000436097
0.00045901
0.000482292
0.000505948
0.000529983
0.000554404
0.000579215
0.000604423
0.000630033
0.000656052
0.000682485
0.000709339
0.000736619
0.000764332
0.000792485
0.000821083
0.000850133
0.000879641
0.000909614
0.000940058
0.000970979
0.00100238
0.00103428
0.00106667
0.00109956
0.00113296
0.00116688
0.00120132
0.00123628
0.00127177
0.0013078
0.00134438
0.00138149
0.00141917
0.00145739
0.00149618
0.00153553
0.00157545
0.00161594
0.00165701
0.00169864
0.00174085
0.00178364
0.001827
0.00187093
0.00191544
0.00196052
0.00200616
0.00205237
0.00209913
0.00214644
0.0021943
0.0022427
0.00229162
0.00234105
0.00239098
0.0024414
0.00249228
0.00254362
0.00259539
0.00264756
0.00270012
0.00275303
0.00280626
0.00285979
0.00291357
0.00296757
0.00302174
0.00307604
2.81118e-06
2.08694e-05
3.57192e-05
5.05718e-05
6.62543e-05
8.25081e-05
9.92177e-05
0.000116325
0.000133797
0.000151616
0.000169773
0.00018826
0.000207075
0.000226218
0.000245688
0.000265487
0.000285617
0.000306082
0.000326883
0.000348026
0.000369513
0.00039135
0.00041354
0.00043609
0.000459003
0.000482285
0.00050594
0.000529976
0.000554397
0.000579208
0.000604416
0.000630026
0.000656045
0.000682478
0.000709332
0.000736613
0.000764326
0.000792479
0.000821077
0.000850127
0.000879636
0.000909609
0.000940053
0.000970974
0.00100238
0.00103427
0.00106667
0.00109956
0.00113296
0.00116688
0.00120131
0.00123627
0.00127177
0.0013078
0.00134437
0.00138149
0.00141916
0.00145739
0.00149618
0.00153553
0.00157545
0.00161594
0.001657
0.00169864
0.00174085
0.00178364
0.001827
0.00187093
0.00191544
0.00196052
0.00200616
0.00205237
0.00209913
0.00214645
0.0021943
0.0022427
0.00229162
0.00234105
0.00239098
0.0024414
0.00249229
0.00254363
0.00259539
0.00264757
0.00270012
0.00275303
0.00280627
0.00285979
0.00291357
0.00296757
0.00302175
0.00307605
2.8115e-06
2.087e-05
3.57211e-05
5.05724e-05
6.62532e-05
8.25059e-05
9.92148e-05
0.000116321
0.000133793
0.000151612
0.000169768
0.000188255
0.00020707
0.000226213
0.000245683
0.000265481
0.000285611
0.000306075
0.000326877
0.000348019
0.000369506
0.000391343
0.000413534
0.000436083
0.000458996
0.000482278
0.000505934
0.000529969
0.00055439
0.000579201
0.000604409
0.00063002
0.000656038
0.000682472
0.000709326
0.000736606
0.00076432
0.000792473
0.000821071
0.000850122
0.00087963
0.000909604
0.000940048
0.000970969
0.00100237
0.00103427
0.00106666
0.00109955
0.00113296
0.00116687
0.00120131
0.00123627
0.00127177
0.0013078
0.00134437
0.00138149
0.00141916
0.00145739
0.00149618
0.00153553
0.00157545
0.00161594
0.001657
0.00169864
0.00174085
0.00178364
0.001827
0.00187093
0.00191544
0.00196052
0.00200616
0.00205237
0.00209913
0.00214645
0.00219431
0.0022427
0.00229162
0.00234105
0.00239099
0.00244141
0.00249229
0.00254363
0.0025954
0.00264757
0.00270013
0.00275304
0.00280627
0.0028598
0.00291358
0.00296758
0.00302175
0.00307606
2.81179e-06
2.08708e-05
3.57233e-05
5.05733e-05
6.62527e-05
8.25042e-05
9.92123e-05
0.000116318
0.00013379
0.000151609
0.000169765
0.000188251
0.000207066
0.000226208
0.000245678
0.000265476
0.000285606
0.00030607
0.000326871
0.000348013
0.0003695
0.000391337
0.000413527
0.000436077
0.00045899
0.000482271
0.000505927
0.000529963
0.000554383
0.000579195
0.000604403
0.000630013
0.000656032
0.000682466
0.00070932
0.000736601
0.000764314
0.000792467
0.000821066
0.000850117
0.000879625
0.000909599
0.000940043
0.000970965
0.00100237
0.00103427
0.00106666
0.00109955
0.00113295
0.00116687
0.00120131
0.00123627
0.00127176
0.00130779
0.00134437
0.00138149
0.00141916
0.00145739
0.00149618
0.00153553
0.00157545
0.00161594
0.001657
0.00169864
0.00174085
0.00178364
0.001827
0.00187093
0.00191544
0.00196052
0.00200616
0.00205237
0.00209913
0.00214645
0.00219431
0.0022427
0.00229162
0.00234106
0.00239099
0.00244141
0.0024923
0.00254364
0.0025954
0.00264758
0.00270013
0.00275305
0.00280628
0.0028598
2.81206e-06
2.08717e-05
3.57257e-05
5.05747e-05
6.62526e-05
8.2503e-05
9.92102e-05
0.000116316
0.000133787
0.000151606
0.000169761
0.000188248
0.000207062
0.000226204
0.000245673
0.000265472
0.000285601
0.000306065
0.000326866
0.000348008
0.000369495
0.000391331
0.000413522
0.000436071
0.000458984
0.000482266
0.000505922
0.000529957
0.000554378
0.000579189
0.000604397
0.000630008
0.000656027
0.00068246
0.000709314
0.000736595
0.000764309
0.000792462
0.000821061
0.000850112
0.000879621
0.000909594
0.000940039
0.000970961
0.00100237
0.00103426
0.00106665
0.00109955
0.00113295
0.00116687
0.0012013
0.00123627
0.00127176
0.00130779
0.00134437
0.00138149
0.00141916
0.00145739
0.00149618
0.00153553
0.00157545
0.00161594
0.001657
0.00169864
0.00174085
0.00178364
0.001827
0.00187093
0.00191544
0.00196052
0.00200616
0.00205237
0.00209913
0.00214645
0.00219431
0.00224271
0.00229163
0.00234106
0.002391
0.00244141
0.0024923
0.00254364
0.00259541
0.00264759
0.00270014
0.00275305
0.00280629
0.00285981
2.8123e-06
2.08726e-05
3.57281e-05
5.05764e-05
6.6253e-05
8.25021e-05
9.92086e-05
0.000116313
0.000133784
0.000151603
0.000169758
0.000188244
0.000207059
0.0002262
0.000245669
0.000265467
0.000285597
0.00030606
0.000326861
0.000348003
0.00036949
0.000391326
0.000413517
0.000436066
0.000458979
0.00048226
0.000505916
0.000529952
0.000554372
0.000579184
0.000604392
0.000630003
0.000656022
0.000682455
0.000709309
0.00073659
0.000764304
0.000792458
0.000821057
0.000850107
0.000879616
0.00090959
0.000940035
0.000970957
0.00100236
0.00103426
0.00106665
0.00109954
0.00113295
0.00116686
0.0012013
0.00123626
0.00127176
0.00130779
0.00134436
0.00138149
0.00141916
0.00145739
0.00149618
0.00153553
0.00157545
0.00161594
0.001657
0.00169864
0.00174085
0.00178364
0.001827
0.00187093
0.00191544
0.00196052
0.00200616
0.00205237
0.00209914
0.00214645
0.00219431
0.00224271
0.00229163
0.00234107
0.002391
0.00244142
0.00249231
0.00254365
0.00259542
0.00264759
0.00270015
0.00275306
0.00280629
0.00285982
2.81253e-06
2.08737e-05
3.57306e-05
5.05783e-05
6.62538e-05
8.25018e-05
9.92073e-05
0.000116311
0.000133782
0.0001516
0.000169755
0.000188241
0.000207055
0.000226197
0.000245665
0.000265463
0.000285593
0.000306056
0.000326856
0.000347998
0.000369485
0.000391321
0.000413512
0.000436061
0.000458974
0.000482255
0.000505911
0.000529947
0.000554367
0.000579179
0.000604387
0.000629998
0.000656017
0.000682451
0.000709305
0.000736586
0.0007643
0.000792453
0.000821052
0.000850103
0.000879612
0.000909586
0.000940031
0.000970953
0.00100236
0.00103426
0.00106665
0.00109954
0.00113294
0.00116686
0.0012013
0.00123626
0.00127176
0.00130779
0.00134436
0.00138148
0.00141916
0.00145739
0.00149618
0.00153553
0.00157545
0.00161594
0.001657
0.00169864
0.00174085
0.00178364
0.001827
0.00187093
0.00191544
0.00196052
0.00200617
0.00205237
0.00209914
0.00214646
0.00219432
0.00224271
0.00229164
0.00234107
0.00239101
0.00244143
0.00249232
0.00254366
0.00259542
0.0026476
0.00270015
2.81274e-06
2.08748e-05
3.57331e-05
5.05805e-05
6.62549e-05
8.25018e-05
9.92064e-05
0.00011631
0.00013378
0.000151598
0.000169753
0.000188238
0.000207052
0.000226193
0.000245662
0.00026546
0.000285589
0.000306052
0.000326852
0.000347994
0.000369481
0.000391317
0.000413507
0.000436056
0.000458969
0.000482251
0.000505907
0.000529942
0.000554363
0.000579174
0.000604383
0.000629993
0.000656013
0.000682446
0.000709301
0.000736582
0.000764296
0.000792449
0.000821048
0.000850099
0.000879609
0.000909583
0.000940028
0.00097095
0.00100236
0.00103425
0.00106664
0.00109954
0.00113294
0.00116686
0.0012013
0.00123626
0.00127176
0.00130779
0.00134436
0.00138148
0.00141916
0.00145739
0.00149618
0.00153553
0.00157545
0.00161594
0.001657
0.00169864
0.00174085
0.00178364
0.001827
0.00187094
0.00191544
0.00196052
0.00200617
0.00205238
0.00209914
0.00214646
0.00219432
0.00224272
0.00229164
0.00234108
0.00239101
0.00244143
0.00249232
0.00254366
0.00259543
0.00264761
0.00270016
2.81293e-06
2.0876e-05
3.57357e-05
5.05829e-05
6.62563e-05
8.25021e-05
9.92058e-05
0.000116309
0.000133778
0.000151596
0.00016975
0.000188236
0.00020705
0.00022619
0.000245659
0.000265457
0.000285585
0.000306048
0.000326849
0.00034799
0.000369477
0.000391313
0.000413503
0.000436052
0.000458965
0.000482247
0.000505903
0.000529938
0.000554359
0.00057917
0.000604379
0.000629989
0.000656009
0.000682442
0.000709297
0.000736578
0.000764292
0.000792446
0.000821045
0.000850096
0.000879605
0.00090958
0.000940025
0.000970947
0.00100235
0.00103425
0.00106664
0.00109954
0.00113294
0.00116686
0.0012013
0.00123626
0.00127175
0.00130779
0.00134436
0.00138148
0.00141916
0.00145739
0.00149618
0.00153553
0.00157545
0.00161594
0.001657
0.00169864
0.00174085
0.00178364
0.001827
0.00187094
0.00191545
0.00196053
0.00200617
0.00205238
0.00209915
0.00214647
0.00219433
0.00224272
0.00229165
0.00234108
0.00239102
0.00244144
0.00249233
0.00254367
0.00259544
0.00264762
0.00270017
2.8131e-06
2.08772e-05
3.57382e-05
5.05854e-05
6.62581e-05
8.25029e-05
9.92057e-05
0.000116308
0.000133777
0.000151594
0.000169748
0.000188234
0.000207047
0.000226188
0.000245656
0.000265454
0.000285582
0.000306045
0.000326845
0.000347987
0.000369473
0.000391309
0.0004135
0.000436049
0.000458961
0.000482243
0.000505899
0.000529934
0.000554355
0.000579167
0.000604375
0.000629986
0.000656005
0.000682439
0.000709293
0.000736574
0.000764289
0.000792442
0.000821042
0.000850093
0.000879602
0.000909577
0.000940022
0.000970945
0.00100235
0.00103425
0.00106664
0.00109953
0.00113294
0.00116686
0.00120129
0.00123626
0.00127175
0.00130779
0.00134436
0.00138148
0.00141916
0.00145739
0.00149618
0.00153553
0.00157545
0.00161594
0.00165701
0.00169864
0.00174085
0.00178364
0.001827
0.00187094
0.00191545
0.00196053
0.00200618
0.00205238
0.00209915
0.00214647
0.00219433
0.00224273
0.00229165
0.00234109
0.00239103
0.00244145
0.00249234
0.00254368
0.00259545
0.00264762
0.00270018
2.81326e-06
2.08784e-05
3.57408e-05
5.05881e-05
6.62601e-05
8.2504e-05
9.92058e-05
0.000116307
0.000133776
0.000151592
0.000169746
0.000188232
0.000207045
0.000226185
0.000245654
0.000265451
0.000285579
0.000306042
0.000326842
0.000347984
0.00036947
0.000391306
0.000413496
0.000436045
0.000458958
0.000482239
0.000505895
0.000529931
0.000554352
0.000579163
0.000604371
0.000629982
0.000656002
0.000682435
0.00070929
0.000736571
0.000764286
0.000792439
0.000821039
0.00085009
0.0008796
0.000909574
0.000940019
0.000970942
0.00100235
0.00103425
0.00106664
0.00109953
0.00113294
0.00116685
0.00120129
0.00123626
0.00127175
0.00130779
0.00134436
0.00138148
0.00141916
0.00145739
0.00149618
0.00153553
0.00157545
0.00161594
0.00165701
0.00169864
0.00174086
0.00178364
0.00182701
0.00187094
0.00191545
0.00196053
0.00200618
0.00205239
0.00209916
0.00214648
0.00219434
0.00224274
0.00229166
0.0023411
0.00239103
0.00244146
0.00249235
0.00254369
0.00259546
0.00264763
0.00270019
2.81341e-06
2.08797e-05
3.57433e-05
5.05909e-05
6.62623e-05
8.25053e-05
9.92064e-05
0.000116307
0.000133775
0.000151591
0.000169745
0.00018823
0.000207043
0.000226183
0.000245651
0.000265448
0.000285577
0.000306039
0.000326839
0.000347981
0.000369467
0.000391303
0.000413493
0.000436042
0.000458955
0.000482236
0.000505892
0.000529928
0.000554348
0.00057916
0.000604368
0.000629979
0.000655999
0.000682432
0.000709287
0.000736568
0.000764283
0.000792437
0.000821036
0.000850088
0.000879597
0.000909572
0.000940017
0.00097094
0.00100235
0.00103424
0.00106664
0.00109953
0.00113294
0.00116685
0.00120129
0.00123626
0.00127175
0.00130779
0.00134436
0.00138148
0.00141916
0.00145739
0.00149618
0.00153553
0.00157545
0.00161595
0.00165701
0.00169865
0.00174086
0.00178365
0.00182701
0.00187095
0.00191546
0.00196054
0.00200618
0.00205239
0.00209916
0.00214648
0.00219434
0.00224274
0.00229167
0.0023411
0.00239104
0.00244146
0.00249236
0.0025437
0.00259547
0.00264764
0.0027002
2.81355e-06
2.08809e-05
3.57457e-05
5.05938e-05
6.62648e-05
8.2507e-05
9.92072e-05
0.000116307
0.000133774
0.00015159
0.000169743
0.000188228
0.000207041
0.000226181
0.000245649
0.000265446
0.000285574
0.000306037
0.000326837
0.000347978
0.000369464
0.0003913
0.00041349
0.000436039
0.000458952
0.000482233
0.000505889
0.000529925
0.000554345
0.000579157
0.000604366
0.000629976
0.000655996
0.00068243
0.000709284
0.000736566
0.00076428
0.000792434
0.000821034
0.000850085
0.000879595
0.00090957
0.000940015
0.000970938
0.00100235
0.00103424
0.00106664
0.00109953
0.00113293
0.00116685
0.00120129
0.00123626
0.00127175
0.00130779
0.00134436
0.00138148
0.00141916
0.00145739
0.00149618
0.00153553
0.00157546
0.00161595
0.00165701
0.00169865
0.00174086
0.00178365
0.00182701
0.00187095
0.00191546
0.00196054
0.00200619
0.0020524
0.00209917
0.00214649
0.00219435
0.00224275
0.00229167
0.00234111
0.00239105
0.00244147
0.00249237
0.00254371
0.00259548
0.00264765
0.00270021
2.81368e-06
2.08823e-05
3.57481e-05
5.05967e-05
6.62674e-05
8.25089e-05
9.92083e-05
0.000116308
0.000133774
0.000151589
0.000169742
0.000188227
0.00020704
0.00022618
0.000245647
0.000265444
0.000285572
0.000306035
0.000326834
0.000347976
0.000369462
0.000391298
0.000413488
0.000436036
0.000458949
0.000482231
0.000505887
0.000529922
0.000554343
0.000579155
0.000604363
0.000629974
0.000655993
0.000682427
0.000709282
0.000736564
0.000764278
0.000792432
0.000821032
0.000850083
0.000879593
0.000909568
0.000940014
0.000970937
0.00100234
0.00103424
0.00106663
0.00109953
0.00113293
0.00116685
0.00120129
0.00123626
0.00127175
0.00130779
0.00134436
0.00138148
0.00141916
0.00145739
0.00149618
0.00153554
0.00157546
0.00161595
0.00165701
0.00169865
0.00174086
0.00178365
0.00182702
0.00187095
0.00191546
0.00196054
0.00200619
0.0020524
0.00209917
0.00214649
0.00219436
0.00224276
0.00229168
0.00234112
0.00239106
0.00244148
0.00249238
0.00254372
0.00259549
0.00264766
0.00270022
2.8138e-06
2.08836e-05
3.57505e-05
5.05996e-05
6.62702e-05
8.25111e-05
9.92098e-05
0.000116308
0.000133774
0.000151589
0.000169742
0.000188226
0.000207038
0.000226178
0.000245646
0.000265442
0.00028557
0.000306033
0.000326832
0.000347973
0.00036946
0.000391295
0.000413485
0.000436034
0.000458947
0.000482228
0.000505884
0.00052992
0.000554341
0.000579152
0.000604361
0.000629972
0.000655991
0.000682425
0.00070928
0.000736562
0.000764276
0.00079243
0.00082103
0.000850082
0.000879592
0.000909567
0.000940012
0.000970936
0.00100234
0.00103424
0.00106663
0.00109953
0.00113293
0.00116685
0.00120129
0.00123626
0.00127175
0.00130779
0.00134436
0.00138149
0.00141916
0.00145739
0.00149618
0.00153554
0.00157546
0.00161595
0.00165702
0.00169865
0.00174087
0.00178366
0.00182702
0.00187096
0.00191547
0.00196055
0.0020062
0.00205241
0.00209918
0.0021465
0.00219437
0.00224277
0.00229169
0.00234113
0.00239107
0.00244149
0.00249239
0.00254373
0.0025955
0.00264768
0.00270023
2.81392e-06
2.08849e-05
3.57527e-05
5.06026e-05
6.62731e-05
8.25135e-05
9.92114e-05
0.000116309
0.000133775
0.000151589
0.000169741
0.000188225
0.000207037
0.000226177
0.000245644
0.000265441
0.000285569
0.000306031
0.00032683
0.000347971
0.000369457
0.000391293
0.000413483
0.000436032
0.000458944
0.000482226
0.000505882
0.000529918
0.000554338
0.00057915
0.000604359
0.00062997
0.000655989
0.000682423
0.000709278
0.00073656
0.000764275
0.000792429
0.000821029
0.00085008
0.000879591
0.000909565
0.000940011
0.000970935
0.00100234
0.00103424
0.00106663
0.00109953
0.00113293
0.00116685
0.00120129
0.00123626
0.00127175
0.00130779
0.00134436
0.00138149
0.00141916
0.00145739
0.00149619
0.00153554
0.00157546
0.00161596
0.00165702
0.00169866
0.00174087
0.00178366
0.00182702
0.00187096
0.00191547
0.00196055
0.0020062
0.00205242
0.00209919
0.00214651
0.00219437
0.00224277
0.0022917
0.00234114