/*--------------------------------*- C++ -*----------------------------------*\
  =========                 |
  \\      /  F ield         | OpenFOAM: The Open Source CFD Toolbox
   \\    /   O peration     | Website:  https://openfoam.org
    \\  /    A nd           | Version:  10
     \\/     M anipulation  |
\*---------------------------------------------------------------------------*/
FoamFile
{
    format      ascii;
    class       surfaceScalarField;
    location    "51000";
    object      phi;
}
// * * * * * * * * * * * * * * * * * * * * * * * * * * * * * * * * * * * * * //

dimensions      [0 3 -1 0 0 0 0];

internalField   nonuniform List<scalar> 
35320
(
3.12968e-08
1.584e-05
-1.58713e-05
4.9595e-08
1.49335e-05
-1.49518e-05
5.94629e-08
1.46573e-05
-1.46672e-05
6.48872e-08
1.45405e-05
-1.45459e-05
6.76354e-08
1.45045e-05
-1.45073e-05
6.87093e-08
1.4519e-05
-1.45201e-05
6.87427e-08
1.45678e-05
-1.45679e-05
6.8132e-08
1.46417e-05
-1.46411e-05
6.71371e-08
1.47348e-05
-1.47338e-05
6.58947e-08
1.48432e-05
-1.4842e-05
6.45184e-08
1.49644e-05
-1.4963e-05
6.30511e-08
1.50964e-05
-1.50949e-05
6.15456e-08
1.52378e-05
-1.52363e-05
6.00217e-08
1.53875e-05
-1.5386e-05
5.84915e-08
1.55447e-05
-1.55432e-05
5.69676e-08
1.57088e-05
-1.57073e-05
5.54561e-08
1.58792e-05
-1.58777e-05
5.39672e-08
1.60556e-05
-1.60541e-05
5.25004e-08
1.62375e-05
-1.6236e-05
5.10465e-08
1.64247e-05
-1.64233e-05
4.96168e-08
1.6617e-05
-1.66156e-05
4.82213e-08
1.68142e-05
-1.68128e-05
4.68407e-08
1.70162e-05
-1.70148e-05
4.54949e-08
1.72227e-05
-1.72213e-05
4.41666e-08
1.74337e-05
-1.74324e-05
4.28695e-08
1.76491e-05
-1.76478e-05
4.15993e-08
1.78688e-05
-1.78676e-05
4.0353e-08
1.80928e-05
-1.80915e-05
3.91391e-08
1.83209e-05
-1.83197e-05
3.79448e-08
1.85533e-05
-1.85521e-05
3.67789e-08
1.87897e-05
-1.87885e-05
3.56409e-08
1.90302e-05
-1.9029e-05
3.45331e-08
1.92747e-05
-1.92736e-05
3.3452e-08
1.95233e-05
-1.95222e-05
3.23932e-08
1.97759e-05
-1.97748e-05
3.13628e-08
2.00325e-05
-2.00315e-05
3.036e-08
2.02931e-05
-2.02921e-05
2.93835e-08
2.05576e-05
-2.05567e-05
2.84298e-08
2.08262e-05
-2.08252e-05
2.75041e-08
2.10987e-05
-2.10978e-05
2.66025e-08
2.13752e-05
-2.13743e-05
2.57303e-08
2.16557e-05
-2.16548e-05
2.48803e-08
2.19401e-05
-2.19392e-05
2.40546e-08
2.22285e-05
-2.22277e-05
2.32583e-08
2.25209e-05
-2.25201e-05
2.24813e-08
2.28172e-05
-2.28164e-05
2.17291e-08
2.31175e-05
-2.31168e-05
2.10028e-08
2.34218e-05
-2.34211e-05
2.02991e-08
2.37301e-05
-2.37294e-05
1.96194e-08
2.40424e-05
-2.40417e-05
1.89627e-08
2.43587e-05
-2.4358e-05
1.83251e-08
2.46789e-05
-2.46783e-05
1.77141e-08
2.50031e-05
-2.50025e-05
1.71227e-08
2.53313e-05
-2.53307e-05
1.65525e-08
2.56635e-05
-2.56629e-05
1.60053e-08
2.59997e-05
-2.59991e-05
1.5477e-08
2.63398e-05
-2.63393e-05
1.49692e-08
2.66839e-05
-2.66834e-05
1.44833e-08
2.7032e-05
-2.70315e-05
1.40128e-08
2.7384e-05
-2.73835e-05
1.35616e-08
2.77399e-05
-2.77394e-05
1.31286e-08
2.80998e-05
-2.80993e-05
1.27153e-08
2.84635e-05
-2.84631e-05
1.23146e-08
2.88312e-05
-2.88308e-05
1.19418e-08
2.92027e-05
-2.92023e-05
1.15763e-08
2.9578e-05
-2.95777e-05
1.12305e-08
2.99572e-05
-2.99569e-05
1.09002e-08
3.03402e-05
-3.03398e-05
1.05816e-08
3.07269e-05
-3.07266e-05
1.02834e-08
3.11173e-05
-3.1117e-05
9.99698e-09
3.15114e-05
-3.15111e-05
9.72577e-09
3.19091e-05
-3.19088e-05
9.46599e-09
3.23104e-05
-3.23101e-05
9.22136e-09
3.27152e-05
-3.2715e-05
8.99305e-09
3.31235e-05
-3.31233e-05
8.7719e-09
3.35352e-05
-3.3535e-05
8.56434e-09
3.39503e-05
-3.39501e-05
8.37156e-09
3.43686e-05
-3.43684e-05
8.18678e-09
3.47901e-05
-3.47899e-05
8.01416e-09
3.52147e-05
-3.52145e-05
7.85709e-09
3.56423e-05
-3.56422e-05
7.7089e-09
3.60729e-05
-3.60727e-05
7.56612e-09
3.65062e-05
-3.65061e-05
7.43695e-09
3.69423e-05
-3.69422e-05
7.31789e-09
3.73809e-05
-3.73808e-05
7.20976e-09
3.78221e-05
-3.7822e-05
7.11106e-09
3.82655e-05
-3.82654e-05
7.01823e-09
3.87111e-05
-3.8711e-05
6.93928e-09
3.91588e-05
-3.91587e-05
6.86359e-09
3.96083e-05
-3.96082e-05
6.80372e-09
4.00595e-05
-4.00594e-05
4.05122e-05
-4.05122e-05
4.0949e-09
1.58359e-05
9.254e-09
1.49283e-05
1.58643e-08
1.46507e-05
2.27819e-08
1.45336e-05
2.89009e-08
1.44984e-05
3.40286e-08
1.45139e-05
3.81774e-08
1.45637e-05
4.14178e-08
1.46385e-05
4.38622e-08
1.47323e-05
4.56507e-08
1.48414e-05
4.68731e-08
1.49632e-05
4.76548e-08
1.50956e-05
4.80697e-08
1.52374e-05
4.81885e-08
1.53874e-05
4.80722e-08
1.55449e-05
4.77673e-08
1.57091e-05
4.73111e-08
1.58797e-05
4.67309e-08
1.60562e-05
4.60537e-08
1.62382e-05
4.53095e-08
1.64255e-05
4.45005e-08
1.66179e-05
4.36461e-08
1.68151e-05
4.2756e-08
1.70171e-05
4.18356e-08
1.72236e-05
4.09015e-08
1.74346e-05
3.99491e-08
1.76501e-05
3.89928e-08
1.78698e-05
3.80328e-08
1.80937e-05
3.70661e-08
1.83219e-05
3.61041e-08
1.85542e-05
3.51495e-08
1.87906e-05
3.42064e-08
1.90311e-05
3.32636e-08
1.92757e-05
3.23378e-08
1.95242e-05
3.14238e-08
1.97768e-05
3.05216e-08
2.00334e-05
2.96318e-08
2.0294e-05
2.8764e-08
2.05585e-05
2.79059e-08
2.0827e-05
2.70663e-08
2.10995e-05
2.62487e-08
2.1376e-05
2.54432e-08
2.16565e-05
2.46585e-08
2.19409e-05
2.38947e-08
2.22292e-05
2.3145e-08
2.25216e-05
2.24177e-08
2.28179e-05
2.17092e-08
2.31182e-05
2.1019e-08
2.34225e-05
2.03491e-08
2.37308e-05
1.96928e-08
2.40431e-05
1.90641e-08
2.43593e-05
1.84532e-08
2.46795e-05
1.78589e-08
2.50037e-05
1.72867e-08
2.53319e-05
1.67293e-08
2.56641e-05
1.61914e-08
2.60002e-05
1.56748e-08
2.63403e-05
1.51727e-08
2.66844e-05
1.46897e-08
2.70324e-05
1.42245e-08
2.73844e-05
1.37789e-08
2.77403e-05
1.33511e-08
2.81002e-05
1.29376e-08
2.84639e-05
1.25451e-08
2.88316e-05
1.21616e-08
2.92031e-05
1.17992e-08
2.95784e-05
1.14509e-08
2.99576e-05
1.11159e-08
3.03405e-05
1.08003e-08
3.07272e-05
1.04925e-08
3.11176e-05
1.0204e-08
3.15117e-05
9.92859e-09
3.19094e-05
9.66676e-09
3.23107e-05
9.41771e-09
3.27155e-05
9.17992e-09
3.31238e-05
8.95952e-09
3.35354e-05
8.74737e-09
3.39505e-05
8.54473e-09
3.43688e-05
8.36009e-09
3.47903e-05
8.18204e-09
3.52149e-05
8.01402e-09
3.56425e-05
7.86225e-09
3.6073e-05
7.71767e-09
3.65064e-05
7.58628e-09
3.69424e-05
7.46151e-09
3.73811e-05
7.34697e-09
3.78222e-05
7.24366e-09
3.82656e-05
7.15002e-09
3.87112e-05
7.06203e-09
3.91589e-05
6.98783e-09
3.96084e-05
6.92109e-09
4.00596e-05
4.05123e-05
4.42517e-09
1.58315e-05
8.6733e-09
1.49241e-05
1.25581e-08
1.46468e-05
1.62352e-08
1.45299e-05
1.96452e-08
1.4495e-05
2.28783e-08
1.45106e-05
2.58839e-08
1.45607e-05
2.86093e-08
1.46357e-05
3.10195e-08
1.47299e-05
3.30935e-08
1.48394e-05
3.48475e-08
1.49614e-05
3.62811e-08
1.50942e-05
3.74227e-08
1.52362e-05
3.83014e-08
1.53865e-05
3.894e-08
1.55442e-05
3.93687e-08
1.57087e-05
3.96128e-08
1.58795e-05
3.96922e-08
1.60561e-05
3.96384e-08
1.62382e-05
3.94529e-08
1.64257e-05
3.91726e-08
1.66181e-05
3.87955e-08
1.68155e-05
3.8354e-08
1.70175e-05
3.78427e-08
1.72241e-05
3.72773e-08
1.74352e-05
3.66694e-08
1.76507e-05
3.6026e-08
1.78704e-05
3.535e-08
1.80944e-05
3.46494e-08
1.83226e-05
3.39322e-08
1.85549e-05
3.31983e-08
1.87914e-05
3.24516e-08
1.90319e-05
3.16978e-08
1.92764e-05
3.09423e-08
1.9525e-05
3.01809e-08
1.97776e-05
2.9421e-08
2.00342e-05
2.86675e-08
2.02947e-05
2.79093e-08
2.05593e-05
2.71653e-08
2.08278e-05
2.64305e-08
2.11003e-05
2.56956e-08
2.13767e-05
2.49766e-08
2.16572e-05
2.42679e-08
2.19416e-05
2.35689e-08
2.22299e-05
2.28831e-08
2.25223e-05
2.2213e-08
2.28186e-05
2.15555e-08
2.31189e-05
2.09132e-08
2.34232e-05
2.02799e-08
2.37314e-05
1.96697e-08
2.40437e-05
1.90702e-08
2.43599e-05
1.84864e-08
2.46801e-05
1.79182e-08
2.50043e-05
1.73669e-08
2.53324e-05
1.68352e-08
2.56646e-05
1.63133e-08
2.60007e-05
1.58116e-08
2.63408e-05
1.53236e-08
2.66849e-05
1.4851e-08
2.70329e-05
1.43983e-08
2.73849e-05
1.39586e-08
2.77408e-05
1.35367e-08
2.81006e-05
1.31256e-08
2.84643e-05
1.27324e-08
2.8832e-05
1.23586e-08
2.92034e-05
1.19945e-08
2.95788e-05
1.16444e-08
2.99579e-05
1.13149e-08
3.03408e-05
1.09942e-08
3.07275e-05
1.06912e-08
3.11179e-05
1.03967e-08
3.1512e-05
1.01199e-08
3.19096e-05
9.85163e-09
3.23109e-05
9.60033e-09
3.27157e-05
9.35975e-09
3.3124e-05
9.13111e-09
3.35357e-05
8.91779e-09
3.39507e-05
8.71312e-09
3.4369e-05
8.521e-09
3.47905e-05
8.34184e-09
3.52151e-05
8.17227e-09
3.56427e-05
8.01037e-09
3.60732e-05
7.86472e-09
3.65065e-05
7.72366e-09
3.69426e-05
7.59573e-09
3.73812e-05
7.47901e-09
3.78223e-05
7.36981e-09
3.82657e-05
7.27371e-09
3.87113e-05
7.18656e-09
3.91589e-05
7.10682e-09
3.96084e-05
7.03543e-09
4.00596e-05
4.05123e-05
3.42961e-09
1.58281e-05
6.79127e-09
1.49207e-05
1.01904e-08
1.46434e-05
1.31981e-08
1.45269e-05
1.58646e-08
1.44923e-05
1.82993e-08
1.45082e-05
2.05101e-08
1.45585e-05
2.25379e-08
1.46337e-05
2.43923e-08
1.47281e-05
2.60754e-08
1.48377e-05
2.75943e-08
1.49599e-05
2.89375e-08
1.50929e-05
3.01129e-08
1.52351e-05
3.11261e-08
1.53855e-05
3.19755e-08
1.55434e-05
3.26743e-08
1.5708e-05
3.32261e-08
1.58789e-05
3.36404e-08
1.60557e-05
3.39329e-08
1.62379e-05
3.41098e-08
1.64255e-05
3.4184e-08
1.66181e-05
3.41613e-08
1.68155e-05
3.40474e-08
1.70176e-05
3.38667e-08
1.72243e-05
3.36109e-08
1.74355e-05
3.32967e-08
1.7651e-05
3.29241e-08
1.78708e-05
3.25086e-08
1.80948e-05
3.20557e-08
1.83231e-05
3.15637e-08
1.85554e-05
3.10404e-08
1.87919e-05
3.04955e-08
1.90324e-05
2.9926e-08
1.9277e-05
2.93384e-08
1.95256e-05
2.87384e-08
1.97782e-05
2.81282e-08
2.00348e-05
2.75065e-08
2.02953e-05
2.68813e-08
2.05599e-05
2.6248e-08
2.08284e-05
2.5617e-08
2.11009e-05
2.49865e-08
2.13774e-05
2.43568e-08
2.16578e-05
2.37288e-08
2.19422e-05
2.31062e-08
2.22306e-05
2.24922e-08
2.25229e-05
2.18838e-08
2.28192e-05
2.12816e-08
2.31195e-05
2.06911e-08
2.34238e-05
2.01151e-08
2.3732e-05
1.95417e-08
2.40442e-05
1.89793e-08
2.43604e-05
1.84334e-08
2.46806e-05
1.79004e-08
2.50048e-05
1.73742e-08
2.5333e-05
1.68654e-08
2.56651e-05
1.637e-08
2.60012e-05
1.58851e-08
2.63413e-05
1.5418e-08
2.66854e-05
1.49621e-08
2.70334e-05
1.45192e-08
2.73853e-05
1.40939e-08
2.77412e-05
1.36795e-08
2.8101e-05
1.32774e-08
2.84647e-05
1.28926e-08
2.88323e-05
1.25149e-08
2.92038e-05
1.21599e-08
2.95791e-05
1.18153e-08
2.99583e-05
1.14823e-08
3.03412e-05
1.11652e-08
3.07278e-05
1.08569e-08
3.11182e-05
1.05695e-08
3.15122e-05
1.02882e-08
3.19099e-05
1.0025e-08
3.23112e-05
9.77022e-09
3.2716e-05
9.52773e-09
3.31242e-05
9.29567e-09
3.35359e-05
9.07821e-09
3.39509e-05
8.87086e-09
3.43692e-05
8.67719e-09
3.47907e-05
8.49063e-09
3.52152e-05
8.31955e-09
3.56428e-05
8.15741e-09
3.60733e-05
8.00224e-09
3.65067e-05
7.8628e-09
3.69427e-05
7.73216e-09
3.73813e-05
7.60889e-09
3.78224e-05
7.49856e-09
3.82658e-05
7.39667e-09
3.87114e-05
7.30211e-09
3.9159e-05
7.2201e-09
3.96085e-05
7.14642e-09
4.00597e-05
4.05124e-05
2.12073e-09
1.58259e-05
4.04225e-09
1.49188e-05
6.40226e-09
1.4641e-05
8.69287e-09
1.45246e-05
1.09237e-08
1.44901e-05
1.30422e-08
1.45061e-05
1.50381e-08
1.45565e-05
1.69053e-08
1.46318e-05
1.86367e-08
1.47263e-05
2.02386e-08
1.48361e-05
2.17073e-08
1.49584e-05
2.3047e-08
1.50915e-05
2.42555e-08
1.52339e-05
2.53348e-08
1.53844e-05
2.62942e-08
1.55424e-05
2.71321e-08
1.57072e-05
2.78497e-08
1.58782e-05
2.84636e-08
1.6055e-05
2.89681e-08
1.62374e-05
2.9368e-08
1.64251e-05
2.96719e-08
1.66178e-05
2.9891e-08
1.68153e-05
3.00248e-08
1.70175e-05
3.00778e-08
1.72242e-05
3.00656e-08
1.74355e-05
2.99802e-08
1.76511e-05
2.98426e-08
1.78709e-05
2.96445e-08
1.8095e-05
2.9397e-08
1.83233e-05
2.91104e-08
1.85557e-05
2.87821e-08
1.87922e-05
2.84098e-08
1.90328e-05
2.80188e-08
1.92774e-05
2.75927e-08
1.9526e-05
2.7144e-08
1.97786e-05
2.6672e-08
2.00352e-05
2.61884e-08
2.02958e-05
2.56888e-08
2.05604e-05
2.51779e-08
2.08289e-05
2.46513e-08
2.11014e-05
2.41255e-08
2.13779e-05
2.35894e-08
2.16583e-05
2.30503e-08
2.19427e-05
2.25116e-08
2.22311e-05
2.1971e-08
2.25234e-05
2.14293e-08
2.28198e-05
2.08954e-08
2.312e-05
2.03608e-08
2.34243e-05
1.98343e-08
2.37325e-05
1.93131e-08
2.40448e-05
1.88028e-08
2.4361e-05
1.82944e-08
2.46811e-05
1.77934e-08
2.50053e-05
1.73081e-08
2.53335e-05
1.68263e-08
2.56656e-05
1.63564e-08
2.60017e-05
1.58999e-08
2.63418e-05
1.54506e-08
2.66858e-05
1.50137e-08
2.70338e-05
1.45906e-08
2.73857e-05
1.41752e-08
2.77416e-05
1.37747e-08
2.81014e-05
1.33879e-08
2.84651e-05
1.30106e-08
2.88327e-05
1.26477e-08
2.92042e-05
1.22947e-08
2.95795e-05
1.19563e-08
2.99586e-05
1.16309e-08
3.03415e-05
1.13114e-08
3.07281e-05
1.10133e-08
3.11185e-05
1.07211e-08
3.15125e-05
1.04417e-08
3.19102e-05
1.01758e-08
3.23115e-05
9.9198e-09
3.27162e-05
9.67707e-09
3.31245e-05
9.44879e-09
3.35361e-05
9.22796e-09
3.39511e-05
9.01822e-09
3.43694e-05
8.82046e-09
3.47909e-05
8.63554e-09
3.52154e-05
8.45425e-09
3.5643e-05
8.28991e-09
3.60735e-05
8.14095e-09
3.65068e-05
7.99303e-09
3.69429e-05
7.85903e-09
3.73815e-05
7.73514e-09
3.78225e-05
7.61937e-09
3.82659e-05
7.51487e-09
3.87115e-05
7.41739e-09
3.91591e-05
7.3298e-09
3.96086e-05
7.25508e-09
4.00598e-05
4.05125e-05
1.47488e-09
1.58245e-05
2.75989e-09
1.49175e-05
4.37694e-09
1.46394e-05
5.9866e-09
1.4523e-05
7.66122e-09
1.44884e-05
9.32308e-09
1.45044e-05
1.09561e-08
1.45548e-05
1.2545e-08
1.46302e-05
1.40763e-08
1.47248e-05
1.55374e-08
1.48346e-05
1.69099e-08
1.49571e-05
1.82052e-08
1.50902e-05
1.94033e-08
1.52327e-05
2.05116e-08
1.53833e-05
2.15248e-08
1.55414e-05
2.24352e-08
1.57063e-05
2.32602e-08
1.58774e-05
2.39904e-08
1.60543e-05
2.46211e-08
1.62368e-05
2.51738e-08
1.64245e-05
2.5638e-08
1.66173e-05
2.60203e-08
1.68149e-05
2.63292e-08
1.70172e-05
2.65621e-08
1.7224e-05
2.6722e-08
1.74353e-05
2.68284e-08
1.7651e-05
2.68622e-08
1.78709e-05
2.68428e-08
1.80951e-05
2.67702e-08
1.83234e-05
2.66506e-08
1.85558e-05
2.6484e-08
1.87924e-05
2.62861e-08
1.9033e-05
2.60375e-08
1.92776e-05
2.57596e-08
1.95263e-05
2.54549e-08
1.97789e-05
2.51224e-08
2.00356e-05
2.47613e-08
2.02962e-05
2.43827e-08
2.05608e-05
2.39852e-08
2.08293e-05
2.35732e-08
2.11019e-05
2.31424e-08
2.13783e-05
2.27028e-08
2.16588e-05
2.22527e-08
2.19432e-05
2.1799e-08
2.22316e-05
2.13361e-08
2.25239e-05
2.0871e-08
2.28202e-05
2.04013e-08
2.31205e-05
1.99327e-08
2.34248e-05
1.94634e-08
2.3733e-05
1.89955e-08
2.40452e-05
1.85293e-08
2.43614e-05
1.80652e-08
2.46816e-05
1.76113e-08
2.50058e-05
1.71582e-08
2.53339e-05
1.67148e-08
2.5666e-05
1.62775e-08
2.60021e-05
1.58456e-08
2.63422e-05
1.54216e-08
2.66862e-05
1.50126e-08
2.70342e-05
1.46074e-08
2.73862e-05
1.42128e-08
2.7742e-05
1.38278e-08
2.81018e-05
1.34519e-08
2.84655e-05
1.3092e-08
2.88331e-05
1.27386e-08
2.92045e-05
1.23937e-08
2.95798e-05
1.20662e-08
2.99589e-05
1.17417e-08
3.03418e-05
1.14378e-08
3.07284e-05
1.11367e-08
3.11188e-05
1.08502e-08
3.15128e-05
1.05747e-08
3.19105e-05
1.03084e-08
3.23117e-05
1.00575e-08
3.27165e-05
9.81516e-09
3.31247e-05
9.5824e-09
3.35364e-05
9.36281e-09
3.39514e-05
9.15213e-09
3.43696e-05
8.95124e-09
3.47911e-05
8.76606e-09
3.52156e-05
8.59205e-09
3.56432e-05
8.42003e-09
3.60737e-05
8.2609e-09
3.6507e-05
8.11487e-09
3.6943e-05
7.97576e-09
3.73816e-05
7.85105e-09
3.78227e-05
7.73377e-09
3.82661e-05
7.62276e-09
3.87116e-05
7.52987e-09
3.91592e-05
7.43888e-09
3.96087e-05
7.35731e-09
4.00599e-05
4.05125e-05
1.15138e-09
1.58233e-05
2.21498e-09
1.49165e-05
3.45869e-09
1.46382e-05
4.7197e-09
1.45218e-05
6.02972e-09
1.44871e-05
7.32446e-09
1.45031e-05
8.62319e-09
1.45535e-05
9.89911e-09
1.4629e-05
1.11582e-08
1.47235e-05
1.23826e-08
1.48334e-05
1.35711e-08
1.49559e-05
1.47078e-08
1.50891e-05
1.57933e-08
1.52316e-05
1.68142e-08
1.53823e-05
1.77791e-08
1.55404e-05
1.8678e-08
1.57054e-05
1.95075e-08
1.58765e-05
2.02625e-08
1.60536e-05
2.09516e-08
1.62361e-05
2.15744e-08
1.64239e-05
2.21203e-08
1.66167e-05
2.26065e-08
1.68144e-05
2.3017e-08
1.70168e-05
2.33697e-08
1.72237e-05
2.36625e-08
1.7435e-05
2.3884e-08
1.76507e-05
2.40617e-08
1.78707e-05
2.41782e-08
1.80949e-05
2.4245e-08
1.83233e-05
2.42609e-08
1.85558e-05
2.42345e-08
1.87924e-05
2.41612e-08
1.90331e-05
2.40526e-08
1.92777e-05
2.39075e-08
1.95264e-05
2.37213e-08
1.97791e-05
2.35091e-08
2.00358e-05
2.32711e-08
2.02964e-05
2.29978e-08
2.0561e-05
2.27086e-08
2.08296e-05
2.23987e-08
2.11022e-05
2.20665e-08
2.13787e-05
2.17192e-08
2.16591e-05
2.13636e-08
2.19435e-05
2.09855e-08
2.22319e-05
2.06015e-08
2.25243e-05
2.02112e-08
2.28206e-05
1.98123e-08
2.31209e-05
1.94031e-08
2.34252e-05
1.89946e-08
2.37334e-05
1.85844e-08
2.40456e-05
1.81673e-08
2.43618e-05
1.77599e-08
2.4682e-05
1.73453e-08
2.50062e-05
1.69372e-08
2.53343e-05
1.653e-08
2.56664e-05
1.61255e-08
2.60025e-05
1.57268e-08
2.63426e-05
1.53384e-08
2.66866e-05
1.49516e-08
2.70346e-05
1.45679e-08
2.73865e-05
1.41978e-08
2.77424e-05
1.38323e-08
2.81022e-05
1.34786e-08
2.84659e-05
1.3127e-08
2.88334e-05
1.27879e-08
2.92049e-05
1.246e-08
2.95802e-05
1.21365e-08
2.99592e-05
1.18267e-08
3.03421e-05
1.15243e-08
3.07288e-05
1.12356e-08
3.11191e-05
1.09538e-08
3.15131e-05
1.06827e-08
3.19108e-05
1.0421e-08
3.2312e-05
1.01694e-08
3.27167e-05
9.93179e-09
3.3125e-05
9.69859e-09
3.35366e-05
9.48104e-09
3.39516e-05
9.27454e-09
3.43698e-05
9.07243e-09
3.47913e-05
8.88307e-09
3.52158e-05
8.70222e-09
3.56434e-05
8.53775e-09
3.60738e-05
8.37779e-09
3.65071e-05
8.22845e-09
3.69432e-05
8.08962e-09
3.73817e-05
7.95945e-09
3.78228e-05
7.83873e-09
3.82662e-05
7.73215e-09
3.87117e-05
7.62821e-09
3.91593e-05
7.53948e-09
3.96088e-05
7.45616e-09
4.00599e-05
4.05126e-05
9.55942e-10
1.58224e-05
1.83091e-09
1.49156e-05
2.81519e-09
1.46372e-05
3.84224e-09
1.45207e-05
4.9057e-09
1.44861e-05
5.97369e-09
1.45021e-05
7.02901e-09
1.45525e-05
8.08836e-09
1.46279e-05
9.13101e-09
1.47225e-05
1.01593e-08
1.48324e-05
1.11668e-08
1.49549e-05
1.21509e-08
1.50881e-05
1.30984e-08
1.52306e-05
1.40145e-08
1.53814e-05
1.48811e-08
1.55396e-05
1.57176e-08
1.57045e-05
1.64961e-08
1.58758e-05
1.72309e-08
1.60528e-05
1.79219e-08
1.62354e-05
1.85469e-08
1.64233e-05
1.91312e-08
1.66162e-05
1.96529e-08
1.68139e-05
2.0128e-08
1.70163e-05
2.05458e-08
1.72232e-05
2.09094e-08
1.74347e-05
2.12283e-08
1.76504e-05
2.149e-08
1.78705e-05
2.17047e-08
1.80947e-05
2.18731e-08
1.83232e-05
2.19926e-08
1.85557e-05
2.20709e-08
1.87923e-05
2.21083e-08
1.9033e-05
2.21063e-08
1.92777e-05
2.20631e-08
1.95265e-05
2.19889e-08
1.97792e-05
2.18848e-08
2.00359e-05
2.1743e-08
2.02966e-05
2.15796e-08
2.05612e-05
2.13836e-08
2.08298e-05
2.11654e-08
2.11024e-05
2.09253e-08
2.13789e-05
2.06681e-08
2.16594e-05
2.03879e-08
2.19438e-05
2.00974e-08
2.22322e-05
1.97855e-08
2.25246e-05
1.94679e-08
2.28209e-05
1.91357e-08
2.31212e-05
1.8798e-08
2.34255e-05
1.84495e-08
2.37338e-05
1.80963e-08
2.4046e-05
1.77381e-08
2.43622e-05
1.73723e-08
2.46824e-05
1.70098e-08
2.50065e-05
1.66428e-08
2.53347e-05
1.62755e-08
2.56668e-05
1.59142e-08
2.60029e-05
1.5549e-08
2.6343e-05
1.51885e-08
2.6687e-05
1.48286e-08
2.7035e-05
1.44777e-08
2.73869e-05
1.41288e-08
2.77427e-05
1.37873e-08
2.81025e-05
1.34511e-08
2.84662e-05
1.31228e-08
2.88338e-05
1.27984e-08
2.92052e-05
1.24843e-08
2.95805e-05
1.21718e-08
2.99596e-05
1.18757e-08
3.03424e-05
1.15833e-08
3.0729e-05
1.13017e-08
3.11194e-05
1.10273e-08
3.15134e-05
1.07653e-08
3.1911e-05
1.05093e-08
3.23122e-05
1.02659e-08
3.2717e-05
1.00278e-08
3.31252e-05
9.80361e-09
3.35368e-05
9.58406e-09
3.39518e-05
9.37513e-09
3.437e-05
9.17969e-09
3.47915e-05
8.98873e-09
3.5216e-05
8.8122e-09
3.56435e-05
8.64147e-09
3.6074e-05
8.48171e-09
3.65073e-05
8.33303e-09
3.69433e-05
8.19156e-09
3.73819e-05
8.06202e-09
3.78229e-05
7.94023e-09
3.82663e-05
7.82599e-09
3.87119e-05
7.72509e-09
3.91594e-05
7.62956e-09
3.96089e-05
7.54477e-09
4.006e-05
4.05127e-05
7.94601e-10
1.58216e-05
1.49671e-09
1.49149e-05
2.26894e-09
1.46364e-05
3.10586e-09
1.45199e-05
3.98041e-09
1.44852e-05
4.85929e-09
1.45012e-05
5.74366e-09
1.45516e-05
6.62856e-09
1.4627e-05
7.51761e-09
1.47216e-05
8.3942e-09
1.48315e-05
9.26089e-09
1.4954e-05
1.01125e-08
1.50872e-05
1.09512e-08
1.52298e-05
1.17618e-08
1.53806e-05
1.25534e-08
1.55388e-05
1.33055e-08
1.57038e-05
1.40376e-08
1.5875e-05
1.47294e-08
1.60521e-05
1.53815e-08
1.62348e-05
1.60038e-08
1.64227e-05
1.65812e-08
1.66156e-05
1.71176e-08
1.68133e-05
1.76115e-08
1.70158e-05
1.80611e-08
1.72228e-05
1.84683e-08
1.74342e-05
1.88321e-08
1.765e-05
1.91551e-08
1.78701e-05
1.94399e-08
1.80944e-05
1.96758e-08
1.83229e-05
1.98764e-08
1.85555e-05
2.00345e-08
1.87922e-05
2.01539e-08
1.90329e-05
2.02343e-08
1.92777e-05
2.02831e-08
1.95264e-05
2.02968e-08
1.97792e-05
2.02729e-08
2.00359e-05
2.02247e-08
2.02966e-05
2.01429e-08
2.05613e-05
2.00377e-08
2.08299e-05
1.99034e-08
2.11025e-05
1.97469e-08
2.13791e-05
1.95675e-08
2.16596e-05
1.93672e-08
2.1944e-05
1.91489e-08
2.22324e-05
1.89153e-08
2.25248e-05
1.86588e-08
2.28212e-05
1.8394e-08
2.31215e-05
1.81182e-08
2.34258e-05
1.78285e-08
2.37341e-05
1.75307e-08
2.40463e-05
1.7231e-08
2.43625e-05
1.69201e-08
2.46827e-05
1.6601e-08
2.50069e-05
1.62818e-08
2.5335e-05
1.59598e-08
2.56671e-05
1.5634e-08
2.60032e-05
1.53072e-08
2.63433e-05
1.49811e-08
2.66873e-05
1.46556e-08
2.70353e-05
1.4332e-08
2.73872e-05
1.40132e-08
2.77431e-05
1.36916e-08
2.81028e-05
1.33785e-08
2.84665e-05
1.30665e-08
2.88341e-05
1.27657e-08
2.92055e-05
1.24668e-08
2.95808e-05
1.2179e-08
2.99598e-05
1.18903e-08
3.03427e-05
1.16131e-08
3.07293e-05
1.13405e-08
3.11196e-05
1.1078e-08
3.15136e-05
1.08228e-08
3.19113e-05
1.05724e-08
3.23125e-05
1.0333e-08
3.27172e-05
1.01006e-08
3.31254e-05
9.8783e-09
3.3537e-05
9.66445e-09
3.3952e-05
9.45958e-09
3.43702e-05
9.26451e-09
3.47917e-05
9.07699e-09
3.52162e-05
8.90051e-09
3.56437e-05
8.73248e-09
3.60742e-05
8.57366e-09
3.65075e-05
8.42413e-09
3.69435e-05
8.28427e-09
3.7382e-05
8.14991e-09
3.78231e-05
8.02534e-09
3.82664e-05
7.91635e-09
3.8712e-05
7.80775e-09
3.91595e-05
7.71453e-09
3.9609e-05
7.62885e-09
4.00601e-05
4.05128e-05
6.54842e-10
1.58209e-05
1.22976e-09
1.49143e-05
1.85029e-09
1.46358e-05
2.53885e-09
1.45192e-05
3.26126e-09
1.44845e-05
3.99465e-09
1.45005e-05
4.73707e-09
1.45509e-05
5.48454e-09
1.46263e-05
6.2367e-09
1.47209e-05
6.99062e-09
1.48307e-05
7.74483e-09
1.49533e-05
8.48498e-09
1.50865e-05
9.22051e-09
1.52291e-05
9.9439e-09
1.53799e-05
1.06479e-08
1.55381e-05
1.13381e-08
1.57031e-05
1.19983e-08
1.58744e-05
1.26451e-08
1.60515e-05
1.32579e-08
1.62342e-05
1.38483e-08
1.64221e-05
1.44056e-08
1.6615e-05
1.49313e-08
1.68128e-05
1.54296e-08
1.70153e-05
1.58882e-08
1.72223e-05
1.63185e-08
1.74338e-05
1.67121e-08
1.76497e-05
1.70672e-08
1.78698e-05
1.73863e-08
1.80941e-05
1.76748e-08
1.83226e-05
1.79214e-08
1.85553e-05
1.81384e-08
1.8792e-05
1.83191e-08
1.90327e-05
1.84691e-08
1.92775e-05
1.85842e-08
1.95263e-05
1.8665e-08
1.97791e-05
1.87141e-08
2.00359e-05
1.87343e-08
2.02966e-05
1.87289e-08
2.05613e-05
1.86946e-08
2.083e-05
1.86315e-08
2.11026e-05
1.85459e-08
2.13791e-05
1.8438e-08
2.16597e-05
1.83103e-08
2.19442e-05
1.81603e-08
2.22326e-05
1.7991e-08
2.2525e-05
1.78083e-08
2.28214e-05
1.76063e-08
2.31217e-05
1.73876e-08
2.3426e-05
1.71615e-08
2.37343e-05
1.69188e-08
2.40465e-05
1.6665e-08
2.43628e-05
1.6403e-08
2.4683e-05
1.61382e-08
2.50071e-05
1.58613e-08
2.53353e-05
1.55805e-08
2.56674e-05
1.52929e-08
2.60035e-05
1.5006e-08
2.63436e-05
1.47137e-08
2.66876e-05
1.44236e-08
2.70356e-05
1.4132e-08
2.73875e-05
1.38379e-08
2.77434e-05
1.35516e-08
2.81031e-05
1.32611e-08
2.84668e-05
1.29765e-08
2.88344e-05
1.26929e-08
2.92058e-05
1.24127e-08
2.9581e-05
1.21372e-08
2.99601e-05
1.18679e-08
3.0343e-05
1.16053e-08
3.07296e-05
1.13457e-08
3.11199e-05
1.10928e-08
3.15139e-05
1.08447e-08
3.19115e-05
1.06105e-08
3.23127e-05
1.0375e-08
3.27175e-05
1.01552e-08
3.31257e-05
9.93607e-09
3.35373e-05
9.72563e-09
3.39522e-05
9.52747e-09
3.43704e-05
9.33418e-09
3.47918e-05
9.1513e-09
3.52164e-05
8.97453e-09
3.56439e-05
8.80662e-09
3.60744e-05
8.64763e-09
3.65076e-05
8.49824e-09
3.69436e-05
8.35812e-09
3.73822e-05
8.22534e-09
3.78232e-05
8.10733e-09
3.82665e-05
7.98912e-09
3.87121e-05
7.888e-09
3.91596e-05
7.78862e-09
3.96091e-05
7.70098e-09
4.00602e-05
4.05129e-05
5.57939e-10
1.58204e-05
1.04238e-09
1.49138e-05
1.54665e-09
1.46353e-05
2.12061e-09
1.45186e-05
2.72295e-09
1.44839e-05
3.3423e-09
1.44998e-05
3.97165e-09
1.45502e-05
4.61791e-09
1.46256e-05
5.25679e-09
1.47202e-05
5.90282e-09
1.48301e-05
6.55027e-09
1.49526e-05
7.20115e-09
1.50859e-05
7.84249e-09
1.52284e-05
8.47729e-09
1.53792e-05
9.1048e-09
1.55374e-05
9.72313e-09
1.57025e-05
1.03275e-08
1.58738e-05
1.09117e-08
1.60509e-05
1.14831e-08
1.62336e-05
1.20286e-08
1.64215e-05
1.25584e-08
1.66145e-05
1.30633e-08
1.68123e-05
1.35404e-08
1.70148e-05
1.40012e-08
1.72219e-05
1.44295e-08
1.74334e-05
1.483e-08
1.76493e-05
1.52011e-08
1.78694e-05
1.55436e-08
1.80938e-05
1.58559e-08
1.83223e-05
1.61435e-08
1.8555e-05
1.63977e-08
1.87917e-05
1.66181e-08
1.90325e-05
1.68123e-08
1.92773e-05
1.69768e-08
1.95261e-05
1.71137e-08
1.9779e-05
1.7222e-08
2.00358e-05
1.73008e-08
2.02965e-05
1.73533e-08
2.05612e-05
1.73753e-08
2.08299e-05
1.73786e-08
2.11026e-05
1.73597e-08
2.13792e-05
1.73095e-08
2.16597e-05
1.72396e-08
2.19442e-05
1.71525e-08
2.22327e-05
1.70449e-08
2.25251e-05
1.69164e-08
2.28215e-05
1.6773e-08
2.31218e-05
1.6614e-08
2.34262e-05
1.64391e-08
2.37345e-05
1.62506e-08
2.40467e-05
1.60515e-08
2.4363e-05
1.58383e-08
2.46832e-05
1.5616e-08
2.50073e-05
1.5387e-08
2.53355e-05
1.51483e-08
2.56676e-05
1.49067e-08
2.60038e-05
1.4657e-08
2.63438e-05
1.44032e-08
2.66879e-05
1.41448e-08
2.70358e-05
1.38868e-08
2.73878e-05
1.3625e-08
2.77436e-05
1.33612e-08
2.81034e-05
1.30969e-08
2.84671e-05
1.28364e-08
2.88346e-05
1.25763e-08
2.9206e-05
1.23149e-08
2.95813e-05
1.20613e-08
2.99604e-05
1.1809e-08
3.03432e-05
1.15617e-08
3.07298e-05
1.13153e-08
3.11202e-05
1.10762e-08
3.15141e-05
1.08449e-08
3.19118e-05
1.06147e-08
3.2313e-05
1.03945e-08
3.27177e-05
1.01763e-08
3.31259e-05
9.96665e-09
3.35375e-05
9.76853e-09
3.39524e-05
9.56932e-09
3.43706e-05
9.38281e-09
3.4792e-05
9.20155e-09
3.52165e-05
9.03024e-09
3.56441e-05
8.86496e-09
3.60745e-05
8.7103e-09
3.65078e-05
8.562e-09
3.69437e-05
8.42232e-09
3.73823e-05
8.29121e-09
3.78233e-05
8.16858e-09
3.82667e-05
8.05467e-09
3.87122e-05
7.95109e-09
3.91597e-05
7.85518e-09
3.96092e-05
7.76397e-09
4.00603e-05
4.05129e-05
4.73159e-10
1.58199e-05
8.85018e-10
1.49134e-05
1.30962e-09
1.46349e-05
1.79352e-09
1.45181e-05
2.30426e-09
1.44833e-05
2.82888e-09
1.44993e-05
3.37464e-09
1.45497e-05
3.91881e-09
1.46251e-05
4.47379e-09
1.47197e-05
5.03362e-09
1.48295e-05
5.59506e-09
1.49521e-05
6.15957e-09
1.50853e-05
6.7198e-09
1.52278e-05
7.28354e-09
1.53787e-05
7.84444e-09
1.55369e-05
8.3916e-09
1.57019e-05
8.93329e-09
1.58732e-05
9.46612e-09
1.60504e-05
9.9868e-09
1.62331e-05
1.04963e-08
1.6421e-05
1.09853e-08
1.6614e-05
1.14637e-08
1.68118e-05
1.19199e-08
1.70144e-05
1.23602e-08
1.72214e-05
1.27764e-08
1.7433e-05
1.3172e-08
1.76489e-05
1.35456e-08
1.7869e-05
1.39008e-08
1.80934e-05
1.42261e-08
1.8322e-05
1.45288e-08
1.85547e-05
1.48017e-08
1.87914e-05
1.50547e-08
1.90322e-05
1.52805e-08
1.92771e-05
1.54809e-08
1.95259e-05
1.56541e-08
1.97788e-05
1.58052e-08
2.00356e-05
1.59301e-08
2.02964e-05
1.60274e-08
2.05611e-05
1.61056e-08
2.08299e-05
1.6157e-08
2.11025e-05
1.61818e-08
2.13791e-05
1.61934e-08
2.16597e-05
1.61763e-08
2.19442e-05
1.61358e-08
2.22327e-05
1.60859e-08
2.25252e-05
1.60082e-08
2.28216e-05
1.59196e-08
2.31219e-05
1.58111e-08
2.34263e-05
1.56844e-08
2.37346e-05
1.5545e-08
2.40469e-05
1.53919e-08
2.43631e-05
1.52333e-08
2.46833e-05
1.50539e-08
2.50075e-05
1.4865e-08
2.53357e-05
1.46735e-08
2.56678e-05
1.44676e-08
2.6004e-05
1.42576e-08
2.6344e-05
1.40399e-08
2.66881e-05
1.38162e-08
2.70361e-05
1.35881e-08
2.7388e-05
1.33572e-08
2.77438e-05
1.31229e-08
2.81036e-05
1.2889e-08
2.84673e-05
1.26543e-08
2.88349e-05
1.24174e-08
2.92063e-05
1.2185e-08
2.95815e-05
1.19449e-08
2.99606e-05
1.17142e-08
3.03435e-05
1.14809e-08
3.07301e-05
1.12564e-08
3.11204e-05
1.10308e-08
3.15144e-05
1.08081e-08
3.1912e-05
1.0594e-08
3.23132e-05
1.03811e-08
3.27179e-05
1.01755e-08
3.31261e-05
9.97499e-09
3.35377e-05
9.77991e-09
3.39526e-05
9.59382e-09
3.43708e-05
9.41118e-09
3.47922e-05
9.23514e-09
3.52167e-05
9.066e-09
3.56442e-05
8.90603e-09
3.60747e-05
8.75321e-09
3.65079e-05
8.60748e-09
3.69439e-05
8.47103e-09
3.73824e-05
8.34149e-09
3.78235e-05
8.22103e-09
3.82668e-05
8.10725e-09
3.87123e-05
8.00165e-09
3.91599e-05
7.9061e-09
3.96093e-05
7.81916e-09
4.00604e-05
4.0513e-05
4.05142e-10
1.58195e-05
7.62527e-10
1.49131e-05
1.11143e-09
1.46345e-05
1.51719e-09
1.45177e-05
1.95561e-09
1.44829e-05
2.41582e-09
1.44988e-05
2.87753e-09
1.45492e-05
3.34851e-09
1.46246e-05
3.83019e-09
1.47192e-05
4.31967e-09
1.4829e-05
4.8113e-09
1.49516e-05
5.30266e-09
1.50848e-05
5.80093e-09
1.52274e-05
6.29373e-09
1.53782e-05
6.78809e-09
1.55364e-05
7.27872e-09
1.57014e-05
7.76825e-09
1.58727e-05
8.24832e-09
1.60499e-05
8.72271e-09
1.62326e-05
9.18477e-09
1.64206e-05
9.64241e-09
1.66135e-05
1.00865e-08
1.68114e-05
1.05173e-08
1.70139e-05
1.09321e-08
1.7221e-05
1.13322e-08
1.74326e-05
1.1715e-08
1.76485e-05
1.20839e-08
1.78687e-05
1.24311e-08
1.80931e-05
1.27601e-08
1.83217e-05
1.30659e-08
1.85544e-05
1.33589e-08
1.87911e-05
1.36245e-08
1.9032e-05
1.38705e-08
1.92768e-05
1.40942e-08
1.95257e-05
1.4301e-08
1.97786e-05
1.44765e-08
2.00354e-05
1.46345e-08
2.02962e-05
1.47702e-08
2.0561e-05
1.48825e-08
2.08297e-05
1.49762e-08
2.11024e-05
1.50467e-08
2.13791e-05
1.50961e-08
2.16597e-05
1.51254e-08
2.19442e-05
1.51375e-08
2.22327e-05
1.51216e-08
2.25252e-05
1.51007e-08
2.28216e-05
1.50533e-08
2.3122e-05
1.49896e-08
2.34263e-05
1.49118e-08
2.37347e-05
1.48191e-08
2.40469e-05
1.47104e-08
2.43632e-05
1.45871e-08
2.46834e-05
1.44551e-08
2.50077e-05
1.4312e-08
2.53358e-05
1.41545e-08
2.5668e-05
1.39904e-08
2.60041e-05
1.38151e-08
2.63442e-05
1.36306e-08
2.66883e-05
1.34441e-08
2.70362e-05
1.32518e-08
2.73882e-05
1.30493e-08
2.7744e-05
1.28462e-08
2.81038e-05
1.26412e-08
2.84675e-05
1.24279e-08
2.88351e-05
1.22151e-08
2.92065e-05
1.20014e-08
2.95818e-05
1.17932e-08
2.99608e-05
1.15788e-08
3.03437e-05
1.13687e-08
3.07303e-05
1.1156e-08
3.11206e-05
1.09504e-08
3.15146e-05
1.07433e-08
3.19122e-05
1.05389e-08
3.23134e-05
1.03397e-08
3.27181e-05
1.01445e-08
3.31263e-05
9.95807e-09
3.35379e-05
9.7708e-09
3.39528e-05
9.59018e-09
3.4371e-05
9.4146e-09
3.47924e-05
9.24588e-09
3.52169e-05
9.08237e-09
3.56444e-05
8.92858e-09
3.60748e-05
8.77708e-09
3.65081e-05
8.63503e-09
3.6944e-05
8.49773e-09