/*--------------------------------*- C++ -*----------------------------------*\
  =========                 |
  \\      /  F ield         | OpenFOAM: The Open Source CFD Toolbox
   \\    /   O peration     | Website:  https://openfoam.org
    \\  /    A nd           | Version:  10
     \\/     M anipulation  |
\*---------------------------------------------------------------------------*/
FoamFile
{
    format      ascii;
    class       volScalarField;
    location    "29000";
    object      Co;
}
// * * * * * * * * * * * * * * * * * * * * * * * * * * * * * * * * * * * * * //

dimensions      [0 0 0 0 0 0 0];

internalField   nonuniform List<scalar> 
17969
(
75.111
45.8892
41.5353
34.6684
30.1952
29.8357
31.0904
33.7887
44.6543
64.179
98.2167
142.979
196.878
257.623
321.283
383.331
439.649
487.451
525.465
553.791
573.439
585.768
592.255
594.167
592.554
588.3
582.103
574.503
565.91
556.624
546.859
536.763
526.437
515.954
505.362
494.695
483.978
473.231
462.465
451.691
440.918
430.151
419.395
408.655
397.935
387.237
376.564
365.919
355.304
344.722
334.175
323.663
313.19
302.755
292.362
282.011
271.704
261.44
251.223
241.052
230.928
220.852
210.825
200.848
190.922
181.047
171.224
161.456
151.742
142.084
132.484
122.944
113.466
104.05
97.1674
92.8431
88.7394
86.2611
90.7148
94.9522
98.9938
102.857
106.553
110.091
113.48
116.729
119.849
122.85
125.74
128.519
131.185
133.738
136.183
138.528
140.778
142.938
145.016
147.018
148.95
150.819
76.3775
44.8817
43.5722
39.5803
33.828
30.7687
31.5
33.2241
35.9265
39.6875
53.2286
72.3794
105.992
147.744
197.515
253.697
313.276
372.508
427.735
476.12
516.041
546.965
569.439
584.547
593.501
597.498
597.56
594.563
589.238
582.171
573.828
564.57
554.663
544.304
533.631
522.74
511.701
500.561
489.356
478.11
466.842
455.566
444.292
433.028
421.78
410.553
399.352
388.179
377.038
365.931
354.861
343.829
332.837
321.887
310.98
300.117
289.3
278.529
267.806
257.131
246.506
235.93
225.406
214.933
204.513
194.146
183.834
173.577
163.378
153.236
143.155
133.136
123.181
113.292
106.161
101.805
97.6666
93.9364
97.5057
101.789
105.871
109.768
113.492
117.051
120.454
123.71
126.826
129.812
132.679
135.437
138.087
140.63
143.063
145.39
147.617
149.752
151.802
153.773
155.673
157.511
77.532
43.2823
43.9839
42.5304
39.3135
34.8634
31.8145
31.9311
33.6019
36.0039
39.205
43.3595
57.982
76.7705
108.197
146.513
191.949
243.511
298.964
355.242
409.141
457.813
499.296
532.701
558.035
576.006
587.623
593.967
596.018
594.625
590.535
584.36
576.605
567.677
557.896
547.506
536.685
525.562
514.231
502.756
491.187
479.557
467.893
456.211
444.528
432.852
421.193
409.556
397.947
386.37
374.827
363.323
351.858
340.435
329.055
317.721
306.433
295.193
284.001
272.858
261.766
250.725
239.735
228.799
217.916
207.087
196.313
185.597
174.937
164.337
153.798
143.322
132.911
122.568
115.203
110.826
106.664
102.703
104.068
108.389
112.503
116.426
120.168
123.738
127.146
130.398
133.503
136.469
139.303
142.015
144.615
147.109
149.499
151.782
153.961
156.044
158.039
159.954
161.798
163.579
78.7865
41.7791
43.4134
43.7825
42.5919
40.4192
37.248
32.9289
30.8735
32.0453
33.9869
36.6545
40.1523
45.1023
59.4129
77.189
106.319
141.276
182.531
229.589
280.885
333.973
386.026
434.383
476.933
512.4
540.351
561.098
575.416
584.221
588.46
588.937
586.369
581.388
574.524
566.217
556.828
546.643
535.882
524.709
513.244
501.576
489.769
477.869
465.911
453.92
441.915
429.911
417.918
405.944
393.996
382.08
370.198
358.355
346.552
334.793
323.079
311.411
299.791
288.22
276.699
265.228
253.809
242.443
231.13
219.871
208.666
197.518
186.428
175.395
164.423
153.514
142.669
131.892
124.31
119.926
115.75
111.773
110.418
114.77
118.908
122.846
126.594
130.162
133.56
136.794
139.873
142.805
145.596
148.253
150.786
153.203
155.513
157.718
159.82
161.823
163.735
165.567
167.329
169.029
170.678
172.282
173.85
175.387
80.1519
40.5379
42.3842
43.7484
43.8532
43.2649
41.986
39.9173
36.8964
32.6854
30.1827
30.9602
33.0635
35.9256
39.6247
44.6997
58.5227
74.8546
101.761
133.623
171.009
213.784
260.912
310.524
360.253
407.654
450.588
487.517
517.667
540.932
557.808
569.073
575.556
578.035
577.188
573.638
567.921
560.494
551.745
541.995
531.5
520.46
509.023
497.303
485.384
473.327
461.177
448.969
436.729
424.474
412.221
399.979
387.757
375.563
363.4
351.273
339.186
327.141
315.14
303.185
291.277
279.418
267.609
255.85
244.142
232.487
220.885
209.338
197.845
186.41
175.032
163.715
152.46
141.27
133.49
129.113
124.939
120.957
117.657
120.937
125.087
129.027
132.768
136.319
139.689
142.886
145.919
148.796
151.524
154.11
156.562
158.887
161.093
163.188
165.178
167.069
168.87
170.592
172.245
173.841
175.387
176.893
178.365
179.813
81.6381
39.5992
41.4166
43.2417
44.0085
44.3083
44.1647
43.5192
42.2742
40.2767
37.3103
33.122
29.5791
29.4021
31.6217
34.5968
38.3899
43.0488
56.2543
71.6257
95.7546
124.863
158.714
197.447
240.474
286.435
333.4
379.19
421.764
459.461
491.2
516.586
535.788
549.37
558.048
562.557
563.534
561.563
557.178
550.839
542.945
533.838
523.804
513.072
501.823
490.193
478.288
466.186
453.946
441.613
429.219
416.791
404.347
391.902
379.468
367.052
354.662
342.303
329.98
317.695
305.451
293.25
281.095
268.986
256.925
244.912
232.95
221.037
209.177
197.369
185.616
173.918
162.279
150.702
142.744
138.392
134.232
130.259
126.466
126.887
131.034
134.961
138.678
142.194
145.518
148.657
151.621
154.417
157.054
159.542
161.888
164.102
166.191
168.161
170.021
171.776
173.439
175.027
176.551
178.02
179.442
180.827
182.183
183.517
83.205
38.8011
40.5163
42.5271
43.5525
44.2362
44.6339
44.7217
44.4515
43.7442
42.4765
40.4714
37.5165
33.3827
29.0748
28.1412
30.3963
33.3832
37.1542
41.7413
53.4776
67.9248
89.3281
115.962
146.613
181.604
220.676
262.886
306.72
350.342
391.832
429.526
462.197
489.166
510.302
525.94
536.664
543.118
545.922
545.604
542.668
537.568
530.701
522.419
513.024
502.771
491.864
480.465
468.701
456.667
444.438
432.07
419.606
407.079
394.513
381.928
369.338
356.756
344.19
331.646
319.131
306.648
294.201
281.793
269.426
257.101
244.819
232.583
220.392
208.248
196.153
184.107
172.113
160.175
152.063
147.754
143.625
139.674
135.896
133.419
136.736
140.633
144.307
147.767
151.022
154.079
156.947
159.635
162.152
164.509
166.719
168.795
170.746
172.582
174.307
175.925
177.441
178.878
180.251
181.571
182.844
184.082
185.292
186.484
187.666
84.8465
38.0996
39.7092
41.7783
42.8455
43.612
44.1727
44.5333
44.6782
44.5736
44.1626
43.3556
42.0229
39.9945
37.0759
33.0545
28.6544
27.5366
29.7318
32.6232
36.2574
40.661
50.7626
64.3228
83.1273
107.574
135.394
166.975
202.284
240.741
281.208
322.167
361.93
398.897
431.773
459.685
482.267
499.606
512.118
520.358
524.891
526.21
524.768
520.999
515.285
507.974
499.374
489.753
479.335
468.304
456.806
444.954
432.837
420.527
408.075
395.523
382.902
370.239
357.551
344.854
332.16
319.476
306.811
294.17
281.557
268.975
256.427
243.915
231.439
219.002
206.604
194.247
181.934
169.667
161.426
157.181
153.101
149.185
145.436
141.838
142.168
146.016
149.626
153.007
156.168
159.116
161.86
164.411
166.781
168.984
171.036
172.952
174.748
176.435
178.019
179.5
180.873
182.149
183.35
184.49
185.58
186.634
187.662
188.676
189.686
190.701
191.729
86.5656
37.4915
39.0205
41.0891
42.0873
42.7728
43.2812
43.6432
43.8649
43.9372
43.8384
43.5315
42.9573
42.0258
40.6147
38.5703
35.7144
31.8474
28.2841
27.8166
29.8677
32.5792
35.9977
40.1491
48.5598
61.2641
77.6482
100.186
125.525
154.028
185.825
220.611
257.577
295.514
333.008
368.576
400.93
429.114
452.559
471.142
485.107
494.886
500.975
503.834
503.862
501.455
496.967
490.731
483.048
474.192
464.398
453.864
442.752
431.193
419.291
407.13
394.772
382.271
369.665
356.985
344.256
331.497
318.721
305.942
293.168
280.406
267.66
254.935
242.233
229.555
216.905
204.283
191.692
179.135
170.798
166.642
162.63
158.764
155.055
151.498
148.86
151.069
154.592
157.869
160.908
163.72
166.317
168.714
170.928
172.975
174.87
176.628
178.26
179.776
181.184
182.486
183.68
184.767
185.76
186.679
187.544
188.372
189.178
189.977
190.782
191.602
192.446
193.32
88.372
37.0102
38.5107
40.562
41.4459
41.9787
42.3331
42.5611
42.6835
42.7055
42.6223
42.4213
42.0799
41.5619
40.8094
39.7382
38.2375
36.1713
33.3771
29.6693
27.95
29.0805
30.9403
33.4188
36.5661
40.41
47.1336
59.0113
73.1739
94.0231
117.18
142.949
171.538
202.819
236.272
270.979
305.77
339.373
370.552
398.322
422.009
441.316
456.311
467.303
474.706
478.938
480.342
479.26
476.013
470.908
464.23
456.244
447.188
437.267
426.654
415.495
403.908
391.987
379.809
367.436
354.914
342.283
329.569
316.801
303.997
291.167
278.323
265.475
252.627
239.784
226.948
214.122
201.309
188.513
180.12
176.084
172.163
168.364
164.704
161.193
157.796
156.45
159.14
162.287
165.183
167.847
170.297
172.547
174.617
176.517
178.258
179.846
181.288
182.59
183.758
184.8
185.726
186.547
187.276
187.93
188.532
189.103
189.66
190.221
190.8
191.407
192.053
192.743
193.483
194.275
90.2719
36.6906
38.2371
40.2654
41.0295
41.3971
41.5713
41.6205
41.5759
41.4506
41.2488
40.9689
40.6038
40.1404
39.5573
38.8199
37.8748
36.6461
35.0363
32.9269
30.4231
29.4011
30.1134
31.2448
32.876
35.0791
37.9088
41.3974
46.4926
57.5739
69.8844
89.051
110.328
133.735
159.451
187.484
217.525
248.92
280.74
311.924
341.363
368.092
391.4
410.863
426.402
438.217
446.632
452
454.615
454.762
452.716
448.747
443.114
436.064
427.828
418.612
408.597
397.937
386.76
375.173
363.263
351.099
338.732
326.223
313.596
300.873
288.085
275.249
262.376
249.473
236.546
223.602
210.645
197.68
189.289
185.413
181.618
177.911
174.308
170.839
167.501
164.237
163.62
166.189
168.946
171.473
173.786
175.896
177.809
179.531
181.066
182.42
183.601
184.62
185.488
186.219
186.829
187.335
187.756
188.11
188.42
188.709
189
189.308
189.648
190.034
190.474
190.974
191.539
192.172
192.872
193.639
194.472
195.369
92.2667
36.5571
38.2645
40.275
40.9334
41.1519
41.1593
41.0359
40.8198
40.5288
40.1712
39.7502
39.2654
38.713
38.0856
37.3709
36.5489
35.5881
34.4405
33.0626
32.2558
32.1836
32.268
32.5683
33.1553
34.1079
35.5063
37.4255
39.9266
43.0497
46.8117
56.9375
68.3696
85.1865
104.822
126.185
149.396
174.501
201.336
229.472
258.203
286.655
313.908
339.06
361.405
380.452
396.031
408.239
417.316
423.54
427.149
428.371
427.422
424.527
419.914
413.812
406.439
397.994
388.658
378.587
367.919
356.768
345.217
333.347
321.213
308.876
296.395
283.786
271.071
258.268
245.392
232.455
219.467
206.435
198.125
194.472
190.855
187.281
183.765
180.339
177.039
173.848
170.706
170.222
172.116
174.505
176.656
178.577
180.271
181.747
183.012
184.073
184.942
185.636
186.17
186.564
186.839
187.016
187.114
187.153
187.154
187.145
187.153
187.196
187.291
187.45
187.681
187.991
188.383
188.858
189.415
190.053
190.77
191.561
94.3531
36.6063
38.5976
40.6195
41.198
41.2967
41.1694
40.906
40.5477
40.1146
39.6165
39.0581
38.4413
37.8645
37.5326
37.3629
37.1733
36.9655
36.7434
36.5144
36.2916
36.0948
35.95
35.8896
35.9541
36.1948
36.6749
37.4677
38.6513
40.3018
42.4846
45.2461
48.6095
56.9527
67.5601
82.2119
100.397
120.001
141.056
163.585
187.51
212.548
238.211
263.807
288.568
311.717
332.592
350.705
365.828
377.987
387.351
394.13
398.478
400.545
400.504
398.547
394.872
389.683
383.175
375.533
366.927
357.505
347.414
336.779
325.684
314.203
302.407
290.331
278.047
265.585
252.979
240.242
227.393
214.449
206.339
202.997
199.638
196.27
192.905
189.568
186.303
183.146
180.078
177.038
176.088
176.661
178.598
180.278
181.708
182.898
183.857
184.598
185.136
185.487
185.673
185.716
185.643
185.477
185.244
184.964
184.656
184.346
184.065
183.841
183.69
183.623
183.651
183.776
184.002
184.328
184.753
185.272
185.882
186.578
96.5297
36.8382
39.2073
41.2752
41.8067
41.8244
41.6054
41.2468
40.8742
40.7533
40.8263
40.8775
40.9084
40.919
40.9088
40.8772
40.8232
40.746
40.6455
40.5226
40.3803
40.2248
40.067
39.9242
39.8183
39.7768
39.8339
40.033
40.4294
41.0888
42.0841
43.4893
45.3722
47.7851
50.7602
57.427
67.2444
79.8677
96.7296
114.784
133.995
154.323
175.687
197.911
220.648
243.394
265.532
286.399
305.419
322.151
336.379
348.103
357.414
364.393
369.132
371.75
372.385
371.192
368.333
363.98
358.299
351.455
343.605
334.882
325.404
315.302
304.7
293.656
282.251
270.529
258.538
246.293
233.845
221.222
213.488
210.584
207.596
204.533
201.41
198.25
195.083
191.956
188.904
185.917
182.928
180.832
180.218
180.74
181.884
182.772
183.414
183.824
184.021
184.023
183.853
183.539
183.11
182.596
182.027
181.429
180.824
180.23
179.676
179.193
178.807
178.53
178.369
178.327
178.405
178.599
178.908
179.324
179.844
180.46
98.7909
37.2508
40.0726
42.2141
42.7337
42.7145
42.6441
42.7885
43.022
43.2211
43.3954
43.5497
43.6865
43.8065
43.9097
43.9951
44.0616
44.1077
44.1319
44.1327
44.1092
44.0617
43.992
43.9047
43.8089
43.7193
43.6547
43.6383
43.6987
43.8724
44.2064
44.758
45.5933
46.7822
48.3921
50.4789
53.0816
58.1599
67.2128
77.9242
93.5166
110.16
127.746
146.187
165.372
185.132
205.212
225.242
244.752
263.218
280.168
295.238
308.258
319.19
328.046
334.853
339.665
342.559
343.634
343.006
340.804
337.167
332.238
326.153
319.044
311.039
302.245
292.758
282.682
272.098
261.11
249.756
238.077
226.09
218.967
216.672
214.203
211.58
208.819
205.943
202.978
199.961
196.939
193.962
191.025
188.06
184.997
183.173
182.047
181.162
181.482
181.56
181.415
181.069
180.549
179.882
179.105
178.251
177.356
176.453
175.568
174.721
173.93
173.222
172.628
172.17
171.85
171.67
171.627
171.718
171.936
172.274
172.725
173.283
173.939
101.128
37.8323
41.1679
43.4031
43.9457
44.1698
44.5086
44.8553
45.147
45.4057
45.6426
45.8636
46.0721
46.2695
46.4563
46.6319
46.7952
46.9446
47.078
47.1932
47.2879
47.3598
47.4073
47.4295
47.427
47.4032
47.3653
47.3254
47.3001
47.3092
47.3769
47.5338
47.8194
48.2832
48.9834
49.9843
51.3502
53.138
55.3912
58.9739
67.2633
76.3432
90.5345
105.817
121.901
138.66
155.948
173.591
191.352
208.921
225.944
242.036
256.84
270.12
281.748
291.646
299.777
306.134
310.74
313.642
314.908
314.624
312.888
309.806
305.497
300.077
293.651
286.322
278.197
269.35
259.853
249.785
239.24
228.259
222.038
220.561
218.804
216.793
214.551
212.104
209.477
206.703
203.822
200.895
197.983
195.085
192.133
189.05
185.799
182.836
181.146
179.229
177.137
176.458
175.603
174.605
173.503
172.336
171.146
169.968
168.834
167.772
166.799
165.927
165.182
164.588
164.155
163.878
163.754
163.775
163.934
164.223
164.633
165.157
165.785
103.532
38.567
42.4625
44.8046
45.4349
45.8348
46.2975
46.6582
46.9665
47.2461
47.5095
47.7637
48.0126
48.2582
48.5013
48.7417
48.9782
49.2093
49.4326
49.6455
49.8448
50.0272
50.1893
50.328
50.4406
50.5253
50.5817
50.6121
50.6222
50.6221
50.6267
50.6536
50.7239
50.8636
51.1061
51.4939
52.0777
52.9147
54.0645
55.5824
57.5123
59.884
67.2393
75.4991
87.5614
101.544
116.18
131.337
146.867
162.591
178.289
193.698
208.504
222.428
235.253
246.819
257.008
265.739
272.966
278.668
282.85
285.54
286.783
286.639
285.185
282.506
278.684
273.805
267.958
261.227
253.686
245.407
236.466
226.923
221.929
221.506
220.682
219.491
217.963
216.126
214.009
211.644
209.069
206.335
203.512
200.669
197.815
194.878
191.777
188.469
184.942
181.191
177.254
174.753
172.03
169.096
166.217
164.784
163.351
161.96
160.644
159.431
158.339
157.376
156.554
155.892
155.401
155.078
154.916
154.909
155.046
155.319
155.718
156.234
156.859
105.989
39.4304
43.9174
46.3764
47.0699
47.4219
47.8053
48.139
48.4266
48.6931
48.9518
49.2103
49.4729
49.742
50.0184
50.3021
50.5919
50.886
51.1817
51.4759
51.7647
52.044
52.3093
52.5561
52.7799
52.9765
53.1427
53.276
53.3756
53.4431
53.4835
53.5059
53.5238
53.5539
53.6154
53.731
53.9294
54.2469
54.7274
55.4206
56.3795
57.6555
59.2913
61.317
66.995
74.467
84.5007
97.2066
110.465
124.135
138.057
152.039
165.856
179.275
192.08
204.087
215.138
225.11
233.907
241.459
247.723
252.675
256.314
258.655
259.731
259.587
258.276
255.853
252.385
247.938
242.576
236.359
229.349
221.6
218.114
218.946
219.26
219.094
218.48
217.45
216.035
214.267
212.184
209.831
207.266
204.569
201.819
199.028
196.121
193.012
189.658
186.044
182.163
178.006
173.563
168.817
164.015
160.561
156.941
153.176
151.099
149.828
148.696
147.705
146.862
146.187
145.694
145.382
145.236
145.249
145.41
145.709
146.135
146.679
147.333
148.09
108.487
40.3843
45.4799
48.0685
48.8915
49.1699
49.2044
49.2771
49.4867
49.7111
49.9387
50.1774
50.4316
50.704
50.9954
51.3055
51.633
51.9755
52.3301
52.6926
53.0585
53.4226
53.7794
54.1232
54.448
54.7484
55.0192
55.2559
55.4551
55.6146
55.7339
55.8148
55.8624
55.8855
55.8972
55.9136
55.9529
56.0356
56.1867
56.4371
56.8242
57.3906
58.182
59.2437
60.615
62.3257
66.4502
73.1795
81.3532
92.8822
104.858
117.125
129.51
141.825
153.886
165.516
176.556
186.868
196.334
204.858
212.364
218.796
224.119
228.312
231.373
233.313
234.153
233.923
232.659
230.406
227.209
223.11
218.154
212.381
210.547
212.733
214.312
215.317
215.779
215.728
215.192
214.203
212.795
211.011
208.901
206.533
203.994
201.367
198.666
195.812
192.713
189.326
185.636
181.631
177.301
172.632
167.611
162.226
156.473
150.353
145.736
141.711
137.951
137.011
136.227
135.607
135.172
134.931
134.869
134.97
135.221
135.608
136.12
136.745
137.474
138.297
111.015
41.3831
47.0842
49.822
50.8123
51.2721
51.4891
51.5569
51.5147
51.3791
51.1564
50.8881
50.8784
51.1384
51.4306
51.7545
52.1081
52.4887
52.8924
53.3142
53.7484
54.1886
54.628
55.0595
55.4759
55.8705
56.2367
56.5687
56.8618
57.1119
57.3165
57.4745
57.5866
57.6556
57.6872
57.6907
57.6789
57.6676
57.6744
57.7181
57.8203
58.0076
58.3114
58.7675
59.4145
60.2913
61.4325
62.865
65.5865
71.6448
78.1254
88.5224
99.2621
110.172
121.094
131.868
142.345
152.388
161.873
170.693
178.758
185.994
192.343
197.762
202.224
205.716
208.233
209.783
210.38
210.046
208.806
206.685
203.711
199.908
199.712
203.218
206.071
208.296
209.914
210.946
211.414
211.344
210.765
209.713
208.232
206.379
204.227
201.87
199.397
196.813
194.029
190.954
187.546
183.785
179.659
175.154
170.261
164.968
159.266
153.165
146.677
139.827
133.003
128.856
124.775
124.309
124.009
123.889
123.953
124.186
124.569
125.08
125.706
126.435
127.258
128.167
113.56
42.3778
48.66
51.574
52.7713
53.4517
53.889
54.173
54.3416
54.4106
54.3855
54.2675
54.0553
53.7457
53.3346
52.8169
52.3769
52.442
52.8891
53.3647
53.8619
54.3729
54.8892
55.4023
55.9036
56.3848
56.8384
57.2575
57.636
57.9694
58.2539
58.4873
58.6688
58.799
58.8802
58.9165
58.9146
58.8843
58.8381
58.7915
58.7613
58.7647
58.8207
58.9517
59.184
59.5476
60.0747
60.7982
61.7487
62.9519
64.4262
69.8537
75.6429
84.0254
93.5812
103.215
112.788
122.171
131.241
139.888
148.015
155.538
162.389
168.51
173.86
178.408
182.134
185.027
187.086
188.316
188.724
188.324
187.126
185.142
186.441
191.126
195.158
198.548
201.306
203.439
204.96
205.883
206.23
206.023
205.302
204.111
202.512
200.583
198.422
196.118
193.661
190.954
187.911
184.48
180.645
176.391
171.699
166.562
160.976
154.951
148.508
141.674
134.482
126.971
119.299
115.145
112.195
112.25
112.455
112.814
113.315
113.939
114.669
115.492
116.403
117.397
116.112
43.3159
50.1239
53.2412
54.6928
55.6374
56.3353
56.872
57.2843
57.5886
57.7919
57.8958
57.8986
57.7964
57.5843
57.2567
56.8077
56.2314
55.522
54.6742
53.9622
54.0083
54.5991
55.1907
55.7729
56.3362
56.8718
57.3717
57.8292
58.2388
58.5966
58.8997
59.1468
59.3377
59.4736
59.557
59.5917
59.5832
59.5388
59.4685
59.3847
59.302
59.2361
59.203
59.2191
59.3034
59.478
59.7681
60.2008
60.8043
61.605
62.6252
63.8804
67.7674
72.9051
79.345
87.801
96.2674
104.629
112.778
120.616
128.053
135.015
141.436
147.265
152.459
156.99
160.834
163.978
166.416
168.145
169.165
169.478
169.085
171.669
177.332
182.379
186.806
190.609
193.786
196.333
198.25
199.553
200.248
200.368
199.935
199.007
197.643
195.928
193.96
191.817
189.477
186.841
183.813
180.337
176.392
171.962
167.039
161.623
155.729
149.378
142.601
135.435
127.917
120.089
111.998
104.952
100.828
100.352
100.88
101.527
102.286
103.149
104.104
105.146
106.27
118.66
44.1628
51.3878
54.7481
56.4899
57.7316
58.7228
59.5473
60.2413
60.8205
61.2909
61.6525
61.903
62.0386
62.0543
61.9442
61.7023
61.322
60.7974
60.1226
59.2927
58.304
57.1536
55.8404
55.304
55.7689
56.3838
56.9611
57.4936
57.9751
58.4014
58.7695
59.0778
59.3261
59.5152
59.6471
59.7248
59.7524
59.7347
59.6781
59.5904
59.4812
59.3625
59.2478
59.1517
59.0889
59.0736
59.1221
59.2531
59.4876
59.8485
60.3585
61.0384
61.9044
62.9659
65.3601
69.8904
74.5538
81.9657
89.3932
96.6906
103.771
110.554
116.972
122.964
128.483
133.492
137.961
141.869
145.2
147.944
150.095
151.648
152.595
156.235
162.664
168.534
173.833
178.546
182.656
186.149
189.011
191.24
192.833
193.815
194.193
194.009
193.303
192.15
190.626
188.828
186.812
184.546
181.926
178.853
175.27
171.153
166.496
161.305
155.597
149.395
142.734
135.649
128.181
120.37
112.261
103.899
95.3356
90.3741
88.7559
89.6404
90.6193
91.6894
92.8465
94.0867
95.4068
121.191
44.9153
52.4534
56.0949
58.1698
59.7556
61.081
62.2278
63.2313
64.1075
64.8636
65.5015
66.0196
66.4139
66.6792
66.809
66.7966
66.6349
66.3169
65.8363
65.1876
64.3665
63.37
62.1968
60.8473
59.3234
57.629
56.5667
56.6797
57.2315
57.7243
58.1549
58.522
58.8254
59.0659
59.2455
59.367
59.434
59.4507
59.4221
59.3538
59.2525
59.1257
58.9828
58.835
58.6947
58.5754
58.4901
58.4516
58.4736
58.5716
58.7627
59.0644
59.4935
60.0638
60.7846
61.6584
62.6801
66.5966
70.6433
76.1612
82.6937
89.0873
95.2715
101.185
106.779
112.008
116.84
121.246
125.204
128.701
131.726
134.267
136.316
140.796
147.792
154.302
160.304
165.773
170.683
175.01
178.73
181.826
184.282
186.102
187.288
187.876
187.881
187.367
186.386
185.016
183.331
181.37
179.095
176.41
173.223
169.477
165.152
160.252
154.796
148.813
142.337
135.406
128.062
120.345
112.297
103.964
95.3892
86.6162
80.2047
78.1065
79.3875
80.7427
82.1698
83.6675
85.2351
123.69
45.4802
53.3115
57.2766
59.7077
61.65
63.3233
64.8073
66.1385
67.334
68.4009
69.341
70.1524
70.831
71.3709
71.7653
72.0064
72.0865
71.9978
71.7331
71.2864
70.6525
69.8283
68.812
67.6042
66.207
64.6247
62.8631
60.9295
58.8326
57.3128
57.1115
57.5375
57.8956
58.1872
58.4144
58.5799
58.6874
58.741
58.745
58.7045
58.6248
58.5116
58.3716
58.2121
58.0418
57.8709
57.7109
57.5737
57.4711
57.414
57.4133
57.4813
57.6301
57.8718
58.2165
58.671
59.2373
59.9116
60.6842
63.0302
66.5146
70.5154
76.3089
81.9664
87.4413
92.69
97.675
102.364
106.733
110.763
114.44
117.751
120.686
125.815
133.209
140.195
146.744
152.823
158.4
163.44
167.911
171.786
175.041
177.663
179.639
180.988
181.717
181.887
181.52
180.676
179.414
177.787
175.809
173.444
170.621
167.264
163.32
158.777
153.644
147.951
141.734
135.035
127.892
120.344
112.43
104.196
95.6823
86.9305
77.9782
70.778
68.839
70.5239
72.2646
74.0601
75.9106
126.155
45.7477
53.8684
58.182
60.994
63.3182
65.3648
67.2121
68.897
70.4369
71.8391
73.1055
74.2339
75.2202
76.0579
76.7395
77.2567
77.6008
77.7632
77.7356
77.5111
77.0839
76.4502
75.608
74.5576
73.3014
71.8439
70.1915
68.3525
66.3364
64.1538
61.816
59.3351
57.4199
56.9372
57.2133
57.4241
57.5733
57.665
57.7037
57.6941
57.6411
57.5497
57.4254
57.2738
57.1012
56.9145
56.7215
56.5315
56.3546
56.201
56.0808
56.0027
55.9745
56.0043
56.0995
56.2658
56.5065
56.8219
57.2071
57.6523
58.1404
59.2008
62.1737
65.1883
70.4138
75.5329
80.5104
85.3134
89.9161
94.2985
98.4445
102.341
105.975
111.591
119.245
126.569
133.53
140.089
146.208
151.846
156.963
161.523
165.494
168.852
171.579
173.675
175.125
175.989
176.282
176.044
175.31
174.139
172.541
170.508
168.005
164.983
161.395
157.211
152.43
147.069
141.159
134.738
127.848
120.524
112.801
104.72
96.3229
87.6489
78.7351
69.6138
62.274
61.0989
63.175
65.2907
67.4468
128.563
45.6132
53.975
58.6997
61.9415
64.6867
67.1395
69.3787
71.443
73.3512
75.1115
76.7263
78.1937
79.5094
80.6667
81.6575
82.4726
83.1024
83.5372
83.7677
83.786
83.5852
83.1607
82.51
81.6331
80.5325
79.213
77.6815
75.9471
74.0202
71.9126
69.6369
67.2062
64.6339
61.9333
59.1177
56.8727
56.1482
56.2799
56.3548
56.3777
56.3535
56.2871
56.1833
56.0471
55.8838
55.6986
55.4972
55.2859
55.0715
54.8619
54.6656
54.4908
54.3448
54.234
54.1627
54.1342
54.15
54.2097
54.3097
54.4429
54.5981
54.7609
54.9138
55.1269
57.6392
60.4031
65.2639
70.0567
74.7587
79.351
83.8179
88.1464
92.3234
98.2936
106.096
113.647
120.907
127.836
134.389
140.52
146.185
151.34
155.946
159.97
163.386
166.184
168.343
169.892
170.852
171.257
171.113
170.472
169.342
167.722
165.592
162.923
159.68
155.84
151.396
146.358
140.749
134.603
127.96
120.861
113.34
105.436
97.1858
88.6287
79.8008
70.7343
61.4561
54.6198
54.8284
57.296
59.7859
130.925
45.1368
53.6616
58.8322
62.5335
65.7253
68.6071
71.2596
73.7238
76.0201
78.1581
80.1407
81.9666
83.6313
85.1281
86.4481
87.5816
88.5178
89.246
89.7556
90.0373
90.0831
89.8873
89.4466
88.7604
87.8309
86.6633
85.2649
83.6456
81.817
79.7918
77.5841
75.2083
72.6791
70.0111
67.219
64.3168
61.3178
58.235
55.73
54.8075
54.8134
54.773
54.6914
54.5732
54.4232
54.2462
54.0466
53.8294
53.5995
53.3619
53.1224
52.8869
52.6616
52.4523
52.2632
52.097
51.9538
51.831
51.7245
51.6276
51.5305
51.422
51.2904
51.1116
50.8533
50.8211
52.9157
56.4554
61.1666
65.8657
70.5404
75.18
79.7735
85.9927
93.8583
101.547
109.018
116.225
123.12
129.655
135.78
141.448
146.612
151.232
155.277
158.722
161.55
163.763
165.373
166.405
166.872
166.792
166.174
165.012
163.3
161.014
158.132
154.64
150.534
145.822
140.526
134.675
128.303
121.449
114.148
106.436
98.3489
89.9231
81.1939
72.1956
62.9585
53.5097
47.7992
49.9868
52.8508
133.228
44.2601
52.9046
58.5601
62.7434
66.3995
69.7268
72.8085
75.6884
78.3889
80.9207
83.2876
85.4887
87.5196
89.3734
91.0409
92.5116
93.774
94.816
95.6257
96.1921
96.5058
96.5594
96.3486
95.8717
95.1305
94.1301
92.8784
91.3859
89.6652
87.7305
85.5973
83.2814
80.7992
78.1667
75.3999
72.5141
69.5241
66.4439
63.2868
60.065
56.7901
54.0836
52.9946
52.895
52.7594
52.5923
52.398
52.1807
51.9442
51.6925
51.4294
51.1586
50.8841
50.6092
50.3372
50.0702
49.8079
49.5482
49.2877
49.0197
48.7346
48.4218
48.0689
47.6497
47.1364
46.5002
45.7107
46.3233
48.9775
53.7187
58.5228
63.3842
68.2961
74.6841
82.5511
90.3119
97.9221
105.334
112.498
119.361
125.872
131.978
137.629
142.781
147.393
151.435
154.883
157.727
159.967
161.608
162.664
163.145
163.054
162.381
161.118
159.242
156.748
153.626
149.876
145.509
140.545
135.01
128.936
122.357
115.306
107.818
99.927
91.6661
83.068
74.1643
64.9856
55.5612
45.9209
43.4242
46.6604
135.494
42.9433
51.66
57.8399
62.5255
66.6611
70.4475
73.9719
77.2811
80.3996
83.3394
86.1051
88.6961
91.1081
93.3343
95.3655
97.1907
98.7977
100.173
101.304
102.178
102.782
103.107
103.148
102.901
102.368
101.552
100.462
99.1097
97.5081
95.6732
93.6218
91.3716
88.9407
86.3468
83.6074
80.7395
77.7591
74.6814
71.521
68.2911
65.0043
61.6721
58.305
54.9124
52.03
50.7732
50.5845
50.3683
50.1283
49.8676
49.5893
49.296
48.9898
48.6724
48.3449
48.0072
47.6579
47.2956
46.917
46.5156
46.0829
45.6088
45.0796
44.4695
43.7518
42.901
41.8888
40.6791
40.1894
42.7466
47.6326
52.6558
57.8154
64.3147
72.1404
79.9251
87.6226
95.1836
102.556
109.687
116.521
123.003
129.08
134.702
139.824
144.409
148.427
151.858
154.692
156.923
158.553
159.581
160.007
159.825
159.035
157.604
155.527
152.804
149.44
145.446
140.842
135.652
129.906
123.633
116.867
109.639
101.981
93.9241
85.4979
76.732
67.6549
58.2944
48.6786
40.372
41.3449
44.9498
137.722
41.1513
49.8938
56.6347
61.8369
66.4614
70.7159
74.6928
78.4424
81.9912
85.3522
88.53
91.5241
94.3304
96.9422
99.351
101.546
103.515
105.244
106.717
107.921
108.839
109.461
109.778
109.785
109.48
108.869
107.959
106.762
105.293
103.569
101.608
99.4303
97.0559
94.5044
91.795
88.9465
85.9765
82.9016
79.7375
76.4988
73.199
69.8504
66.4644
63.0515
59.6207
56.1803
52.737
49.6529
48.1787
47.91
47.6189
47.3076
46.9772
46.6285
46.261
45.873
45.4624
45.0263
44.56
44.0564
43.5074
42.9027
42.2276
41.4599
40.5748
39.5473
38.349
36.9448
35.2943
34.4418
37.7226
42.8711
48.2305
54.8029
62.5606
70.3367
78.0842
85.7526
93.2892
100.639
107.745
114.55
120.998
127.037
132.617
137.694
142.234
146.209
149.598
152.39
154.574
156.144
157.088
157.394
157.07
156.097
154.461
152.166
149.216
145.625
141.412
136.6
131.216
125.288
118.846
111.92
104.537
96.7265
88.5155
79.931
70.9994
61.7468
52.1995
42.3839
36.9792
40.9276
139.921
38.8697
47.584
54.9136
60.6348
65.7475
70.4714
74.9056
79.1039
83.0945
86.8902
90.4947
93.9059
97.1191
100.128
102.926
105.504
107.85
109.951
111.789
113.347
114.607
115.552
116.172
116.457
116.407
116.023
115.313
114.29
112.969
111.368
109.509
107.413
105.102
102.597
99.9216
97.0947
94.1363
91.0646
87.8967
84.6486
81.3346
77.9684
74.562
71.1266
67.6722
64.2076
60.7405
57.2774
53.8236
50.383
47.01
45.2107
44.8582
44.4821
44.0814
43.6536
43.1958
42.7038
42.1718
41.5917
40.9544
40.2484
39.4578
38.5623
37.5391
36.3635
35.0069
33.4359
31.6116
29.4906
29.0412
33.9088
39.4369
46.0581
53.7328
61.4796
69.2511
76.9967
84.6628
92.1933
99.5302
106.615
113.389
119.798
125.787
131.31
136.326
140.801
144.706
148.021
150.73
152.817
154.273
155.078
155.228
154.717
153.536
151.687
149.175
146.014
142.223
137.821
132.836
127.291
121.214
114.631
107.569
100.051
92.102
83.7469
75.009
65.912
56.4801
46.7378
37.0511
37.8523
142.098
36.1022
44.723
52.6557
58.8801
64.4637
69.6455
74.5323
79.1825
83.6254
87.8724
91.9227
95.769
99.4034
102.821
106.018
108.99
111.729
114.221
116.446
118.384
120.012
121.31
122.262
122.856
123.087
122.956
122.47
121.641
120.486
119.026
117.281
115.277
113.038
110.587
107.95
105.148
102.203
99.1358
95.9645
92.7064
89.3776
85.9925
82.5642
79.1046
75.6244
72.1332
68.6393
65.1498
61.6706
58.2063
54.7603
51.3342
47.9283
44.5411
42.2278
41.3516
40.853
40.3144
39.7289
39.0879
38.3814
37.5963
36.716
35.7206
34.5876
33.2915
31.8038
30.0919
28.1183
25.8404
23.2115
25.6673
31.3414
37.9954
45.5787
53.2826
61.06
68.8604
76.6298
84.3115
91.8465
99.1747
106.237
112.974
119.331
125.257
130.706
135.637
140.019
143.822
147.024
149.605
151.55
152.843
153.473
153.432
152.716
151.328
149.273
146.566
143.222
139.261
134.707
129.583
123.911
117.714
111.016
103.838
96.2015
88.1265
79.6338
70.7443
61.4793
51.8611
41.9128
35.6908
144.255
32.879
41.3254
49.8575
56.5438
62.5585
68.1666
73.4851
78.5782
83.4778
88.1935
92.7171
97.0263
101.104
104.946
108.554
111.932