/*--------------------------------*- C++ -*----------------------------------*\
  =========                 |
  \\      /  F ield         | OpenFOAM: The Open Source CFD Toolbox
   \\    /   O peration     | Website:  https://openfoam.org
    \\  /    A nd           | Version:  10
     \\/     M anipulation  |
\*---------------------------------------------------------------------------*/
FoamFile
{
    format      ascii;
    class       surfaceScalarField;
    location    "29000";
    object      phi;
}
// * * * * * * * * * * * * * * * * * * * * * * * * * * * * * * * * * * * * * //

dimensions      [0 3 -1 0 0 0 0];

internalField   nonuniform List<scalar> 
35536
(
-4.20288e-09
-3.35995e-07
-1.5456e-08
-1.99044e-07
-1.34285e-08
-1.86952e-07
-1.00361e-09
-1.71631e-07
2.12916e-08
-1.55212e-07
5.50098e-08
-1.37035e-07
1.02982e-07
-1.15328e-07
1.69424e-07
-8.81614e-08
2.60851e-07
-5.32824e-08
3.87173e-07
-8.02367e-09
5.60541e-07
5.14143e-08
7.90227e-07
1.29944e-07
1.0769e-06
2.3198e-07
1.41002e-06
3.59424e-07
1.77041e-06
5.09574e-07
2.13531e-06
6.75651e-07
2.48322e-06
8.48509e-07
2.79893e-06
1.01896e-06
3.07484e-06
1.17931e-06
3.3098e-06
1.32508e-06
3.50694e-06
1.45504e-06
3.67177e-06
1.56927e-06
3.8096e-06
1.67034e-06
3.92533e-06
1.76061e-06
4.02355e-06
1.84191e-06
4.10818e-06
1.91613e-06
4.18248e-06
1.98486e-06
4.24912e-06
2.04937e-06
4.31018e-06
2.11068e-06
4.36722e-06
2.16962e-06
4.42135e-06
2.22678e-06
4.47334e-06
2.28259e-06
4.52373e-06
2.33728e-06
4.5729e-06
2.39101e-06
4.6211e-06
2.44384e-06
4.66848e-06
2.49576e-06
4.71517e-06
2.54674e-06
4.76123e-06
2.59669e-06
4.8067e-06
2.6455e-06
4.85158e-06
2.69306e-06
4.89588e-06
2.73921e-06
4.93956e-06
2.78378e-06
4.98261e-06
2.82659e-06
5.02497e-06
2.86745e-06
5.06659e-06
2.90612e-06
5.10742e-06
2.94238e-06
5.14739e-06
2.97597e-06
5.18642e-06
3.00661e-06
5.22444e-06
3.034e-06
5.26136e-06
3.05783e-06
5.29707e-06
3.07776e-06
5.33148e-06
3.09341e-06
5.36447e-06
3.10439e-06
5.39592e-06
3.11028e-06
5.4257e-06
3.11063e-06
5.45366e-06
3.10494e-06
5.47965e-06
3.09269e-06
5.50351e-06
3.07332e-06
5.52504e-06
3.04622e-06
5.54406e-06
3.01076e-06
5.56037e-06
2.96623e-06
5.57373e-06
2.91189e-06
5.58391e-06
2.84695e-06
5.59066e-06
2.77056e-06
5.59371e-06
2.68181e-06
5.59276e-06
2.57974e-06
5.58752e-06
2.46329e-06
5.57767e-06
2.33138e-06
5.56287e-06
2.18281e-06
5.54277e-06
2.01635e-06
5.51698e-06
1.83067e-06
5.48513e-06
1.62435e-06
5.44679e-06
1.3959e-06
5.40153e-06
1.14376e-06
5.35043e-06
8.46247e-07
5.2952e-06
5.36664e-07
5.23626e-06
2.51036e-07
5.17394e-06
-1.20288e-08
5.10853e-06
-2.53929e-07
5.04039e-06
-4.76232e-07
4.96988e-06
-6.8051e-07
4.89732e-06
-8.68137e-07
4.82291e-06
-1.04012e-06
4.74684e-06
-1.19746e-06
4.66943e-06
-1.34111e-06
4.59123e-06
-1.47192e-06
4.51308e-06
-1.59048e-06
4.43578e-06
-1.69707e-06
4.35955e-06
-1.7918e-06
4.28376e-06
-1.87509e-06
4.20753e-06
-1.9479e-06
4.13031e-06
-2.01172e-06
4.05202e-06
-2.06782e-06
3.9727e-06
-2.11708e-06
3.89244e-06
-2.1602e-06
3.81137e-06
-2.19778e-06
3.72964e-06
-2.23034e-06
3.64742e-06
-2.25837e-06
3.5649e-06
-2.28232e-06
-2.30259e-06
-4.71985e-09
-3.31275e-07
-1.72164e-08
-1.86546e-07
-1.98009e-08
-1.84367e-07
-1.36782e-08
-1.77754e-07
-6.84723e-11
-1.68822e-07
2.14831e-08
-1.58586e-07
5.22957e-08
-1.4614e-07
9.4388e-08
-1.30254e-07
1.50555e-07
-1.0945e-07
2.2452e-07
-8.19888e-08
3.22121e-07
-4.61859e-08
4.52431e-07
-3.65878e-10
6.26175e-07
5.82362e-08
8.5182e-07
1.33779e-07
1.13126e-06
2.30138e-07
1.45733e-06
3.49575e-07
1.81482e-06
4.91017e-07
2.18412e-06
6.49665e-07
2.54526e-06
8.1817e-07
2.88198e-06
9.88363e-07
3.18398e-06
1.15304e-06
3.44711e-06
1.30614e-06
3.67255e-06
1.44489e-06
3.86414e-06
1.56902e-06
4.02658e-06
1.67947e-06
4.16434e-06
1.77837e-06
4.28176e-06
1.86745e-06
4.38277e-06
1.94835e-06
4.4708e-06
2.02265e-06
4.54878e-06
2.09164e-06
4.61917e-06
2.1564e-06
4.68391e-06
2.21785e-06
4.74448e-06
2.27671e-06
4.80196e-06
2.33353e-06
4.85713e-06
2.38867e-06
4.91054e-06
2.44236e-06
4.96256e-06
2.49472e-06
5.01346e-06
2.54579e-06
5.06341e-06
2.59555e-06
5.11253e-06
2.64394e-06
5.16089e-06
2.69085e-06
5.20851e-06
2.73616e-06
5.2554e-06
2.7797e-06
5.30155e-06
2.8213e-06
5.34692e-06
2.86075e-06
5.39146e-06
2.89784e-06
5.43512e-06
2.93231e-06
5.47781e-06
2.96391e-06
5.51947e-06
2.99235e-06
5.55998e-06
3.01732e-06
5.59925e-06
3.03848e-06
5.63717e-06
3.05549e-06
5.6736e-06
3.06796e-06
5.70841e-06
3.07547e-06
5.74146e-06
3.07759e-06
5.77257e-06
3.07383e-06
5.80158e-06
3.06368e-06
5.8283e-06
3.0466e-06
5.85253e-06
3.022e-06
5.87405e-06
2.98924e-06
5.89262e-06
2.94765e-06
5.90801e-06
2.8965e-06
5.91994e-06
2.83502e-06
5.92812e-06
2.76237e-06
5.93227e-06
2.67766e-06
5.93207e-06
2.57994e-06
5.92716e-06
2.46819e-06
5.91721e-06
2.34133e-06
5.90185e-06
2.19818e-06
5.88067e-06
2.03753e-06
5.85329e-06
1.85806e-06
5.81926e-06
1.65838e-06
5.77814e-06
1.43702e-06
5.72946e-06
1.19244e-06
5.67438e-06
9.01324e-07
5.61476e-06
5.96282e-07
5.55106e-06
3.14743e-07
5.48361e-06
5.54184e-08
5.41265e-06
-1.82966e-07
5.33862e-06
-4.02209e-07
5.26202e-06
-6.03906e-07
5.18316e-06
-7.89275e-07
5.1023e-06
-9.5926e-07
5.01964e-06
-1.1148e-06
4.93535e-06
-1.25683e-06
4.84969e-06
-1.38626e-06
4.76313e-06
-1.50392e-06
4.67646e-06
-1.61041e-06
4.59067e-06
-1.70601e-06
4.50635e-06
-1.79076e-06
4.42317e-06
-1.86473e-06
4.34012e-06
-1.92867e-06
4.25635e-06
-1.98405e-06
4.17159e-06
-2.03231e-06
4.0859e-06
-2.07452e-06
3.99943e-06
-2.11131e-06
3.91235e-06
-2.14325e-06
3.82482e-06
-2.17084e-06
3.73704e-06
-2.19454e-06
-2.21476e-06
-4.31053e-09
-3.26964e-07
-1.58096e-08
-1.75046e-07
-2.2037e-08
-1.78139e-07
-2.18164e-08
-1.77974e-07
-1.59421e-08
-1.74696e-07
-4.23272e-09
-1.70296e-07
1.40599e-08
-1.64433e-07
4.01507e-08
-1.56344e-07
7.57215e-08
-1.4502e-07
1.22911e-07
-1.29178e-07
1.84253e-07
-1.07528e-07
2.6288e-07
-7.89934e-08
3.63643e-07
-4.25269e-08
4.94196e-07
3.22672e-09
6.63955e-07
6.03792e-08
8.8122e-07
1.3231e-07
1.14958e-06
2.22653e-07
1.46515e-06
3.34093e-07
1.8164e-06
4.66921e-07
2.18675e-06
6.18014e-07
2.55805e-06
7.81738e-07
2.91328e-06
9.50917e-07
3.24e-06
1.11817e-06
3.53146e-06
1.27757e-06
3.78599e-06
1.42494e-06
4.00577e-06
1.55859e-06
4.19471e-06
1.67851e-06
4.35682e-06
1.78624e-06
4.49598e-06
1.88349e-06
4.6161e-06
1.97151e-06
4.72061e-06
2.0519e-06
4.81252e-06
2.12593e-06
4.89455e-06
2.19469e-06
4.96897e-06
2.25911e-06
5.03764e-06
2.32e-06
5.10196e-06
2.37804e-06
5.16299e-06
2.43368e-06
5.2215e-06
2.48728e-06
5.27804e-06
2.53901e-06
5.33299e-06
2.58899e-06
5.38662e-06
2.63722e-06
5.4391e-06
2.68367e-06
5.49056e-06
2.72824e-06
5.54106e-06
2.77081e-06
5.59061e-06
2.8112e-06
5.6392e-06
2.84924e-06
5.68682e-06
2.8847e-06
5.7334e-06
2.91733e-06
5.77886e-06
2.94688e-06
5.82313e-06
2.97304e-06
5.8661e-06
2.99551e-06
5.90766e-06
3.01394e-06
5.94766e-06
3.02796e-06
5.98596e-06
3.03717e-06
6.02242e-06
3.04114e-06
6.05684e-06
3.0394e-06
6.08904e-06
3.03148e-06
6.11881e-06
3.01682e-06
6.14595e-06
2.99487e-06
6.17019e-06
2.96499e-06
6.1913e-06
2.92654e-06
6.209e-06
2.87881e-06
6.22299e-06
2.82103e-06
6.23296e-06
2.7524e-06
6.23858e-06
2.67204e-06
6.23951e-06
2.57902e-06
6.23538e-06
2.47233e-06
6.22578e-06
2.35092e-06
6.21033e-06
2.21364e-06
6.18859e-06
2.05927e-06
6.16011e-06
1.88653e-06
6.12443e-06
1.69406e-06
6.08105e-06
1.48039e-06
6.02947e-06
1.24403e-06
5.97091e-06
9.59882e-07
5.90736e-06
6.59832e-07
5.83932e-06
3.82785e-07
5.76718e-06
1.2756e-07
5.69121e-06
-1.06992e-07
5.6118e-06
-3.22806e-07
5.52949e-06
-5.21598e-07
5.44466e-06
-7.04442e-07
5.35763e-06
-8.72225e-07
5.26866e-06
-1.02583e-06
5.17796e-06
-1.16613e-06
5.08569e-06
-1.29399e-06
4.99205e-06
-1.41028e-06
4.89744e-06
-1.51579e-06
4.80256e-06
-1.61113e-06
4.70839e-06
-1.6966e-06
4.61583e-06
-1.77217e-06
4.52493e-06
-1.83777e-06
4.43477e-06
-1.89389e-06
4.34424e-06
-1.94178e-06
4.25287e-06
-1.98315e-06
4.16076e-06
-2.01921e-06
4.0681e-06
-2.05059e-06
3.97507e-06
-2.07781e-06
3.88188e-06
-2.10135e-06
-2.12163e-06
-3.88907e-09
-3.23074e-07
-1.37653e-08
-1.65169e-07
-2.17904e-08
-1.70113e-07
-2.59063e-08
-1.73857e-07
-2.62327e-08
-1.74369e-07
-2.25523e-08
-1.73976e-07
-1.43366e-08
-1.72648e-07
-7.26808e-10
-1.69954e-07
1.95009e-08
-1.65248e-07
4.79535e-08
-1.57631e-07
8.65009e-08
-1.46075e-07
1.37151e-07
-1.29644e-07
2.0206e-07
-1.07436e-07
2.83838e-07
-7.85511e-08
3.86317e-07
-4.21004e-08
5.15578e-07
3.05001e-09
6.79775e-07
5.84558e-08
8.87102e-07
1.26766e-07
1.1426e-06
2.11419e-07
1.44524e-06
3.15378e-07
1.78701e-06
4.39964e-07
2.15451e-06
5.8342e-07
2.53122e-06
7.41458e-07
2.90072e-06
9.08073e-07
3.24912e-06
1.07654e-06
3.56707e-06
1.24064e-06
3.85016e-06
1.39542e-06
4.09853e-06
1.53788e-06
4.3149e-06
1.66711e-06
4.50293e-06
1.78348e-06
4.66597e-06
1.88885e-06
4.80748e-06
1.98443e-06
4.93089e-06
2.07127e-06
5.03926e-06
2.15074e-06
5.13535e-06
2.22391e-06
5.22168e-06
2.29171e-06
5.30036e-06
2.355e-06
5.37314e-06
2.4145e-06
5.44137e-06
2.47078e-06
5.50607e-06
2.52429e-06
5.56799e-06
2.5753e-06
5.62768e-06
2.62398e-06
5.68552e-06
2.6704e-06
5.74177e-06
2.71455e-06
5.79662e-06
2.75636e-06
5.85016e-06
2.7957e-06
5.90245e-06
2.83241e-06
5.95349e-06
2.86629e-06
6.00325e-06
2.89711e-06
6.05169e-06
2.92461e-06
6.0987e-06
2.94849e-06
6.1442e-06
2.96844e-06
6.18806e-06
2.9841e-06
6.23012e-06
2.9951e-06
6.27024e-06
3.00102e-06
6.30822e-06
3.00142e-06
6.34387e-06
2.99583e-06
6.37697e-06
2.98372e-06
6.40728e-06
2.96455e-06
6.43455e-06
2.93772e-06
6.45851e-06
2.90259e-06
6.47885e-06
2.85847e-06
6.49526e-06
2.80462e-06
6.5074e-06
2.74026e-06
6.51491e-06
2.66453e-06
6.5174e-06
2.57652e-06
6.51448e-06
2.47525e-06
6.50572e-06
2.35968e-06
6.49067e-06
2.22868e-06
6.46887e-06
2.08108e-06
6.43981e-06
1.91559e-06
6.403e-06
1.73087e-06
6.3579e-06
1.5255e-06
6.30393e-06
1.29799e-06
6.24239e-06
1.02142e-06
6.17538e-06
7.26844e-07
6.10346e-06
4.54709e-07
6.02707e-06
2.03945e-07
5.94656e-06
-2.64821e-08
5.86228e-06
-2.38523e-07
5.7747e-06
-4.3402e-07
5.68424e-06
-6.13981e-07
5.59127e-06
-7.79256e-07
5.49612e-06
-9.30682e-07
5.39908e-06
-1.06908e-06
5.30035e-06
-1.19526e-06
5.20012e-06
-1.31005e-06
5.09857e-06
-1.41424e-06
4.99604e-06
-1.5086e-06
4.89314e-06
-1.5937e-06
4.79082e-06
-1.66985e-06
4.69007e-06
-1.73703e-06
4.59129e-06
-1.79511e-06
4.49378e-06
-1.84427e-06
4.3963e-06
-1.88567e-06
4.29826e-06
-1.92117e-06
4.19976e-06
-1.95208e-06
4.10101e-06
-1.97906e-06
4.00225e-06
-2.00259e-06
3.90368e-06
-2.02306e-06
3.80553e-06
-2.04084e-06
3.70801e-06
-2.05622e-06
3.61133e-06
-2.06942e-06
-2.08064e-06
-3.46225e-09
-3.19612e-07
-1.18593e-08
-1.56772e-07
-2.00166e-08
-1.61955e-07
-2.62404e-08
-1.67633e-07
-3.03458e-08
-1.70264e-07
-3.20664e-08
-1.72255e-07
-3.10062e-08
-1.73708e-07
-2.65636e-08
-1.74396e-07
-1.78492e-08
-1.73962e-07
-3.61767e-09
-1.71862e-07
1.76682e-08
-1.6736e-07
4.76783e-08
-1.59654e-07
8.81841e-08
-1.47941e-07
1.41041e-07
-1.31408e-07
2.08148e-07
-1.09208e-07
2.91707e-07
-8.05091e-08
3.94683e-07
-4.45205e-08
5.21761e-07
-3.11807e-10
6.7988e-07
5.32999e-08
8.76918e-07
1.1834e-07
1.11885e-06
1.98031e-07
1.40697e-06
2.95297e-07
1.73647e-06
4.11964e-07
2.097e-06
5.47544e-07
2.47438e-06
6.99149e-07
2.85311e-06
8.61911e-07
3.2187e-06
1.02984e-06
3.55994e-06
1.19664e-06
3.8699e-06
1.35715e-06
4.14604e-06
1.50735e-06
4.38986e-06
1.64503e-06
4.60433e-06
1.76996e-06
4.79243e-06
1.88318e-06
4.95709e-06
1.98608e-06
5.10148e-06
2.07951e-06
5.22857e-06
2.16462e-06
5.34108e-06
2.24249e-06
5.44156e-06
2.31401e-06
5.53234e-06
2.38001e-06
5.61539e-06
2.44123e-06
5.69236e-06
2.49833e-06
5.76453e-06
2.55182e-06
5.83287e-06
2.60206e-06
5.89812e-06
2.6493e-06
5.96081e-06
2.69367e-06
6.02131e-06
2.7352e-06
6.07988e-06
2.77384e-06
6.13668e-06
2.80949e-06
6.19179e-06
2.842e-06
6.24526e-06
2.87115e-06
6.29705e-06
2.8967e-06
6.34712e-06
2.91838e-06
6.39536e-06
2.93586e-06
6.44167e-06
2.9488e-06
6.48588e-06
2.95681e-06
6.52782e-06
2.95948e-06
6.5673e-06
2.95635e-06
6.60409e-06
2.94693e-06
6.63796e-06
2.93069e-06
6.66863e-06
2.90705e-06
6.69581e-06
2.87541e-06
6.71919e-06
2.83509e-06
6.73843e-06
2.78539e-06
6.75316e-06
2.72553e-06
6.76299e-06
2.65469e-06
6.76752e-06
2.57199e-06
6.7663e-06
2.47647e-06
6.75887e-06
2.36711e-06
6.74474e-06
2.24282e-06
6.72339e-06
2.10243e-06
6.69429e-06
1.94469e-06
6.65688e-06
1.76828e-06
6.61056e-06
1.57181e-06
6.55474e-06
1.35382e-06
6.49071e-06
1.08545e-06
6.42071e-06
7.9685e-07
6.34534e-06
5.3007e-07
6.26514e-06
2.84146e-07
6.1805e-06
5.8167e-08
6.0917e-06
-1.49732e-07
5.99919e-06
-3.4151e-07
5.9034e-06
-5.18185e-07
5.80472e-06
-6.80576e-07
5.70353e-06
-8.29489e-07
5.60015e-06
-9.65707e-07
5.49489e-06
-1.09e-06
5.38798e-06
-1.20314e-06
5.27963e-06
-1.30589e-06
5.17005e-06
-1.39903e-06
5.05959e-06
-1.48323e-06
4.94879e-06
-1.55905e-06
4.83854e-06
-1.62677e-06
4.7298e-06
-1.68638e-06
4.62321e-06
-1.73768e-06
4.51827e-06
-1.78073e-06
4.41376e-06
-1.81666e-06
4.30909e-06
-1.84741e-06
4.20439e-06
-1.87436e-06
4.09987e-06
-1.89807e-06
3.99574e-06
-1.91894e-06
3.89222e-06
-1.93732e-06
3.7895e-06
-1.9535e-06
3.6878e-06
-1.96772e-06
-1.98016e-06
-3.22303e-09
-3.16389e-07
-1.0754e-08
-1.49241e-07
-1.84903e-08
-1.54219e-07
-2.5273e-08
-1.60851e-07
-3.09831e-08
-1.64554e-07
-3.54433e-08
-1.67795e-07
-3.84033e-08
-1.70748e-07
-3.94938e-08
-1.73306e-07
-3.81616e-08
-1.75294e-07
-3.35793e-08
-1.76444e-07
-2.46002e-08
-1.76339e-07
-9.85526e-09
-1.74399e-07
1.21802e-08
-1.69977e-07
4.31472e-08
-1.62375e-07
8.47609e-08
-1.50821e-07
1.38781e-07
-1.3453e-07
2.06947e-07
-1.12687e-07
2.91132e-07
-8.44968e-08
3.93665e-07
-4.9233e-08
5.18161e-07
-6.15539e-09
6.70367e-07
4.58251e-08
8.57394e-07
1.0827e-07
1.08568e-06
1.83676e-07
1.35837e-06
2.74853e-07
1.67344e-06
3.84085e-07
2.02344e-06
5.11908e-07
2.39674e-06
6.56534e-07
2.7792e-06
8.14175e-07
3.15664e-06
9.79714e-07
3.51658e-06
1.1474e-06
3.85018e-06
1.31143e-06
4.15265e-06
1.46749e-06
4.42321e-06
1.61262e-06
4.66391e-06
1.74538e-06
4.87747e-06
1.86595e-06
5.06633e-06
1.97576e-06
5.23313e-06
2.07569e-06
5.38071e-06
2.16643e-06
5.51164e-06
2.24909e-06
5.62836e-06
2.32451e-06
5.73325e-06
2.39344e-06
5.82845e-06
2.45662e-06
5.91582e-06
2.51469e-06
5.99688e-06
2.56825e-06
6.07283e-06
2.61772e-06
6.1446e-06
2.66343e-06
6.21289e-06
2.70555e-06
6.2782e-06
2.74418e-06
6.34088e-06
2.77931e-06
6.40117e-06
2.81085e-06
6.45922e-06
2.83866e-06
6.51507e-06
2.86252e-06
6.56872e-06
2.8822e-06
6.62013e-06
2.89739e-06
6.6692e-06
2.90775e-06
6.71577e-06
2.91291e-06
6.75968e-06
2.91244e-06
6.80072e-06
2.90588e-06
6.83866e-06
2.89275e-06
6.87322e-06
2.87249e-06
6.90412e-06
2.84451e-06
6.93101e-06
2.80819e-06
6.95356e-06
2.76284e-06
6.97137e-06
2.70772e-06
6.98403e-06
2.64203e-06
6.9911e-06
2.56492e-06
6.9921e-06
2.47547e-06
6.98652e-06
2.37269e-06
6.97384e-06
2.2555e-06
6.95348e-06
2.12278e-06
6.92487e-06
1.9733e-06
6.88738e-06
1.80577e-06
6.84038e-06
1.61881e-06
6.78319e-06
1.41101e-06
6.71715e-06
1.15148e-06
6.64459e-06
8.69417e-07
6.5662e-06
6.08461e-07
6.48257e-06
3.67774e-07
6.39414e-06
1.46596e-07
6.30116e-06
-5.67543e-08
6.20401e-06
-2.44355e-07
6.10312e-06
-4.17302e-07
5.99894e-06
-5.76394e-07
5.89186e-06
-7.22404e-07
5.78223e-06
-8.56083e-07
5.6704e-06
-9.78168e-07
5.55666e-06
-1.0894e-06
5.44128e-06
-1.19051e-06
5.32452e-06
-1.28227e-06
5.20667e-06
-1.36538e-06
5.08814e-06
-1.44052e-06
4.96952e-06
-1.50815e-06
4.85164e-06
-1.5685e-06
4.73545e-06
-1.62148e-06
4.62158e-06
-1.66686e-06
4.50963e-06
-1.7047e-06
4.39845e-06
-1.73624e-06
4.28761e-06
-1.76352e-06
4.17724e-06
-1.7877e-06
4.06749e-06
-1.80919e-06
3.95855e-06
-1.82837e-06
3.85058e-06
-1.84553e-06
3.74379e-06
-1.86093e-06
-1.87475e-06
-3.02577e-09
-3.13363e-07
-9.88255e-09
-1.42384e-07
-1.69386e-08
-1.47164e-07
-2.33981e-08
-1.54392e-07
-2.92837e-08
-1.58668e-07
-3.45536e-08
-1.62525e-07
-3.90921e-08
-1.6621e-07
-4.27078e-08
-1.6969e-07
-4.51082e-08
-1.72894e-07
-4.58517e-08
-1.75701e-07
-4.4272e-08
-1.77919e-07
-3.94198e-08
-1.79251e-07
-3.01193e-08
-1.79278e-07
-1.50302e-08
-1.77464e-07
7.3708e-09
-1.73222e-07
3.87183e-08
-1.65877e-07
8.07007e-08
-1.54669e-07
1.35018e-07
-1.38814e-07
2.03301e-07
-1.17516e-07
2.87139e-07
-8.99928e-08
3.88494e-07
-5.55296e-08
5.10228e-07
-1.34639e-08
6.56801e-07
3.71032e-08
8.3432e-07
9.73333e-08
1.04937e-06
1.69039e-07
1.30636e-06
2.54912e-07
1.60549e-06
3.57408e-07
1.94196e-06
4.77704e-07
2.30676e-06
6.14917e-07
2.68773e-06
7.66429e-07
3.07126e-06
9.27896e-07
3.44462e-06
1.09413e-06
3.79759e-06
1.25965e-06
4.12337e-06
1.4196e-06
4.41885e-06
1.57047e-06
4.68469e-06
1.70991e-06
4.92315e-06
1.83724e-06
5.13642e-06
1.95317e-06
5.32649e-06
2.05901e-06
5.49579e-06
2.15521e-06
5.64669e-06
2.24254e-06
5.78147e-06
2.32184e-06
5.90239e-06
2.39378e-06
6.0116e-06
2.45903e-06
6.11109e-06
2.51823e-06
6.20257e-06
2.57195e-06
6.28744e-06
2.62068e-06
6.36681e-06
2.66481e-06
6.44156e-06
2.70456e-06
6.51233e-06
2.74008e-06
6.57959e-06
2.7714e-06
6.64365e-06
2.79846e-06
6.70472e-06
2.82113e-06
6.76289e-06
2.83921e-06
6.8182e-06
2.85245e-06
6.87059e-06
2.86052e-06
6.91995e-06
2.86307e-06
6.96614e-06
2.8597e-06
7.00895e-06
2.84994e-06
7.04814e-06
2.8333e-06
7.08342e-06
2.80923e-06
7.11447e-06
2.77714e-06
7.14094e-06
2.73637e-06
7.16243e-06
2.68623e-06
7.1785e-06
2.62596e-06
7.18869e-06
2.55474e-06
7.19249e-06
2.47168e-06
7.18934e-06
2.37583e-06
7.17868e-06
2.26616e-06
7.15988e-06
2.14157e-06
7.13231e-06
2.00087e-06
7.09529e-06
1.84279e-06
7.04811e-06
1.66599e-06
6.99004e-06
1.46907e-06
6.92244e-06
1.21908e-06
6.84772e-06
9.44136e-07
6.76668e-06
6.89505e-07
6.67999e-06
4.54468e-07
6.58813e-06
2.38453e-07
6.49129e-06
4.00848e-08
6.38978e-06
-1.42845e-07
6.28406e-06
-3.11577e-07
6.17457e-06
-4.66905e-07
6.06173e-06
-6.09569e-07
5.94594e-06
-7.40291e-07
5.82755e-06
-8.59776e-07
5.70689e-06
-9.68741e-07
5.5843e-06
-1.06792e-06
5.4601e-06
-1.15807e-06
5.33465e-06
-1.23994e-06
5.20839e-06
-1.31426e-06
5.08186e-06
-1.38163e-06
4.95578e-06
-1.44242e-06
4.83098e-06
-1.49669e-06
4.70832e-06
-1.5442e-06
4.58826e-06
-1.58463e-06
4.47019e-06
-1.61816e-06
4.3531e-06
-1.64644e-06
4.23677e-06
-1.67136e-06
4.12126e-06
-1.69368e-06
4.00671e-06
-1.71382e-06
3.89328e-06
-1.73211e-06
3.78119e-06
-1.74883e-06
3.67062e-06
-1.76418e-06
-1.7783e-06
-2.83447e-09
-3.10529e-07
-9.04887e-09
-1.3617e-07
-1.52502e-08
-1.40963e-07
-2.09212e-08
-1.48721e-07
-2.61914e-08
-1.53398e-07
-3.11345e-08
-1.57582e-07
-3.57375e-08
-1.61607e-07
-3.9926e-08
-1.65502e-07
-4.35675e-08
-1.69253e-07
-4.6456e-08
-1.72812e-07
-4.82742e-08
-1.76101e-07
-4.85339e-08
-1.78991e-07
-4.6531e-08
-1.81281e-07
-4.13243e-08
-1.82671e-07
-3.17734e-08
-1.82773e-07
-1.6555e-08
-1.81095e-07
5.84447e-09
-1.77068e-07
3.70549e-08
-1.70025e-07
7.87645e-08
-1.59226e-07
1.32649e-07
-1.43877e-07
2.003e-07
-1.23181e-07
2.83194e-07
-9.63584e-08
3.82999e-07
-6.27011e-08
5.01933e-07
-2.16012e-08
6.43351e-07
2.76216e-08
8.12317e-07
8.59456e-08
1.01503e-06
1.54694e-07
1.2566e-06
2.36131e-07
1.53895e-06
3.32569e-07
1.85975e-06
4.4563e-07
2.21238e-06
5.75265e-07
2.58674e-06
7.19765e-07
2.97065e-06
8.75739e-07
3.35161e-06
1.03864e-06
3.71859e-06
1.20349e-06
4.06341e-06
1.3651e-06
4.3811e-06
1.51954e-06
4.67017e-06
1.66409e-06
4.93217e-06
1.79702e-06
5.16906e-06
1.91831e-06
5.38241e-06
2.0292e-06
5.57399e-06
2.13025e-06
5.74592e-06
2.22185e-06
5.90016e-06
2.3048e-06
6.03872e-06
2.37967e-06
6.16366e-06
2.44701e-06
6.27695e-06
2.50739e-06
6.38041e-06
2.56135e-06
6.47557e-06
2.6094e-06
6.56373e-06
2.65193e-06
6.64589e-06
2.68924e-06
6.72284e-06
2.72151e-06
6.79517e-06
2.7488e-06
6.8633e-06
2.77109e-06
6.92749e-06
2.78825e-06
6.9879e-06
2.80011e-06
7.04458e-06
2.80639e-06
7.09749e-06
2.80678e-06
7.14653e-06
2.8009e-06
7.19153e-06
2.7883e-06
7.23226e-06
2.76851e-06
7.26842e-06
2.74098e-06
7.29968e-06
2.70511e-06
7.32566e-06
2.66025e-06
7.34591e-06
2.60571e-06
7.35995e-06
2.5407e-06
7.36724e-06
2.46439e-06
7.36721e-06
2.37586e-06
7.35922e-06
2.27415e-06
7.34262e-06
2.15817e-06
7.3167e-06
2.02679e-06
7.28072e-06
1.87877e-06
7.23391e-06
1.7128e-06
7.17548e-06
1.5275e-06
7.10677e-06
1.28779e-06
7.03029e-06
1.02062e-06
6.94694e-06
7.72858e-07
6.8575e-06
5.43902e-07
6.76256e-06
3.33401e-07
6.66221e-06
1.40429e-07
6.55669e-06
-3.73232e-08
6.44641e-06
-2.01296e-07
6.33182e-06
-3.52317e-07
6.21337e-06
-4.91113e-07
6.09146e-06
-6.18388e-07
5.96652e-06
-7.34834e-07
5.83895e-06
-8.41166e-07
5.70916e-06
-9.38131e-07
5.57759e-06
-1.0265e-06
5.44467e-06
-1.10702e-06
5.31087e-06
-1.18046e-06
5.17675e-06
-1.2475e-06
5.04298e-06
-1.30864e-06
4.91035e-06
-1.36406e-06
4.77971e-06
-1.41356e-06
4.65177e-06
-1.45669e-06
4.52658e-06
-1.49298e-06
4.40315e-06
-1.52301e-06
4.28063e-06
-1.54885e-06
4.15902e-06
-1.57207e-06
4.03845e-06
-1.59325e-06
3.91914e-06
-1.6128e-06
3.80131e-06
-1.631e-06
3.6852e-06
-1.64808e-06
3.57106e-06
-1.66416e-06
3.45912e-06
-1.67931e-06
-1.69355e-06
-2.62567e-09
-3.07903e-07
-8.13152e-09
-1.30665e-07
-1.33298e-08
-1.35765e-07
-1.79456e-08
-1.44105e-07
-2.21867e-08
-1.49157e-07
-2.62001e-08
-1.53569e-07
-3.00371e-08
-1.5777e-07
-3.36913e-08
-1.61848e-07
-3.71169e-08
-1.65827e-07
-4.02293e-08
-1.697e-07
-4.28951e-08
-1.73435e-07
-4.49073e-08
-1.76979e-07
-4.59403e-08
-1.80248e-07
-4.55009e-08
-1.8311e-07
-4.29122e-08
-1.85362e-07
-3.72881e-08
-1.86719e-07
-2.75336e-08
-1.86823e-07
-1.23355e-08
-1.85223e-07
9.79845e-09
-1.81359e-07
4.05082e-08
-1.74587e-07
8.15105e-08
-1.64183e-07
1.34508e-07
-1.49356e-07
2.01096e-07
-1.29289e-07
2.82697e-07
-1.03202e-07
3.80698e-07
-7.03798e-08
4.96872e-07
-3.02279e-08
6.33791e-07
1.77752e-08
7.95421e-07
7.4502e-08
9.87005e-07
1.40985e-07
1.21393e-06
2.18708e-07
1.4794e-06
3.0979e-07
1.78301e-06
4.16159e-07
2.12036e-06
5.38386e-07
2.48366e-06
6.7535e-07
2.86246e-06
8.24687e-07
3.24502e-06
9.82543e-07
3.62017e-06
1.14439e-06
3.97875e-06
1.30551e-06
4.31442e-06
1.46135e-06
4.62388e-06
1.60885e-06
4.90726e-06
1.74581e-06
5.16618e-06
1.87134e-06
5.40192e-06
1.9861e-06
5.61565e-06
2.09107e-06
5.80899e-06
2.18632e-06
5.98352e-06
2.27249e-06
6.1409e-06
2.35001e-06
6.28296e-06
2.4193e-06
6.41155e-06
2.48081e-06
6.52844e-06
2.53503e-06
6.63526e-06
2.58243e-06
6.73337e-06
2.6234e-06
6.82391e-06
2.65826e-06
6.9078e-06
2.6872e-06
6.98574e-06
2.71032e-06
7.05823e-06
2.72762e-06
7.12562e-06
2.739e-06
7.18813e-06
2.74427e-06
7.24584e-06
2.74318e-06
7.29873e-06
2.73541e-06
7.34669e-06
2.72055e-06
7.38951e-06
2.69815e-06
7.42695e-06
2.66767e-06
7.45867e-06
2.62854e-06
7.48422e-06
2.58015e-06
7.50314e-06
2.52178e-06
7.51489e-06
2.45263e-06
7.51887e-06
2.37188e-06
7.51441e-06
2.27861e-06
7.50079e-06
2.17179e-06
7.47727e-06
2.05032e-06
7.44303e-06
1.91301e-06
7.39724e-06
1.75859e-06
7.33903e-06
1.5857e-06
7.26972e-06
1.35711e-06
7.19187e-06
1.09847e-06
7.1065e-06
8.5822e-07
7.01457e-06
6.35839e-07
6.9168e-06
4.31171e-07
6.81337e-06
2.43856e-07
6.70426e-06
7.17881e-08
6.58976e-06
-8.67973e-08
6.47031e-06
-2.3287e-07
6.3464e-06
-3.67194e-07
6.21851e-06
-4.90504e-07
6.08721e-06
-6.0353e-07
5.95303e-06
-7.06991e-07
5.81655e-06
-8.01648e-07
5.67835e-06
-8.88292e-07
5.53891e-06
-9.67587e-07
5.39863e-06
-1.04018e-06
5.25786e-06
-1.10673e-06
5.11703e-06
-1.16782e-06
4.97677e-06
-1.22379e-06
4.83789e-06
-1.27468e-06
4.70134e-06
-1.32014e-06
4.56789e-06
-1.35952e-06
4.43727e-06
-1.39239e-06
4.30817e-06
-1.41975e-06
4.17997e-06
-1.44387e-06
4.05289e-06
-1.46618e-06
3.92723e-06
-1.48713e-06
3.80327e-06
-1.50704e-06
3.68129e-06
-1.5261e-06
3.56156e-06
-1.54443e-06
3.44433e-06
-1.56209e-06
3.32983e-06
-1.57904e-06
-1.59523e-06
-2.41429e-09
-3.05489e-07
-7.15555e-09
-1.25923e-07
-1.12723e-08
-1.31647e-07
-1.47291e-08
-1.40648e-07
-1.77948e-08
-1.46091e-07
-2.0647e-08
-1.50717e-07
-2.33658e-08
-1.55051e-07
-2.5979e-08
-1.59235e-07
-2.84834e-08
-1.63323e-07
-3.08529e-08
-1.67331e-07
-3.30375e-08
-1.71251e-07
-3.49565e-08
-1.7506e-07
-3.64836e-08
-1.7872e-07
-3.74184e-08
-1.82175e-07
-3.74424e-08
-1.85338e-07
-3.60852e-08
-1.88077e-07
-3.27132e-08
-1.90194e-07
-2.65097e-08
-1.91426e-07
-1.64306e-08
-1.91438e-07
-1.19378e-09
-1.89823e-07
2.06697e-08
-1.86046e-07
5.07986e-08
-1.79485e-07
9.09346e-08
-1.69425e-07
1.42811e-07
-1.55078e-07
2.08056e-07
-1.35625e-07
2.88097e-07
-1.10269e-07
3.84151e-07
-7.82783e-08
4.97681e-07
-3.90279e-08
6.30692e-07
7.97367e-09
7.86056e-07
6.3344e-08
9.67908e-07
1.27938e-07
1.1814e-06
2.0267e-07
1.43048e-06
2.89305e-07
1.71623e-06
3.89596e-07
2.0363e-06
5.04616e-07
2.38494e-06
6.33905e-07
2.7536e-06
7.7573e-07
3.13197e-06
9.27144e-07
3.50919e-06
1.08413e-06
3.87566e-06
1.24238e-06
4.22412e-06
1.39734e-06
4.54996e-06
1.5455e-06
4.85155e-06
1.68451e-06
5.12997e-06
1.81265e-06
5.38631e-06
1.92998e-06
5.62113e-06
2.03768e-06
5.83543e-06
2.1357e-06
6.03035e-06
2.22438e-06
6.20714e-06
2.30402e-06
6.36725e-06
2.37493e-06
6.51227e-06
2.43741e-06
6.64382e-06
2.49184e-06
6.76347e-06
2.53861e-06
6.87261e-06
2.57806e-06
6.97245e-06
2.61048e-06
7.06399e-06
2.63608e-06
7.14803e-06
2.65496e-06
7.22517e-06
2.66713e-06
7.29583e-06
2.67253e-06
7.36026e-06
2.67098e-06
7.41857e-06
2.66225e-06
7.47072e-06
2.646e-06
7.51669e-06
2.6217e-06
7.5562e-06
2.58902e-06
7.58887e-06
2.54749e-06
7.61428e-06
2.49637e-06
7.63196e-06
2.43496e-06
7.64128e-06
2.36256e-06
7.64156e-06
2.27833e-06
7.63205e-06
2.1813e-06
7.61194e-06
2.07043e-06
7.58038e-06
1.94457e-06
7.53646e-06
1.80251e-06
7.47925e-06
1.64292e-06
7.40996e-06
1.4264e-06
7.33121e-06
1.17721e-06
7.24414e-06
9.45295e-07
7.14983e-06
7.30147e-07
7.04933e-06
5.3167e-07
6.94316e-06
3.50022e-07
6.83091e-06
1.84037e-07
6.71263e-06
3.14836e-08
6.58873e-06
-1.08968e-07
6.45978e-06
-2.38244e-07
6.32648e-06
-3.57199e-07
6.18963e-06
-4.66684e-07
6.04997e-06
-5.67332e-07
5.9081e-06
-6.59774e-07
5.76451e-06
-7.4471e-07
5.61964e-06
-8.22712e-07
5.47373e-06
-8.94272e-07
5.32692e-06
-9.59917e-07
5.17933e-06
-1.02024e-06
5.03131e-06
-1.07577e-06
4.88347e-06
-1.12685e-06
4.73686e-06
-1.17353e-06
4.59282e-06
-1.21548e-06
4.45246e-06
-1.25203e-06
4.31547e-06
-1.28276e-06
4.1804e-06
-1.3088e-06
4.0467e-06
-1.33247e-06
3.91465e-06
-1.35508e-06
3.78459e-06
-1.37698e-06
3.65684e-06
-1.39834e-06
3.53167e-06
-1.41927e-06
3.40935e-06
-1.43976e-06
3.29009e-06
-1.45978e-06
3.17409e-06
-1.47923e-06
3.06149e-06
-1.49797e-06
-1.51587e-06
-2.21725e-09
-3.03272e-07
-6.18164e-09
-1.21959e-07
-9.16309e-09
-1.28665e-07
-1.14887e-08
-1.38322e-07
-1.34189e-08
-1.44161e-07
-1.51229e-08
-1.49013e-07
-1.66838e-08
-1.5349e-07
-1.814e-08
-1.57778e-07
-1.95043e-08
-1.61958e-07
-2.0776e-08
-1.66059e-07
-2.19407e-08
-1.70086e-07
-2.297e-08
-1.7403e-07
-2.38163e-08
-1.77874e-07
-2.44044e-08
-1.81587e-07
-2.46153e-08
-1.85127e-07
-2.42572e-08
-1.88435e-07
-2.30291e-08
-1.91422e-07
-2.04963e-08
-1.93959e-07
-1.6078e-08
-1.95857e-07
-9.03113e-09
-1.9687e-07
1.61437e-09
-1.96691e-07
1.70644e-08
-1.94935e-07
3.87565e-08
-1.91117e-07
6.83239e-08
-1.84645e-07
1.07522e-07
-1.74823e-07
1.58125e-07
-1.60871e-07
2.21814e-07
-1.41966e-07
3.00076e-07
-1.1729e-07
3.94135e-07
-8.6086e-08
5.05181e-07
-4.77014e-08
6.34776e-07
-1.65629e-09
7.8504e-07
5.24066e-08
9.59062e-07
1.15283e-07
1.1609e-06
1.87754e-07
1.39477e-06
2.70749e-07
1.66292e-06
3.65756e-07
1.96459e-06
4.74065e-07
2.29593e-06
5.95798e-07
2.6504e-06
7.29663e-07
3.01926e-06
8.7353e-07
3.39255e-06
1.02405e-06
3.76077e-06
1.17728e-06
4.11613e-06
1.32915e-06
4.45309e-06
1.47569e-06
4.76866e-06
1.61441e-06
5.06314e-06
1.7432e-06
5.33723e-06
1.86162e-06
5.59106e-06
1.97054e-06
5.82502e-06
2.07006e-06
6.03963e-06
2.16032e-06
6.23562e-06
2.24142e-06
6.41398e-06
2.31349e-06
6.57591e-06
2.37667e-06
6.7228e-06
2.43117e-06
6.85605e-06
2.47723e-06
6.97701e-06
2.51512e-06
7.08688e-06
2.54509e-06
7.1867e-06
2.56731e-06
7.2773e-06
2.58192e-06
7.35934e-06
2.58895e-06
7.43324e-06
2.58834e-06
7.49927e-06
2.57997e-06
7.55786e-06
2.56311e-06
7.60859e-06
2.53829e-06
7.65123e-06
2.50485e-06
7.68573e-06
2.46187e-06
7.71168e-06
2.40901e-06
7.72844e-06
2.3458e-06
7.73533e-06
2.27145e-06
7.73159e-06
2.18504e-06
7.71641e-06
2.08561e-06
7.6889e-06
1.97208e-06
7.64811e-06
1.8433e-06
7.593e-06
1.69802e-06
7.52468e-06
1.49472e-06
7.44577e-06
1.25613e-06
7.35746e-06
1.0336e-06
7.26097e-06
8.26642e-07
7.1576e-06
6.35038e-07
7.04847e-06
4.59146e-07
6.93348e-06
2.99029e-07
6.81219e-06
1.52772e-07
6.68481e-06
1.84148e-08
6.55205e-06
-1.05489e-07
6.41479e-06
-2.19936e-07
6.27386e-06
-3.25757e-07
6.13001e-06
-4.23477e-07
5.9837e-06
-5.13469e-07
5.83515e-06
-5.96155e-07
5.68456e-06
-6.72127e-07
5.53222e-06
-7.41925e-07
5.37837e-06
-8.06069e-07
5.22327e-06
-8.65137e-07
5.06723e-06
-9.19729e-07
4.91076e-06
-9.70376e-07
4.75467e-06
-1.01745e-06
4.60021e-06
-1.06102e-06
4.44891e-06
-1.10072e-06
4.302e-06
-1.13585e-06
4.15914e-06
-1.16595e-06
4.01886e-06
-1.19219e-06
3.88064e-06
-1.21686e-06
3.74476e-06
-1.2411e-06
3.61154e-06
-1.26513e-06
3.48128e-06
-1.28901e-06
3.35423e-06
-1.31271e-06
3.23061e-06
-1.33616e-06
3.11059e-06
-1.35921e-06
2.99432e-06
-1.3817e-06
2.88189e-06
-1.40344e-06
2.77338e-06
-1.42425e-06
2.66882e-06
-1.44396e-06
2.56822e-06
-1.4624e-06
-1.47944e-06
-2.04926e-09
-3.01222e-07
-5.30121e-09
-1.18706e-07
-7.22127e-09
-1.26744e-07
-8.53534e-09
-1.37007e-07
-9.46492e-09
-1.4323e-07
-1.01582e-08
-1.48319e-07
-1.06877e-08
-1.5296e-07
-1.10873e-08
-1.57378e-07
-1.13744e-08
-1.61671e-07
-1.15531e-08
-1.6588e-07
-1.16204e-08
-1.70018e-07
-1.15664e-08
-1.74084e-07
-1.13734e-08
-1.78067e-07
-1.10121e-08
-1.81948e-07
-1.04373e-08
-1.85701e-07
-9.57834e-09
-1.89293e-07
-8.32314e-09
-1.92677e-07
-6.49056e-09
-1.95791e-07
-3.80125e-09
-1.98546e-07
1.40636e-10
-2.00812e-07
5.85937e-09
-2.0241e-07
1.40364e-08
-2.03111e-07
2.55531e-08
-2.02633e-07
4.15315e-08
-2.00624e-07
6.33472e-08
-1.96638e-07
9.25964e-08
-1.9012e-07
1.31034e-07
-1.80404e-07
1.80473e-07
-1.66729e-07
2.42665e-07
-1.48277e-07
3.19188e-07
-1.24224e-07
4.11332e-07
-9.38004e-08
5.20068e-07
-5.63291e-08
6.46642e-07
-1.12909e-08
7.92707e-07
4.16899e-08
9.60418e-07
1.03038e-07
1.1527e-06
1.73479e-07
1.37318e-06
2.53584e-07
1.62476e-06
3.44211e-07
1.90802e-06
4.46412e-07
2.22067e-06
5.6088e-07
2.55783e-06
6.86885e-07
2.9126e-06
8.22516e-07
3.27645e-06
9.65301e-07
3.64029e-06
1.11185e-06
3.99622e-06
1.25847e-06
4.3383e-06
1.40113e-06
4.66282e-06
1.5371e-06
4.9691e-06
1.66426e-06
5.25731e-06
1.78185e-06
5.52715e-06
1.89048e-06
5.7784e-06
1.99017e-06
6.01085e-06
2.08103e-06
6.22465e-06
2.16288e-06
6.4203e-06
2.23551e-06
6.59867e-06